<event>
12    1  0.8133495E-002  0.1855249E+03  0.7818608E-02  0.1162571E+00
         21   -1    0    0  501  502  0.00000000000E+00  0.00000000000E+00  0.25712686295E+03  0.25712686295E+03  0.00000000000E+00 0.  1.
         21   -1    0    0  502  503 -0.00000000000E+00 -0.00000000000E+00 -0.25737906046E+03  0.25737906046E+03  0.00000000000E+00 0.  1.
         -6    2    1    2    0  503 -0.29292459194E+02  0.59340639614E+02 -0.17836181649E+03  0.25732401810E+03  0.17327248205E+03 0.  0.
        -24    2    3    3    0    0 -0.37503775638E+02 -0.20035237608E+02 -0.42375665423E+02  0.99582841219E+02  0.79455026978E+02 0.  0.
          6    2    1    2  501    0  0.29292459194E+02 -0.59340639614E+02  0.17810961897E+03  0.25718190531E+03  0.17332090576E+03 0.  0.
         24    2    5    5    0    0 -0.57573547077E+02 -0.10917751324E+02  0.75364638199E+02  0.11411164205E+03  0.62511819227E+02 0.  0.
          5    1    5    5  501    0  0.86866006270E+02 -0.48422888290E+02  0.10274498077E+03  0.14307026326E+03  0.47000000000E+01 0. -1.
        -13    1    6    6    0    0 -0.35890319157E+02 -0.26290026321E+02  0.75382997372E+02  0.87532147157E+02  0.00000000000E+00 0.  1.
         14    1    6    6    0    0 -0.21683227919E+02  0.15372274997E+02 -0.18359172987E-01  0.26579494891E+02  0.00000000000E+00 0. -1.
         -5    1    3    3    0  503  0.82113164439E+01  0.79375877221E+02 -0.13598615107E+03  0.15774117688E+03  0.47000000000E+01 0.  1.
         11    1    4    4    0    0 -0.49628552434E+02 -0.95263171056E+01  0.38212268787E+01  0.50678848735E+02  0.00000000000E+00 0. -1.
        -12    1    4    4    0    0  0.12124776796E+02 -0.10508920502E+02 -0.46196892302E+02  0.48903992484E+02  0.00000000000E+00 0.  1.
</event>
<event>
12    1  0.8133495E-002  0.1946905E+03  0.7818608E-02  0.1156095E+00
         21   -1    0    0  503  502  0.00000000000E+00  0.00000000000E+00  0.89891503794E+03  0.89891503794E+03  0.00000000000E+00 0.  1.
         21   -1    0    0  501  503 -0.00000000000E+00 -0.00000000000E+00 -0.72014519325E+02  0.72014519325E+02  0.00000000000E+00 0.  1.
          6    2    1    2  501    0  0.11229422917E+02  0.76503729182E+02  0.87150323017E+02  0.20598855515E+03  0.16987402843E+03 0.  0.
         24    2    3    3    0    0  0.39346362203E+02  0.46076574029E+02 -0.91211032995E+01  0.10107596501E+03  0.80386374990E+02 0.  0.
         -6    2    1    2    0  502 -0.11229422917E+02 -0.76503729182E+02  0.73975019560E+03  0.76494100212E+03  0.17867698315E+03 0.  0.
        -24    2    5    5    0    0 -0.42934420663E+02  0.14337944603E+02  0.46593098881E+03  0.47467136095E+03  0.78563817591E+02 0.  0.
          5    1    3    3  501    0 -0.28116939286E+02  0.30427155153E+02  0.96271426317E+02  0.10491259014E+03  0.47000000000E+01 0. -1.
        -13    1    4    4    0    0  0.25133645657E+02  0.47276128040E+02 -0.40151534932E+02  0.66924421431E+02  0.00000000000E+00 0.  1.
         14    1    4    4    0    0  0.14212716546E+02 -0.11995540106E+01  0.31030431632E+02  0.34151543577E+02  0.00000000000E+00 0. -1.
         -5    1    5    5    0  502  0.31704997746E+02 -0.90841673785E+02  0.27381920679E+03  0.29026964117E+03  0.47000000000E+01 0.  1.
         13    1    6    6    0    0 -0.55337900928E+02  0.17676447884E+01  0.18305586142E+03  0.19124553916E+03  0.00000000000E+00 0. -1.
        -14    1    6    6    0    0  0.12403480265E+02  0.12570299815E+02  0.28287512740E+03  0.28342582179E+03  0.00000000000E+00 0.  1.
</event>
<event>
12    1  0.8133495E-002  0.1732266E+03  0.7818608E-02  0.1174807E+00
         21   -1    0    0  501  502  0.00000000000E+00  0.00000000000E+00  0.59283884731E+03  0.59283884731E+03  0.00000000000E+00 0.  1.
         21   -1    0    0  502  503 -0.00000000000E+00 -0.00000000000E+00 -0.61539267900E+02  0.61539267900E+02  0.00000000000E+00 0.  1.
         -6    2    1    2    0  503  0.56203282645E+01 -0.16924802154E+02  0.12647745924E+03  0.21448540851E+03  0.17230613962E+03 0.  0.
        -24    2    3    3    0    0  0.12568428120E+02 -0.69708850698E+02  0.41098519805E+02  0.11375763095E+03  0.78958349901E+02 0.  0.
          6    2    1    2  501    0 -0.56203282645E+01  0.16924802154E+02  0.40482212017E+03  0.43989270670E+03  0.17119172705E+03 0.  0.
         24    2    5    5    0    0 -0.53202670635E+02 -0.30054510576E+02  0.29887671144E+03  0.31452263547E+03  0.76572852962E+02 0.  0.
          5    1    5    5  501    0  0.47582342370E+02  0.46979312730E+02  0.10594540873E+03  0.12537007123E+03  0.47000000000E+01 0. -1.
        -11    1    6    6    0    0  0.81428973479E+00  0.82240616375E+00 -0.45949261985E+01  0.47384350201E+01  0.00000000000E+00 0.  1.
         12    1    6    6    0    0 -0.54016960369E+02 -0.30876916740E+02  0.30347163764E+03  0.30978420045E+03  0.00000000000E+00 0. -1.
         -5    1    3    3    0  503 -0.69480998555E+01  0.52784048545E+02  0.85378939433E+02  0.10072777755E+03  0.47000000000E+01 0.  1.
         13    1    4    4    0    0  0.22957075409E+02 -0.23720882854E+02 -0.18440510957E+02  0.37812167871E+02  0.00000000000E+00 0. -1.
        -14    1    4    4    0    0 -0.10388647289E+02 -0.45987967844E+02  0.59539030762E+02  0.75945463084E+02  0.00000000000E+00 0.  1.
</event>
<event>
12    1  0.8133495E-002  0.2052678E+03  0.7818608E-02  0.1145488E+00
         21   -1    0    0  501  502  0.00000000000E+00  0.00000000000E+00  0.77087665198E+02  0.77087665198E+02  0.00000000000E+00 0. -1.
         21   -1    0    0  502  503 -0.00000000000E+00 -0.00000000000E+00 -0.68884634830E+03  0.68884634830E+03  0.00000000000E+00 0. -1.
         -6    2    1    2    0  503  0.70153897325E+02 -0.86978454086E+02 -0.48051775330E+03  0.52229684378E+03  0.17149303485E+03 0.  0.
        -24    2    3    3    0    0  0.67537403056E+02 -0.12517896632E+03 -0.34787029750E+03  0.38415357501E+03  0.79555960714E+02 0.  0.
          6    2    1    2  501    0 -0.70153897325E+02  0.86978454086E+02 -0.13124092980E+03  0.24363716972E+03  0.17218614354E+03 0.  0.
         24    2    5    5    0    0 -0.15962282516E+01  0.90503188859E+02 -0.30793569568E+02  0.12188192375E+03  0.75588254849E+02 0.  0.
          5    1    5    5  501    0 -0.68557669074E+02 -0.35247347730E+01 -0.10044736023E+03  0.12175524597E+03  0.47000000000E+01 0. -1.
        -11    1    6    6    0    0  0.30782119933E+02  0.35605476248E+02 -0.34005950599E+02  0.58066285593E+02  0.00000000000E+00 0.  1.
         12    1    6    6    0    0 -0.32378348184E+02  0.54897712610E+02  0.32123810308E+01  0.63815638153E+02  0.00000000000E+00 0. -1.
         -5    1    3    3    0  503  0.26164942688E+01  0.38200512238E+02 -0.13264745580E+03  0.13814326878E+03  0.47000000000E+01 0.  1.
         11    1    4    4    0    0  0.64216215666E+02 -0.37295879043E+02 -0.14086086908E+03  0.15923721106E+03  0.00000000000E+00 0. -1.
        -12    1    4    4    0    0  0.33211873901E+01 -0.87883087281E+02 -0.20700942843E+03  0.22491636395E+03  0.00000000000E+00 0.  1.
</event>
<event>
12    1  0.8133495E-002  0.1887890E+03  0.7818608E-02  0.1159621E+00
         21   -1    0    0  501  502  0.00000000000E+00  0.00000000000E+00  0.41274389983E+02  0.41274389983E+02  0.00000000000E+00 0.  1.
         21   -1    0    0  502  503 -0.00000000000E+00 -0.00000000000E+00 -0.92451407257E+03  0.92451407257E+03  0.00000000000E+00 0.  1.
         -6    2    1    2    0  503  0.37405715193E+02 -0.66913337037E+02 -0.31601122867E+03  0.36796790725E+03  0.17222282635E+03 0.  0.
        -24    2    3    3    0    0 -0.24810083307E+02 -0.22396700526E+02 -0.25704719881E+03  0.27126535648E+03  0.79965484920E+02 0.  0.
          6    2    1    2  501    0 -0.37405715193E+02  0.66913337037E+02 -0.56722845392E+03  0.59782055530E+03  0.17252453509E+03 0.  0.
         24    2    5    5    0    0 -0.60308819828E+02  0.10493018162E+03 -0.41583824856E+03  0.43998862903E+03  0.77595411864E+02 0.  0.
          5    1    5    5  501    0  0.22903104635E+02 -0.38016844587E+02 -0.15139020535E+03  0.15783192627E+03  0.47000000000E+01 0. -1.
        -13    1    6    6    0    0 -0.22302815538E+02  0.21838216532E+02 -0.29347007217E+02  0.42843553947E+02  0.00000000000E+00 0.  1.
         14    1    6    6    0    0 -0.38006004291E+02  0.83091965092E+02 -0.38649124135E+03  0.39714507508E+03  0.00000000000E+00 0. -1.
         -5    1    3    3    0  503  0.62215798500E+02 -0.44516636510E+02 -0.58964029861E+02  0.96702550776E+02  0.47000000000E+01 0.  1.
         11    1    4    4    0    0  0.10176300813E+02  0.18439119847E+02 -0.23279445541E+02  0.31392528150E+02  0.00000000000E+00 0. -1.
        -12    1    4    4    0    0 -0.34986384121E+02 -0.40835820373E+02 -0.23376775327E+03  0.23987282833E+03  0.00000000000E+00 0.  1.
</event>
<event>
12    1  0.8133495E-002  0.3792164E+03  0.7818608E-02  0.1051282E+00
         21   -1    0    0  501  502  0.00000000000E+00  0.00000000000E+00  0.10568513450E+04  0.10568513450E+04  0.00000000000E+00 0. -1.
         21   -1    0    0  502  503 -0.00000000000E+00 -0.00000000000E+00 -0.13695105992E+03  0.13695105992E+03  0.00000000000E+00 0.  1.
         -6    2    1    2    0  503  0.76261630275E+02 -0.32900175995E+03  0.40666426352E+03  0.55604036790E+03  0.17247339856E+03 0.  0.
        -24    2    3    3    0    0  0.88047009710E+02 -0.24835243664E+03  0.22056575674E+03  0.35282139058E+03  0.80015447881E+02 0.  0.
          6    2    1    2  501    0 -0.76261630275E+02  0.32900175995E+03  0.51323602157E+03  0.63776203703E+03  0.17108830390E+03 0.  0.
         24    2    5    5    0    0 -0.10145234727E+03  0.24212678287E+03  0.44991422145E+03  0.52724699626E+03  0.81539135707E+02 0.  0.
          5    1    5    5  501    0  0.25190716997E+02  0.86874977083E+02  0.63321800127E+02  0.11051504077E+03  0.47000000000E+01 0. -1.
        -11    1    6    6    0    0 -0.15069429062E+02  0.14114121742E+03  0.22690062381E+03  0.26764122260E+03  0.00000000000E+00 0.  1.
         12    1    6    6    0    0 -0.86382918209E+02  0.10098556545E+03  0.22301359763E+03  0.25960577366E+03  0.00000000000E+00 0. -1.
         -5    1    3    3    0  503 -0.11785379436E+02 -0.80649323310E+02  0.18609850678E+03  0.20321897732E+03  0.47000000000E+01 0.  1.
         13    1    4    4    0    0  0.45311241147E+02 -0.21031161760E+03  0.15146046966E+03  0.26310522409E+03  0.00000000000E+00 0. -1.
        -14    1    4    4    0    0  0.42735768563E+02 -0.38040819041E+02  0.69105287072E+02  0.89716166488E+02  0.00000000000E+00 0.  1.
</event>
<event>
12    1  0.8133495E-002  0.1749310E+03  0.7818608E-02  0.1173400E+00
         21   -1    0    0  503  502  0.00000000000E+00  0.00000000000E+00  0.44181574428E+03  0.44181574428E+03  0.00000000000E+00 0. -1.
         21   -1    0    0  501  503 -0.00000000000E+00 -0.00000000000E+00 -0.93312158788E+02  0.93312158788E+02  0.00000000000E+00 0. -1.
          6    2    1    2  501    0  0.13460099827E+02 -0.24829195013E+01  0.34932565373E+02  0.17606293280E+03  0.17201899025E+03 0.  0.
         24    2    3    3    0    0  0.22663520861E+02 -0.67933726964E+02  0.22676455244E+02  0.10867737506E+03  0.78536130479E+02 0.  0.
         -6    2    1    2    0  502 -0.13460099827E+02  0.24829195013E+01  0.31357102012E+03  0.35906497027E+03  0.17439475061E+03 0.  0.
        -24    2    5    5    0    0 -0.76112024777E+02  0.87939808044E+01  0.17153465757E+03  0.20362523442E+03  0.78541218040E+02 0.  0.
          5    1    3    3  501    0 -0.92034210342E+01  0.65450807463E+02  0.12256110129E+02  0.67385557739E+02  0.47000000000E+01 0. -1.
        -13    1    4    4    0    0  0.16892584003E+02  0.11329219581E+02  0.20930347809E+02  0.29185442776E+02  0.00000000000E+00 0.  1.
         14    1    4    4    0    0  0.57709368581E+01 -0.79262946545E+02  0.17461074347E+01  0.79491932285E+02  0.00000000000E+00 0. -1.
         -5    1    5    5    0  502  0.62651924950E+02 -0.63110613031E+01  0.14203636255E+03  0.15543973585E+03  0.47000000000E+01 0.  1.
         13    1    6    6    0    0 -0.32490950144E+02  0.35105004557E+02  0.39265705211E+02  0.61885529746E+02  0.00000000000E+00 0. -1.
        -14    1    6    6    0    0 -0.43621074632E+02 -0.26311023753E+02  0.13226895236E+03  0.14173970468E+03  0.00000000000E+00 0.  1.
</event>
<event>
12    1  0.8133495E-002  0.1727855E+03  0.7818608E-02  0.1175434E+00
         21   -1    0    0  503  502  0.00000000000E+00  0.00000000000E+00  0.34944707142E+03  0.34944707142E+03  0.00000000000E+00 0. -1.
         21   -1    0    0  501  503 -0.00000000000E+00 -0.00000000000E+00 -0.85273353523E+02  0.85273353523E+02  0.00000000000E+00 0. -1.
          6    2    1    2  501    0  0.26706860217E+00 -0.19497220956E+02  0.11274728893E+03  0.20631721138E+03  0.17168176257E+03 0.  0.
         24    2    3    3    0    0 -0.57601678818E+02 -0.11395102169E+02  0.11007511561E+03  0.14763444758E+03  0.78940466673E+02 0.  0.
         -6    2    1    2    0  502 -0.26706860217E+00  0.19497220956E+02  0.15142642897E+03  0.22840321357E+03  0.16987598897E+03 0.  0.
        -24    2    5    5    0    0 -0.99349360592E+01  0.73369500632E+02  0.11869028741E+03  0.16445452209E+03  0.86464553032E+02 0.  0.
          5    1    3    3  501    0  0.57868747420E+02 -0.81021187864E+01  0.26721733186E+01  0.58682763799E+02  0.47000000000E+01 0. -1.
        -13    1    4    4    0    0 -0.41674195390E+02  0.30698363694E+02  0.72053103060E+02  0.88717403904E+02  0.00000000000E+00 0.  1.
         14    1    4    4    0    0 -0.15927483428E+02 -0.42093465864E+02  0.38022012550E+02  0.58917043673E+02  0.00000000000E+00 0. -1.
         -5    1    5    5    0  502  0.96678674570E+01 -0.53872279676E+02  0.32736141560E+02  0.63948691487E+02  0.47000000000E+01 0.  1.
         11    1    6    6    0    0  0.25428378260E+01  0.34713621705E+02  0.11884214473E+03  0.12383439312E+03  0.00000000000E+00 0. -1.
        -12    1    6    6    0    0 -0.12477773885E+02  0.38655878927E+02 -0.15185731220E+00  0.40620128968E+02  0.00000000000E+00 0.  1.
</event>
<event>
12    1  0.8133495E-002  0.2064023E+03  0.7818608E-02  0.1144462E+00
         21   -1    0    0  503  502  0.00000000000E+00  0.00000000000E+00  0.31516273829E+03  0.31516273829E+03  0.00000000000E+00 0.  1.
         21   -1    0    0  501  503 -0.00000000000E+00 -0.00000000000E+00 -0.32418728960E+03  0.32418728960E+03  0.00000000000E+00 0. -1.
          6    2    1    2  501    0  0.11536192967E+02  0.11347633295E+03 -0.24863736528E+03  0.32314459486E+03  0.17202304463E+03 0.  0.
         24    2    3    3    0    0 -0.58742819641E+01  0.55466695639E+02 -0.35588717222E+02  0.10160439738E+03  0.77109242375E+02 0.  0.
         -6    2    1    2    0  502 -0.11536192967E+02 -0.11347633295E+03  0.23961281397E+03  0.31620543303E+03  0.17193491028E+03 0.  0.
        -24    2    5    5    0    0  0.25077940667E+02 -0.81130005406E+02  0.24073989889E+03  0.26711123777E+03  0.78624001067E+02 0.  0.
          5    1    3    3  501    0  0.17410474931E+02  0.58009637313E+02 -0.21304864806E+03  0.22154019748E+03  0.47000000000E+01 0. -1.
        -13    1    4    4    0    0  0.22559350399E+02  0.59581584473E+02 -0.12915194316E+02  0.65005320882E+02  0.00000000000E+00 0.  1.
         14    1    4    4    0    0 -0.28433632363E+02 -0.41148888338E+01 -0.22673522906E+02  0.36599076497E+02  0.00000000000E+00 0. -1.
         -5    1    5    5    0  502 -0.36614133634E+02 -0.32346327547E+02 -0.11270849181E+01  0.49094195257E+02  0.47000000000E+01 0.  1.
         13    1    6    6    0    0  0.53373463228E+00  0.77261910696E+01 -0.15315055505E+01  0.78945810752E+01  0.00000000000E+00 0. -1.
        -14    1    6    6    0    0  0.24544206035E+02 -0.88856196475E+02  0.24227140444E+03  0.25921665670E+03  0.00000000000E+00 0.  1.
</event>
<event>
12    1  0.8133495E-002  0.2794190E+03  0.7818608E-02  0.1096159E+00
         21   -1    0    0  503  502  0.00000000000E+00  0.00000000000E+00  0.41262848747E+03  0.41262848747E+03  0.00000000000E+00 0.  1.
         21   -1    0    0  501  503 -0.00000000000E+00 -0.00000000000E+00 -0.19165607916E+03  0.19165607916E+03  0.00000000000E+00 0. -1.
          6    2    1    2  501    0  0.11692954642E+03 -0.18661269058E+03  0.71276431490E+02  0.28729266486E+03  0.17017617484E+03 0.  0.
         24    2    3    3    0    0  0.64965463506E+02 -0.35488703171E+02 -0.27460832589E+02  0.99383477214E+02  0.60357424692E+02 0.  0.
         -6    2    1    2    0  502 -0.11692954642E+03  0.18661269058E+03  0.14969597683E+03  0.31699190177E+03  0.17198303753E+03 0.  0.
        -24    2    5    5    0    0 -0.13894552361E+03  0.11983853852E+03  0.73303313684E+02  0.21306202340E+03  0.79717728091E+02 0.  0.
          5    1    3    3  501    0  0.51964082911E+02 -0.15112398741E+03  0.98737264079E+02  0.18790918764E+03  0.47000000000E+01 0. -1.
        -13    1    4    4    0    0  0.67055582706E+02 -0.27911888886E+02 -0.19173693520E+01  0.72658110479E+02  0.00000000000E+00 0.  1.
         14    1    4    4    0    0 -0.20901192003E+01 -0.75768142854E+01 -0.25543463237E+02  0.26725366735E+02  0.00000000000E+00 0. -1.
         -5    1    5    5    0  502  0.22015977197E+02  0.66774152057E+02  0.76392663144E+02  0.10392987837E+03  0.47000000000E+01 0.  1.
         13    1    6    6    0    0 -0.48815590676E+02  0.43679771395E+02 -0.13112716300E+02  0.66804398440E+02  0.00000000000E+00 0. -1.
        -14    1    6    6    0    0 -0.90129932938E+02  0.76158767129E+02  0.86416029983E+02  0.14625762496E+03  0.00000000000E+00 0.  1.
</event>
<event>
12    1  0.8133495E-002  0.2421635E+03  0.7818608E-02  0.1119948E+00
         21   -1    0    0  503  502  0.00000000000E+00  0.00000000000E+00  0.11484057278E+03  0.11484057278E+03  0.00000000000E+00 0.  1.
         21   -1    0    0  501  503 -0.00000000000E+00 -0.00000000000E+00 -0.50426989581E+03  0.50426989581E+03  0.00000000000E+00 0. -1.
          6    2    1    2  501    0 -0.12976940348E+03 -0.11521680793E+03 -0.24129080242E+03  0.33522989375E+03  0.15505747135E+03 0.  0.
         24    2    3    3    0    0 -0.11060448706E+03 -0.10181959841E+03 -0.11439453579E+03  0.20611160795E+03  0.82433621371E+02 0.  0.
         -6    2    1    2    0  502  0.12976940348E+03  0.11521680793E+03 -0.14813852062E+03  0.28388057484E+03  0.16890277847E+03 0.  0.
        -24    2    5    5    0    0  0.63394047927E+02  0.48701535353E+02 -0.15315589176E+03  0.18966150393E+03  0.78256718794E+02 0.  0.
          5    1    3    3  501    0 -0.19164916414E+02 -0.13397209514E+02 -0.12689626663E+03  0.12911828580E+03  0.47000000000E+01 0. -1.
        -11    1    4    4    0    0  0.46750057126E+01  0.36435184285E+01  0.63229020326E+01  0.86666022792E+01  0.00000000000E+00 0.  1.
         12    1    4    4    0    0 -0.11527949278E+03 -0.10546311684E+03 -0.12071743782E+03  0.19744500567E+03  0.00000000000E+00 0. -1.
         -5    1    5    5    0  502  0.66375355552E+02  0.66515272575E+02  0.50173711385E+01  0.94219070912E+02  0.47000000000E+01 0.  1.
         13    1    6    6    0    0  0.52285007026E+02  0.35203768419E+02 -0.38885198012E+02  0.74061365739E+02  0.00000000000E+00 0. -1.
        -14    1    6    6    0    0  0.11109040900E+02  0.13497766934E+02 -0.11427069374E+03  0.11560013819E+03  0.00000000000E+00 0.  1.
</event>
<event>
12    1  0.8133495E-002  0.1780196E+03  0.7818608E-02  0.1169745E+00
         21   -1    0    0  501  502  0.00000000000E+00  0.00000000000E+00  0.73221497387E+03  0.73221497387E+03  0.00000000000E+00 0.  1.
         21   -1    0    0  502  503 -0.00000000000E+00 -0.00000000000E+00 -0.16968852140E+03  0.16968852140E+03  0.00000000000E+00 0.  1.
         -6    2    1    2    0  503 -0.33391675141E+02 -0.30473437484E+02 -0.10796032200E+03  0.20819800660E+03  0.17218404242E+03 0.  0.
        -24    2    3    3    0    0 -0.67847793700E+02 -0.61418303635E+02 -0.44974136539E+02  0.12987713833E+03  0.80435483296E+02 0.  0.
          6    2    1    2  501    0  0.33391675141E+02  0.30473437484E+02  0.67048677446E+03  0.69370548867E+03  0.17213702659E+03 0.  0.
         24    2    5    5    0    0 -0.37592843490E+02  0.54835153662E+02  0.40390011403E+03  0.41671662135E+03  0.78085366339E+02 0.  0.
          5    1    5    5  501    0  0.70984518632E+02 -0.24361716178E+02  0.26658666043E+03  0.27698886732E+03  0.47000000000E+01 0. -1.
        -11    1    6    6    0    0 -0.56554110153E+02  0.15611076777E+02  0.24783153259E+03  0.25468125498E+03  0.00000000000E+00 0.  1.
         12    1    6    6    0    0  0.18961266663E+02  0.39224076885E+02  0.15606858144E+03  0.16203536637E+03  0.00000000000E+00 0. -1.
         -5    1    3    3    0  503  0.34456118558E+02  0.30944866151E+02 -0.62986185460E+02  0.78320868266E+02  0.47000000000E+01 0.  1.
         11    1    4    4    0    0 -0.24409658535E+02 -0.67875446969E+02 -0.81958715484E+01  0.72595316939E+02  0.00000000000E+00 0. -1.
        -12    1    4    4    0    0 -0.43438135164E+02  0.64571433338E+01 -0.36778264991E+02  0.57281821395E+02  0.00000000000E+00 0.  1.
</event>
<event>
12    1  0.8133495E-002  0.1891573E+03  0.7818608E-02  0.1159423E+00
         21   -1    0    0  501  502  0.00000000000E+00  0.00000000000E+00  0.10170158221E+04  0.10170158221E+04  0.00000000000E+00 0. -1.
         21   -1    0    0  502  503 -0.00000000000E+00 -0.00000000000E+00 -0.35064701107E+02  0.35064701107E+02  0.00000000000E+00 0.  1.
         -6    2    1    2    0  503 -0.15918644568E+02 -0.76964056441E+02  0.47302881205E+03  0.50944749411E+03  0.17205703415E+03 0.  0.
        -24    2    3    3    0    0 -0.49599010569E+01 -0.55845540315E+02  0.11711837290E+03  0.15271171447E+03  0.80379285103E+02 0.  0.
          6    2    1    2  501    0  0.15918644568E+02  0.76964056441E+02  0.50892230893E+03  0.54263302908E+03  0.17109008883E+03 0.  0.
         24    2    5    5    0    0  0.33512986484E+02  0.10340834734E+02  0.12826548211E+03  0.15576105498E+03  0.81113619218E+02 0.  0.
          5    1    5    5  501    0 -0.17594341916E+02  0.66623221707E+02  0.38065682682E+03  0.38687197410E+03  0.47000000000E+01 0. -1.
        -11    1    6    6    0    0 -0.26535570506E+02  0.66399210121E+01  0.30518087049E+02  0.40982663288E+02  0.00000000000E+00 0.  1.
         12    1    6    6    0    0  0.60048556989E+02  0.37009137222E+01  0.97747395062E+02  0.11477839170E+03  0.00000000000E+00 0. -1.
         -5    1    3    3    0  503 -0.10958743511E+02 -0.21118516126E+02  0.35591043914E+03  0.35673577964E+03  0.47000000000E+01 0.  1.
         11    1    4    4    0    0  0.21379905398E+01  0.18554474025E+02  0.76945291724E+01  0.20200130918E+02  0.00000000000E+00 0. -1.
        -12    1    4    4    0    0 -0.70978915967E+01 -0.74400014341E+02  0.10942384373E+03  0.13251158355E+03  0.00000000000E+00 0.  1.
</event>
<event>
12    1  0.8133495E-002  0.2290739E+03  0.7818608E-02  0.1127343E+00
         21   -1    0    0  503  502  0.00000000000E+00  0.00000000000E+00  0.61695232206E+03  0.61695232206E+03  0.00000000000E+00 0.  1.
         21   -1    0    0  501  503 -0.00000000000E+00 -0.00000000000E+00 -0.87954229812E+02  0.87954229812E+02  0.00000000000E+00 0. -1.
          6    2    1    2  501    0  0.11769880004E+03  0.94337146136E+02  0.19921614537E+03  0.30337078367E+03  0.17202980886E+03 0.  0.
         24    2    3    3    0    0  0.21862225707E+02  0.57386816624E+02  0.16807023249E+03  0.19593646085E+03  0.79826624675E+02 0.  0.
         -6    2    1    2    0  502 -0.11769880004E+03 -0.94337146136E+02  0.32978194688E+03  0.40153576820E+03  0.17240167049E+03 0.  0.
        -24    2    5    5    0    0 -0.13042166294E+03 -0.63950737219E+02  0.16642283365E+03  0.23482195665E+03  0.79657296035E+02 0.  0.
          5    1    3    3  501    0  0.95836574329E+02  0.36950329512E+02  0.31145912880E+02  0.10743432282E+03  0.47000000000E+01 0. -1.
        -11    1    4    4    0    0  0.49801559905E+02  0.22723525425E+02  0.75944775561E+02  0.93617108008E+02  0.00000000000E+00 0.  1.
         12    1    4    4    0    0 -0.27939334198E+02  0.34663291199E+02  0.92125456930E+02  0.10231935285E+03  0.00000000000E+00 0. -1.
         -5    1    5    5    0  502  0.12722862900E+02 -0.30386408916E+02  0.16335911323E+03  0.16671381155E+03  0.47000000000E+01 0.  1.
         11    1    6    6    0    0 -0.45436997354E+02 -0.65605349842E+02  0.92560110944E+02  0.12221275218E+03  0.00000000000E+00 0. -1.
        -12    1    6    6    0    0 -0.84984665583E+02  0.16546126228E+01  0.73862722708E+02  0.11260920448E+03  0.00000000000E+00 0.  1.
</event>
<event>
12    1  0.8133495E-002  0.2134259E+03  0.7818608E-02  0.1139450E+00
         21   -1    0    0  501  502  0.00000000000E+00  0.00000000000E+00  0.31145045894E+03  0.31145045894E+03  0.00000000000E+00 0. -1.
         21   -1    0    0  502  503 -0.00000000000E+00 -0.00000000000E+00 -0.17579639401E+03  0.17579639401E+03  0.00000000000E+00 0. -1.
         -6    2    1    2    0  503 -0.12096571815E+03 -0.38864326486E+02 -0.35728076795E+02  0.21352716812E+03  0.16785176559E+03 0.  0.
        -24    2    3    3    0    0 -0.61780079340E+02  0.41530459614E+02 -0.88173952024E+01  0.11002578524E+03  0.80538001472E+02 0.  0.
          6    2    1    2  501    0  0.12096571815E+03  0.38864326486E+02  0.17138214172E+03  0.27371968484E+03  0.17148611176E+03 0.  0.
         24    2    5    5    0    0  0.93346589918E+01 -0.15780104414E+02  0.10461138479E+03  0.13255336032E+03  0.79313958109E+02 0.  0.
          5    1    5    5  501    0  0.11163105915E+03  0.54644430899E+02  0.66770756935E+02  0.14116632452E+03  0.47000000000E+01 0. -1.
        -11    1    6    6    0    0  0.14601060729E+02  0.14486713518E+01 -0.92042318509E+01  0.17320724784E+02  0.00000000000E+00 0.  1.
         12    1    6    6    0    0 -0.52664017368E+01 -0.17228775765E+02  0.11381561664E+03  0.11523263553E+03  0.00000000000E+00 0. -1.
         -5    1    3    3    0  503 -0.59185638806E+02 -0.80394786100E+02 -0.26910681593E+02  0.10350138287E+03  0.47000000000E+01 0.  1.
         11    1    4    4    0    0 -0.71422438568E+02  0.35140366984E+02 -0.30667638527E+02  0.85302486339E+02  0.00000000000E+00 0. -1.
        -12    1    4    4    0    0  0.96423592287E+01  0.63900926300E+01  0.21850243325E+02  0.24723298903E+02  0.00000000000E+00 0.  1.
</event>
<event>
12    1  0.8133495E-002  0.2072392E+03  0.7818608E-02  0.1143818E+00
         21   -1    0    0  503  502  0.00000000000E+00  0.00000000000E+00  0.48965708616E+03  0.48965708616E+03  0.00000000000E+00 0.  1.
         21   -1    0    0  501  503 -0.00000000000E+00 -0.00000000000E+00 -0.10585976192E+03  0.10585976192E+03  0.00000000000E+00 0. -1.
          6    2    1    2  501    0 -0.10823378478E+03  0.43338839891E+02  0.68362347572E+02  0.21822349691E+03  0.17133381693E+03 0.  0.
         24    2    3    3    0    0 -0.78530541978E+01  0.12316183069E+02  0.79750094967E+02  0.11243849277E+03  0.77903646793E+02 0.  0.
         -6    2    1    2    0  502  0.10823378478E+03 -0.43338839891E+02  0.31543497667E+03  0.37729335117E+03  0.17105040521E+03 0.  0.
        -24    2    5    5    0    0  0.64164000372E+02  0.31038049930E+02  0.10173190875E+03  0.14671763936E+03  0.78078838078E+02 0.  0.
          5    1    3    3  501    0 -0.10038073058E+03  0.31022656822E+02 -0.11387747395E+02  0.10578500413E+03  0.47000000000E+01 0. -1.
        -11    1    4    4    0    0 -0.14117294517E+02 -0.30968410192E+02  0.24313880181E+02  0.41827086962E+02  0.00000000000E+00 0.  1.
         12    1    4    4    0    0  0.62642403188E+01  0.43284593260E+02  0.55436214785E+02  0.70611405808E+02  0.00000000000E+00 0. -1.
         -5    1    5    5    0  502  0.44069784411E+02 -0.74376889821E+02  0.21370306792E+03  0.23057571181E+03  0.47000000000E+01 0.  1.
         11    1    6    6    0    0 -0.63294957370E+01  0.33475511207E+02  0.43481982968E+02  0.55239073215E+02  0.00000000000E+00 0. -1.
        -12    1    6    6    0    0  0.70493496109E+02 -0.24374612764E+01  0.58249925779E+02  0.91478566147E+02  0.00000000000E+00 0.  1.
</event>
<event>
12    1  0.8133495E-002  0.1997518E+03  0.7818608E-02  0.1150121E+00
         21   -1    0    0  501  502  0.00000000000E+00  0.00000000000E+00  0.45862388324E+02  0.45862388324E+02  0.00000000000E+00 0.  1.
         21   -1    0    0  502  503 -0.00000000000E+00 -0.00000000000E+00 -0.16277583039E+04  0.16277583039E+04  0.00000000000E+00 0. -1.
         -6    2    1    2    0  503  0.34048758790E+02  0.93505868882E+02 -0.13640829366E+04  0.13786308571E+04  0.17319964423E+03 0.  0.
        -24    2    3    3    0    0  0.53597805667E+02  0.12234352159E+03 -0.12406346391E+04  0.12502745266E+04  0.78558397847E+02 0.  0.
          6    2    1    2  501    0 -0.34048758790E+02 -0.93505868882E+02 -0.21781297901E+03  0.29498983514E+03  0.17226097505E+03 0.  0.
         24    2    5    5    0    0 -0.41380415570E+02 -0.11308086352E+03 -0.10188508887E+03  0.17709878664E+03  0.80521974679E+02 0.  0.
          5    1    5    5  501    0  0.73316567800E+01  0.19574994643E+02 -0.11592789014E+03  0.11789104851E+03  0.47000000000E+01 0. -1.
        -13    1    6    6    0    0  0.22890015116E+02 -0.42749836642E+02 -0.24351995244E+02  0.54263440707E+02  0.00000000000E+00 0.  1.
         14    1    6    6    0    0 -0.64270430685E+02 -0.70331026882E+02 -0.77533093626E+02  0.12283534593E+03  0.00000000000E+00 0. -1.
         -5    1    3    3    0  503 -0.19549046877E+02 -0.28837652710E+02 -0.12344829746E+03  0.12835633055E+03  0.47000000000E+01 0.  1.
         13    1    4    4    0    0  0.15373131052E+02  0.10230137737E+03 -0.10351296078E+04  0.10402861193E+04  0.00000000000E+00 0. -1.
        -14    1    4    4    0    0  0.38224674615E+02  0.20042144224E+02 -0.20550503130E+03  0.20998840726E+03  0.00000000000E+00 0.  1.
</event>
<event>
12    1  0.8133495E-002  0.1926885E+03  0.7818608E-02  0.1158033E+00
         21   -1    0    0  501  502  0.00000000000E+00  0.00000000000E+00  0.78674110828E+02  0.78674110828E+02  0.00000000000E+00 0.  1.
         21   -1    0    0  502  503 -0.00000000000E+00 -0.00000000000E+00 -0.45161945179E+03  0.45161945179E+03  0.00000000000E+00 0. -1.
         -6    2    1    2    0  503  0.32192200722E+02 -0.54397521571E+02 -0.19302080623E+03  0.26666182611E+03  0.17278909031E+03 0.  0.
        -24    2    3    3    0    0  0.43006785395E+02  0.33400604430E+02 -0.87714285754E+02  0.12904998278E+03  0.77426856866E+02 0.  0.
          6    2    1    2  501    0 -0.32192200722E+02  0.54397521571E+02 -0.17992453473E+03  0.26363173650E+03  0.18202589418E+03 0.  0.
         24    2    5    5    0    0 -0.18532565906E+02  0.10772648391E+03 -0.10764751816E+03  0.17265580027E+03  0.79205971158E+02 0.  0.
          5    1    5    5  501    0 -0.13659634816E+02 -0.53328962343E+02 -0.72277016578E+02  0.90975936232E+02  0.47000000000E+01 0. -1.
        -11    1    6    6    0    0 -0.91989987766E+01  0.87169094317E+01  0.11739399414E+02  0.17274825242E+02  0.00000000000E+00 0.  1.
         12    1    6    6    0    0 -0.93335671292E+01  0.99009574482E+02 -0.11938691757E+03  0.15538097503E+03  0.00000000000E+00 0. -1.
         -5    1    3    3    0  503 -0.10814584672E+02 -0.87798126001E+02 -0.10530652047E+03  0.13761184333E+03  0.47000000000E+01 0.  1.
         11    1    4    4    0    0  0.15840859663E+02 -0.10101105311E+02 -0.73451875693E+02  0.75816510116E+02  0.00000000000E+00 0. -1.
        -12    1    4    4    0    0  0.27165925731E+02  0.43501709740E+02 -0.14262410061E+02  0.53233472664E+02  0.00000000000E+00 0.  1.
</event>
<event>
12    1  0.8133495E-002  0.2541522E+03  0.7818608E-02  0.1111030E+00
         21   -1    0    0  503  502  0.00000000000E+00  0.00000000000E+00  0.92604606223E+02  0.92604606223E+02  0.00000000000E+00 0.  1.
         21   -1    0    0  501  503 -0.00000000000E+00 -0.00000000000E+00 -0.84293665701E+03  0.84293665701E+03  0.00000000000E+00 0.  1.
          6    2    1    2  501    0 -0.18639882142E+03  0.15308388906E+02 -0.57194559897E+03  0.62503351327E+03  0.16901555291E+03 0.  0.
         24    2    3    3    0    0 -0.78036706909E+02  0.40687155257E+02 -0.42192996990E+03  0.43818274766E+03  0.78955991655E+02 0.  0.
         -6    2    1    2    0  502  0.18639882142E+03 -0.15308388906E+02 -0.17838645181E+03  0.31050774996E+03  0.17208855046E+03 0.  0.
        -24    2    5    5    0    0  0.99690459638E+02  0.26525889881E+02 -0.16904672735E+03  0.21366887689E+03  0.80223327962E+02 0.  0.
          5    1    3    3  501    0 -0.10836211451E+03 -0.25378766351E+02 -0.15001562907E+03  0.18685076561E+03  0.47000000000E+01 0. -1.
        -11    1    4    4    0    0 -0.59448180734E+02  0.11198917051E+02 -0.37431604250E+03  0.37917278596E+03  0.00000000000E+00 0.  1.
         12    1    4    4    0    0 -0.18588526175E+02  0.29488238206E+02 -0.47613927396E+02  0.59009961701E+02  0.00000000000E+00 0. -1.
         -5    1    5    5    0  502  0.86708361781E+02 -0.41834278787E+02 -0.93397244674E+01  0.96838873070E+02  0.47000000000E+01 0.  1.
         11    1    6    6    0    0  0.20064604366E+02  0.15014768453E+02  0.14923314873E+01  0.25104953164E+02  0.00000000000E+00 0. -1.
        -12    1    6    6    0    0  0.79625855272E+02  0.11511121428E+02 -0.17053905883E+03  0.18856392373E+03  0.00000000000E+00 0.  1.
</event>
<event>
12    1  0.8133495E-002  0.2135937E+03  0.7818608E-02  0.1139515E+00
         21   -1    0    0  503  502  0.00000000000E+00  0.00000000000E+00  0.51457823891E+03  0.51457823891E+03  0.00000000000E+00 0. -1.
         21   -1    0    0  501  503 -0.00000000000E+00 -0.00000000000E+00 -0.22437770481E+03  0.22437770481E+03  0.00000000000E+00 0. -1.
          6    2    1    2  501    0 -0.95956107513E+02 -0.83095845714E+02  0.43467089983E+03  0.48431502093E+03  0.17178403358E+03 0.  0.
         24    2    3    3    0    0 -0.69413407593E+02 -0.93942862275E+02  0.17765713006E+03  0.22566401950E+03  0.75622161499E+02 0.  0.
         -6    2    1    2    0  502  0.95956107513E+02  0.83095845714E+02 -0.14447036574E+03  0.25464092279E+03  0.16690661712E+03 0.  0.
        -24    2    5    5    0    0  0.36111059971E+02  0.14600912285E+02 -0.76784771271E+01  0.90302563267E+02  0.81107327843E+02 0.  0.
          5    1    3    3  501    0 -0.26542699921E+02  0.10847016561E+02  0.25701376977E+03  0.25865100143E+03  0.47000000000E+01 0. -1.
        -13    1    4    4    0    0 -0.31709266990E+02  0.49889726168E+01  0.29721265641E+02  0.43746098021E+02  0.00000000000E+00 0.  1.
         14    1    4    4    0    0 -0.37704140603E+02 -0.98931834892E+02  0.14793586442E+03  0.18191792148E+03  0.00000000000E+00 0. -1.
         -5    1    5    5    0  502  0.59845047543E+02  0.68494933429E+02 -0.13679188861E+03  0.16433835952E+03  0.47000000000E+01 0.  1.
         13    1    6    6    0    0  0.86421034618E+01 -0.31994850128E+01 -0.41927057068E+02  0.42927855420E+02  0.00000000000E+00 0. -1.
        -14    1    6    6    0    0  0.27468956509E+02  0.17800397298E+02  0.34248579940E+02  0.47374707847E+02  0.00000000000E+00 0.  1.
</event>
<event>
12    1  0.8133495E-002  0.1859569E+03  0.7818608E-02  0.1163994E+00
         21   -1    0    0  501  502  0.00000000000E+00  0.00000000000E+00  0.86217400665E+02  0.86217400665E+02  0.00000000000E+00 0. -1.
         21   -1    0    0  502  503 -0.00000000000E+00 -0.00000000000E+00 -0.42766989291E+03  0.42766989291E+03  0.00000000000E+00 0. -1.
         -6    2    1    2    0  503  0.39365704205E+02  0.61990845573E+02 -0.25553209332E+03  0.31603261771E+03  0.17084332336E+03 0.  0.
        -24    2    3    3    0    0 -0.44003670814E+02  0.21827356565E+02 -0.13717472329E+03  0.16571922649E+03  0.78950622401E+02 0.  0.
          6    2    1    2  501    0 -0.39365704205E+02 -0.61990845573E+02 -0.85920398924E+02  0.19785467586E+03  0.16239345494E+03 0.  0.
         24    2    5    5    0    0 -0.58538005347E+02 -0.73614333527E+02 -0.10932012625E+03  0.16510838078E+03  0.80399746453E+02 0.  0.
          5    1    5    5  501    0  0.19172301142E+02  0.11623487954E+02  0.23399727322E+02  0.32746295088E+02  0.47000000000E+01 0. -1.
        -11    1    6    6    0    0 -0.49852593772E+02 -0.69907895071E+02 -0.39256366918E+02  0.94411107623E+02  0.00000000000E+00 0.  1.
         12    1    6    6    0    0 -0.86854115756E+01 -0.37064384560E+01 -0.70063759327E+02  0.70697273154E+02  0.00000000000E+00 0. -1.
         -5    1    3    3    0  503  0.83369375020E+02  0.40163489008E+02 -0.11835737003E+03  0.15031339122E+03  0.47000000000E+01 0.  1.
         11    1    4    4    0    0 -0.20250075944E+02  0.51237219572E+02 -0.84819483881E+02  0.10114179695E+03  0.00000000000E+00 0. -1.
        -12    1    4    4    0    0 -0.23753594870E+02 -0.29409863007E+02 -0.52355239411E+02  0.64577429533E+02  0.00000000000E+00 0.  1.
</event>
<event>
12    1  0.8133495E-002  0.2073966E+03  0.7818608E-02  0.1143763E+00
         21   -1    0    0  501  502  0.00000000000E+00  0.00000000000E+00  0.17398282312E+03  0.17398282312E+03  0.00000000000E+00 0.  1.
         21   -1    0    0  502  503 -0.00000000000E+00 -0.00000000000E+00 -0.29134082187E+03  0.29134082187E+03  0.00000000000E+00 0.  1.
         -6    2    1    2    0  503 -0.61723641286E+02  0.97613532536E+02 -0.15000158685E+03  0.25595670105E+03  0.17226475880E+03 0.  0.
        -24    2    3    3    0    0 -0.77980626795E+02  0.82345668593E+02 -0.45652693669E+02  0.14914762486E+03  0.85434526219E+02 0.  0.
          6    2    1    2  501    0  0.61723641286E+02 -0.97613532536E+02  0.32643588108E+02  0.20936694395E+03  0.17155379257E+03 0.  0.
         24    2    5    5    0    0  0.89097873536E+02 -0.20059520329E+02  0.23349870089E+01  0.12159066753E+03  0.80237290847E+02 0.  0.
          5    1    5    5  501    0 -0.27374232250E+02 -0.77554012208E+02  0.30308601099E+02  0.87776276415E+02  0.47000000000E+01 0. -1.
        -13    1    6    6    0    0  0.10063666650E+02 -0.37953910722E+02  0.89956699562E+01  0.40282735800E+02  0.00000000000E+00 0.  1.
         14    1    6    6    0    0  0.79034206885E+02  0.17894390393E+02 -0.66606829473E+01  0.81307931734E+02  0.00000000000E+00 0. -1.
         -5    1    3    3    0  503  0.16256985509E+02  0.15267863943E+02 -0.10434889318E+03  0.10680907619E+03  0.47000000000E+01 0.  1.
         13    1    4    4    0    0  0.18787393855E+01  0.25680538312E+02  0.18832285089E+02  0.31901013641E+02  0.00000000000E+00 0. -1.
        -14    1    4    4    0    0 -0.79859366180E+02  0.56665130281E+02 -0.64484978758E+02  0.11724661122E+03  0.00000000000E+00 0.  1.
</event>
<event>
12    1  0.8133495E-002  0.2161194E+03  0.7818608E-02  0.1136841E+00
         21   -1    0    0  503  502  0.00000000000E+00  0.00000000000E+00  0.98885462806E+03  0.98885462806E+03  0.00000000000E+00 0. -1.
         21   -1    0    0  501  503 -0.00000000000E+00 -0.00000000000E+00 -0.95246004426E+02  0.95246004426E+02  0.00000000000E+00 0. -1.
          6    2    1    2  501    0  0.83932275332E+02 -0.10022520175E+03  0.61895705297E+02  0.22480806071E+03  0.17209842509E+03 0.  0.
         24    2    3    3    0    0  0.22563959196E+02 -0.65688093517E+02  0.98749921037E+02  0.14518893432E+03  0.80648756087E+02 0.  0.
         -6    2    1    2    0  502 -0.83932275332E+02  0.10022520175E+03  0.83171291834E+03  0.85929257177E+03  0.17189423338E+03 0.  0.
        -24    2    5    5    0    0  0.18139301318E+02  0.74196838072E+02  0.41270643961E+03  0.42722243663E+03  0.79738322185E+02 0.  0.
          5    1    3    3  501    0  0.61368316137E+02 -0.34537108232E+02 -0.36854215740E+02  0.79619126397E+02  0.47000000000E+01 0. -1.
        -11    1    4    4    0    0  0.42673988997E+02 -0.72172922887E+01  0.29643935578E+02  0.52458760579E+02  0.00000000000E+00 0.  1.
         12    1    4    4    0    0 -0.20110029802E+02 -0.58470801229E+02  0.69105985459E+02  0.92730173736E+02  0.00000000000E+00 0. -1.
         -5    1    5    5    0  502 -0.10207157665E+03  0.26028363677E+02  0.41900647872E+03  0.43207013515E+03  0.47000000000E+01 0.  1.
         13    1    6    6    0    0 -0.19393965433E+02  0.62566974780E+02  0.18747475518E+03  0.19858886187E+03  0.00000000000E+00 0. -1.
        -14    1    6    6    0    0  0.37533266751E+02  0.11629863292E+02  0.22523168443E+03  0.22863357475E+03  0.00000000000E+00 0.  1.
</event>
<event>
12    1  0.8133495E-002  0.1748072E+03  0.7818608E-02  0.1173318E+00
         21   -1    0    0  503  502  0.00000000000E+00  0.00000000000E+00  0.35340538745E+03  0.35340538745E+03  0.00000000000E+00 0. -1.
         21   -1    0    0  501  503 -0.00000000000E+00 -0.00000000000E+00 -0.95893118165E+02  0.95893118165E+02  0.00000000000E+00 0. -1.
          6    2    1    2  501    0 -0.58990685609E-01 -0.24388108395E+02  0.54999440469E+02  0.18177469741E+03  0.17152935276E+03 0.  0.
         24    2    3    3    0    0 -0.25240938188E+01 -0.44618869996E+02 -0.26318862760E+02  0.97809723239E+02  0.82926743658E+02 0.  0.
         -6    2    1    2    0  502  0.58990685609E-01  0.24388108395E+02  0.20251282882E+03  0.26752380821E+03  0.17309754131E+03 0.  0.
        -24    2    5    5    0    0 -0.69059854973E+02  0.24060186718E+02  0.13240092175E+03  0.16895762805E+03  0.75289573258E+02 0.  0.
          5    1    3    3  501    0  0.24651031332E+01  0.20230761601E+02  0.81318303229E+02  0.83964974176E+02  0.47000000000E+01 0. -1.
        -11    1    4    4    0    0  0.11963977453E+02 -0.43950240795E+02  0.19649901961E+02  0.49607248155E+02  0.00000000000E+00 0.  1.
         12    1    4    4    0    0 -0.14488071272E+02 -0.66862920045E+00 -0.45968764721E+02  0.48202475083E+02  0.00000000000E+00 0. -1.
         -5    1    5    5    0  502  0.69118845659E+02  0.32792167707E+00  0.70111907073E+02  0.98566180159E+02  0.47000000000E+01 0.  1.
         11    1    6    6    0    0 -0.35561326180E+01 -0.22134600078E+02  0.15651326139E+02  0.27341371760E+02  0.00000000000E+00 0. -1.
        -12    1    6    6    0    0 -0.65503722355E+02  0.46194786796E+02  0.11674959561E+03  0.14161625629E+03  0.00000000000E+00 0.  1.
</event>
<event>
12    1  0.8133495E-002  0.2081155E+03  0.7818608E-02  0.1143157E+00
         21   -1    0    0  501  502  0.00000000000E+00  0.00000000000E+00  0.56631775530E+03  0.56631775530E+03  0.00000000000E+00 0. -1.
         21   -1    0    0  502  503 -0.00000000000E+00 -0.00000000000E+00 -0.14511700167E+03  0.14511700167E+03  0.00000000000E+00 0. -1.
         -6    2    1    2    0  503 -0.11070408487E+03  0.35930514444E+02 -0.34451622915E+02  0.21050446722E+03  0.17198494156E+03 0.  0.
        -24    2    3    3    0    0 -0.19093702381E+01  0.26705558019E+02 -0.52594985058E+02  0.99722422906E+02  0.80383435191E+02 0.  0.
          6    2    1    2  501    0  0.11070408487E+03 -0.35930514444E+02  0.45565237655E+03  0.50093028974E+03  0.17252730408E+03 0.  0.
         24    2    5    5    0    0  0.34530572283E+02 -0.45595213752E+02  0.11473393078E+03  0.15144025112E+03  0.80616318741E+02 0.  0.
          5    1    5    5  501    0  0.76173512587E+02  0.96646993085E+01  0.34091844576E+03  0.34949003862E+03  0.47000000000E+01 0. -1.
        -13    1    6    6    0    0  0.11154222714E+02 -0.66493146428E+02  0.80876866733E+02  0.10529398263E+03  0.00000000000E+00 0.  1.
         14    1    6    6    0    0  0.23376349569E+02  0.20897932675E+02  0.33857064052E+02  0.46146268489E+02  0.00000000000E+00 0. -1.
         -5    1    3    3    0  503 -0.10879471463E+03  0.92249564247E+01  0.18143362142E+02  0.11078204432E+03  0.47000000000E+01 0.  1.
         11    1    4    4    0    0 -0.21123943051E+02 -0.15894379390E+02 -0.45263683867E+02  0.52418063141E+02  0.00000000000E+00 0. -1.
        -12    1    4    4    0    0  0.19214572813E+02  0.42599937409E+02 -0.73313011910E+01  0.47304359765E+02  0.00000000000E+00 0.  1.
</event>
<event>
12    1  0.8133495E-002  0.1806000E+03  0.7818608E-02  0.1168084E+00
         21   -1    0    0  501  502  0.00000000000E+00  0.00000000000E+00  0.15475755151E+03  0.15475755151E+03  0.00000000000E+00 0.  1.
         21   -1    0    0  502  503 -0.00000000000E+00 -0.00000000000E+00 -0.47644667214E+03  0.47644667214E+03  0.00000000000E+00 0.  1.
         -6    2    1    2    0  503 -0.68968172238E+01  0.41563917506E+02 -0.39764106599E+03  0.43528315695E+03  0.17198222013E+03 0.  0.
        -24    2    3    3    0    0 -0.57679293864E+02  0.21621099133E+02 -0.34671432291E+03  0.36050214934E+03  0.77179045755E+02 0.  0.
          6    2    1    2  501    0  0.68968172238E+01 -0.41563917506E+02  0.75951945356E+02  0.19592106669E+03  0.17561674477E+03 0.  0.
         24    2    5    5    0    0 -0.47364225381E+02 -0.67063056540E+02  0.23751787017E+02  0.11628807499E+03  0.78853951078E+02 0.  0.
          5    1    5    5  501    0  0.54261042605E+02  0.25499139034E+02  0.52200158339E+02  0.79632991697E+02  0.47000000000E+01 0. -1.
        -13    1    6    6    0    0  0.36936126785E+01 -0.48898549841E+02 -0.13093987960E+02  0.50755920560E+02  0.00000000000E+00 0.  1.
         14    1    6    6    0    0 -0.51057838060E+02 -0.18164506699E+02  0.36845774977E+02  0.65532154433E+02  0.00000000000E+00 0. -1.
         -5    1    3    3    0  503  0.50782476640E+02  0.19942818372E+02 -0.50926743079E+02  0.74781007609E+02  0.47000000000E+01 0.  1.
         13    1    4    4    0    0 -0.38034282715E+02 -0.17352835866E+02 -0.26088284401E+03  0.26421125236E+03  0.00000000000E+00 0. -1.
        -14    1    4    4    0    0 -0.19645011149E+02  0.38973934999E+02 -0.85831478897E+02  0.96290896984E+02  0.00000000000E+00 0.  1.
</event>
<event>
12    1  0.8133495E-002  0.1994961E+03  0.7818608E-02  0.1151671E+00
         21   -1    0    0  501  502  0.00000000000E+00  0.00000000000E+00  0.31283581581E+03  0.31283581581E+03  0.00000000000E+00 0.  1.
         21   -1    0    0  502  503 -0.00000000000E+00 -0.00000000000E+00 -0.12443883638E+03  0.12443883638E+03  0.00000000000E+00 0.  1.
         -6    2    1    2    0  503 -0.15114559138E+02  0.10490968603E+03  0.12089793302E+03  0.23327019857E+03  0.16900941752E+03 0.  0.
        -24    2    3    3    0    0  0.40571653863E+02  0.12842724568E+02  0.54781720749E+02  0.10689487172E+03  0.81329465754E+02 0.  0.
          6    2    1    2  501    0  0.15114559138E+02 -0.10490968603E+03  0.67499046406E+02  0.20400445363E+03  0.16070844319E+03 0.  0.
         24    2    5    5    0    0  0.46439554541E+01 -0.10994932716E+03  0.10018478334E+03  0.16899761254E+03  0.80079843685E+02 0.  0.
          5    1    5    5  501    0  0.10470603684E+02  0.50396411310E+01 -0.32685736936E+02  0.35006841092E+02  0.47000000000E+01 0. -1.
        -13    1    6    6    0    0 -0.19476703016E+02 -0.33409073596E+02 -0.24071187012E+01  0.38746643460E+02  0.00000000000E+00 0.  1.
         14    1    6    6    0    0  0.24120658470E+02 -0.76540253563E+02  0.10259190204E+03  0.13025096908E+03  0.00000000000E+00 0. -1.
         -5    1    3    3    0  503 -0.55686213001E+02  0.92066961460E+02  0.66116212273E+02  0.12637532685E+03  0.47000000000E+01 0.  1.
         11    1    4    4    0    0  0.41936686955E+02  0.42387737189E+02  0.24200968859E+02  0.64351323767E+02  0.00000000000E+00 0. -1.
        -12    1    4    4    0    0 -0.13650330917E+01 -0.29545012621E+02  0.30580751889E+02  0.42543547951E+02  0.00000000000E+00 0.  1.
</event>
<event>
12    1  0.8133495E-002  0.1949144E+03  0.7818608E-02  0.1154494E+00
         21   -1    0    0  503  502  0.00000000000E+00  0.00000000000E+00  0.16138536634E+03  0.16138536634E+03  0.00000000000E+00 0.  1.
         21   -1    0    0  501  503 -0.00000000000E+00 -0.00000000000E+00 -0.23340086725E+03  0.23340086725E+03  0.00000000000E+00 0. -1.
          6    2    1    2  501    0  0.82154798009E+02  0.36676521410E+02 -0.41066012163E+02  0.19919347333E+03  0.17290761812E+03 0.  0.
         24    2    3    3    0    0  0.94630654772E+02  0.26891231547E+02  0.25123105043E+02  0.13096966417E+03  0.82727162222E+02 0.  0.
         -6    2    1    2    0  502 -0.82154798009E+02 -0.36676521410E+02 -0.30949488755E+02  0.19559276026E+03  0.17089200963E+03 0.  0.
        -24    2    5    5    0    0 -0.73750513839E+02 -0.58950782727E+02  0.33875735107E+02  0.12637445085E+03  0.76867439932E+02 0.  0.
          5    1    3    3  501    0 -0.12475856763E+02  0.97852898636E+01 -0.66189117206E+02  0.68223809159E+02  0.47000000000E+01 0. -1.
        -11    1    4    4    0    0  0.15627146984E+02 -0.76041856095E+01  0.39886817424E+02  0.43508499927E+02  0.00000000000E+00 0.  1.
         12    1    4    4    0    0  0.79003507788E+02  0.34495417156E+02 -0.14763712382E+02  0.87461164244E+02  0.00000000000E+00 0. -1.
         -5    1    5    5    0  502 -0.84042841695E+01  0.22274261317E+02 -0.64825223862E+02  0.69218309416E+02  0.47000000000E+01 0.  1.
         13    1    6    6    0    0 -0.12932468190E+02 -0.59023942336E+02  0.11121257650E+02  0.61439050075E+02  0.00000000000E+00 0. -1.
        -14    1    6    6    0    0 -0.60818045649E+02  0.73159608910E-01  0.22754477458E+02  0.64935400771E+02  0.00000000000E+00 0.  1.
</event>
<event>
12    1  0.8133495E-002  0.2036358E+03  0.7818608E-02  0.1147022E+00
         21   -1    0    0  501  502  0.00000000000E+00  0.00000000000E+00  0.54238909974E+03  0.54238909974E+03  0.00000000000E+00 0.  1.
         21   -1    0    0  502  503 -0.00000000000E+00 -0.00000000000E+00 -0.90892115835E+02  0.90892115835E+02  0.00000000000E+00 0.  1.
         -6    2    1    2    0  503  0.10696391357E+03 -0.78623367439E+01  0.96372354344E+02  0.22391456650E+03  0.17130968235E+03 0.  0.
        -24    2    3    3    0    0  0.30366506188E+02  0.25928444364E+02 -0.11879879809E+02  0.86985329653E+02  0.76360376540E+02 0.  0.
          6    2    1    2  501    0 -0.10696391357E+03  0.78623367439E+01  0.35512462956E+03  0.40936664907E+03  0.17310244281E+03 0.  0.
         24    2    5    5    0    0 -0.12216962407E+03  0.39095257627E+02  0.33825515755E+03  0.37046448892E+03  0.79834389380E+02 0.  0.
          5    1    5    5  501    0  0.15205710498E+02 -0.31232920884E+02  0.16869472011E+02  0.38902160153E+02  0.47000000000E+01 0. -1.
        -11    1    6    6    0    0 -0.10974283620E+03 -0.33685819413E+00  0.24549718552E+03  0.26890978351E+03  0.00000000000E+00 0.  1.
         12    1    6    6    0    0 -0.12426787862E+02  0.39432115822E+02  0.92757972031E+02  0.10155470541E+03  0.00000000000E+00 0. -1.
         -5    1    3    3    0  503  0.76597407379E+02 -0.33790781108E+02  0.10825223415E+03  0.13692923685E+03  0.47000000000E+01 0.  1.
         11    1    4    4    0    0  0.22884366742E+02 -0.15903712629E+02  0.19625107682E+02  0.34084705780E+02  0.00000000000E+00 0. -1.
        -12    1    4    4    0    0  0.74821394460E+01  0.41832156993E+02 -0.31504987491E+02  0.52900623873E+02  0.00000000000E+00 0.  1.
</event>
<event>
12    1  0.8133495E-002  0.1846482E+03  0.7818608E-02  0.1163862E+00
         21   -1    0    0  503  502  0.00000000000E+00  0.00000000000E+00  0.45510102786E+03  0.45510102786E+03  0.00000000000E+00 0.  1.
         21   -1    0    0  501  503 -0.00000000000E+00 -0.00000000000E+00 -0.24564906452E+03  0.24564906452E+03  0.00000000000E+00 0.  1.
          6    2    1    2  501    0 -0.34638018904E+02  0.54168516232E+02 -0.18790690978E+03  0.26344635528E+03  0.17309233045E+03 0.  0.
         24    2    3    3    0    0  0.42892477205E+02  0.33841020418E+02 -0.13907783256E+03  0.16947532945E+03  0.79964145209E+02 0.  0.
         -6    2    1    2    0  502  0.34638018904E+02 -0.54168516232E+02  0.39735887312E+03  0.43730373710E+03  0.17089898750E+03 0.  0.
        -24    2    5    5    0    0  0.84608179731E+02 -0.27618321654E+02  0.21212437007E+03  0.24356205102E+03  0.80027548696E+02 0.  0.
          5    1    3    3  501    0 -0.77530496110E+02  0.20327495814E+02 -0.48829077221E+02  0.93971025829E+02  0.47000000000E+01 0. -1.
        -13    1    4    4    0    0  0.81532219375E+01  0.37901433844E+02 -0.16726216709E+02  0.42222743170E+02  0.00000000000E+00 0.  1.
         14    1    4    4    0    0  0.34739255268E+02 -0.40604134265E+01 -0.12235161585E+03  0.12725258628E+03  0.00000000000E+00 0. -1.
         -5    1    5    5    0  502 -0.49970160827E+02 -0.26550194577E+02  0.18523450305E+03  0.19374168608E+03  0.47000000000E+01 0.  1.
         11    1    6    6    0    0  0.37300446876E+02  0.15827233494E+02  0.14542451018E+03  0.15096394543E+03  0.00000000000E+00 0. -1.
        -12    1    6    6    0    0  0.47307732856E+02 -0.43445555148E+02  0.66699859888E+02  0.92598105592E+02  0.00000000000E+00 0.  1.
</event>
<event>
12    1  0.8133495E-002  0.1791778E+03  0.7818608E-02  0.1168929E+00
         21   -1    0    0  501  502  0.00000000000E+00  0.00000000000E+00  0.13462417496E+03  0.13462417496E+03  0.00000000000E+00 0.  1.
         21   -1    0    0  502  503 -0.00000000000E+00 -0.00000000000E+00 -0.54428848117E+03  0.54428848117E+03  0.00000000000E+00 0.  1.
         -6    2    1    2    0  503  0.12210961432E+02  0.46896410248E+02 -0.45968340369E+03  0.49288422406E+03  0.17110711798E+03 0.  0.
        -24    2    3    3    0    0  0.67051297441E+02 -0.14979625984E+01 -0.24609248930E+03  0.26706870978E+03  0.79158461804E+02 0.  0.
          6    2    1    2  501    0 -0.12210961432E+02 -0.46896410248E+02  0.50019097477E+02  0.18602843207E+03  0.17250010595E+03 0.  0.
         24    2    5    5    0    0 -0.32895273184E+02  0.35777587202E+02  0.31424915401E+02  0.98674758913E+02  0.79919008969E+02 0.  0.
          5    1    5    5  501    0  0.20684311752E+02 -0.82673997450E+02  0.18594182075E+02  0.87353673158E+02  0.47000000000E+01 0. -1.
        -11    1    6    6    0    0  0.25422267923E+02  0.18448553588E+02  0.18583903803E+02  0.36496606916E+02  0.00000000000E+00 0.  1.
         12    1    6    6    0    0 -0.58317541107E+02  0.17329033614E+02  0.12841011598E+02  0.62178151996E+02  0.00000000000E+00 0. -1.
         -5    1    3    3    0  503 -0.54840336009E+02  0.48394372847E+02 -0.21359091439E+03  0.22581551427E+03  0.47000000000E+01 0.  1.
         13    1    4    4    0    0  0.52165211607E+02 -0.27150729155E+02 -0.85572674811E+02  0.10383185479E+03  0.00000000000E+00 0. -1.
        -14    1    4    4    0    0  0.14886085835E+02  0.25652766556E+02 -0.16051981449E+03  0.16323685499E+03  0.00000000000E+00 0.  1.
</event>
<event>
12    1  0.8133495E-002  0.1965938E+03  0.7818608E-02  0.1152937E+00
         21   -1    0    0  503  502  0.00000000000E+00  0.00000000000E+00  0.10244976155E+03  0.10244976155E+03  0.00000000000E+00 0. -1.
         21   -1    0    0  501  503 -0.00000000000E+00 -0.00000000000E+00 -0.38295704247E+03  0.38295704247E+03  0.00000000000E+00 0. -1.
          6    2    1    2  501    0 -0.86842380918E+02 -0.32906015559E+02 -0.10501307756E+03  0.22288310100E+03  0.17327644176E+03 0.  0.
         24    2    3    3    0    0 -0.79875577740E+02  0.36346628306E+02 -0.96602063829E+02  0.15261717625E+03  0.79112947379E+02 0.  0.
         -6    2    1    2    0  502  0.86842380918E+02  0.32906015559E+02 -0.17549420336E+03  0.26252370301E+03  0.17174421168E+03 0.  0.
        -24    2    5    5    0    0  0.58124195528E+02  0.85006712801E+02 -0.91059286818E+02  0.15912852925E+03  0.80159414792E+02 0.  0.
          5    1    3    3  501    0 -0.69668031773E+01 -0.69252643865E+02 -0.84110137288E+01  0.70265924749E+02  0.47000000000E+01 0. -1.
        -11    1    4    4    0    0 -0.20571986219E+01  0.28384451905E+02 -0.18614607060E+00  0.28459512057E+02  0.00000000000E+00 0.  1.
         12    1    4    4    0    0 -0.77818379118E+02  0.79621764004E+01 -0.96415917759E+02  0.12415766420E+03  0.00000000000E+00 0. -1.
         -5    1    5    5    0  502  0.28718185390E+02 -0.52100697241E+02 -0.84434916541E+02  0.10339517376E+03  0.47000000000E+01 0.  1.
         13    1    6    6    0    0  0.22315487543E+02  0.10554345780E+02 -0.69488287439E+02  0.73742777885E+02  0.00000000000E+00 0. -1.
        -14    1    6    6    0    0  0.35808707985E+02  0.74452367021E+02 -0.21570999380E+02  0.85385751369E+02  0.00000000000E+00 0.  1.
</event>
<event>
12    1  0.8133495E-002  0.1862068E+03  0.7818608E-02  0.1163720E+00
         21   -1    0    0  503  502  0.00000000000E+00  0.00000000000E+00  0.20042344110E+03  0.20042344110E+03  0.00000000000E+00 0.  1.
         21   -1    0    0  501  503 -0.00000000000E+00 -0.00000000000E+00 -0.28556690535E+03  0.28556690535E+03  0.00000000000E+00 0.  1.
          6    2    1    2  501    0 -0.15085702133E+02 -0.44551907950E+02 -0.19924944016E+03  0.26760272244E+03  0.17233231486E+03 0.  0.
         24    2    3    3    0    0 -0.22269382311E+02 -0.87511617241E+02 -0.18799078267E+03  0.22237010974E+03  0.77160370645E+02 0.  0.
         -6    2    1    2    0  502  0.15085702133E+02  0.44551907950E+02  0.11410597590E+03  0.21838762400E+03  0.18016805951E+03 0.  0.
        -24    2    5    5    0    0 -0.57579064615E+02  0.21932221005E+02  0.99250703952E+02  0.14070501546E+03  0.78427215567E+02 0.  0.
          5    1    3    3  501    0  0.71836801783E+01  0.42959709291E+02 -0.11258657486E+02  0.45232612700E+02  0.47000000000E+01 0. -1.
        -11    1    4    4    0    0  0.13768078198E+02  0.11155208048E+01 -0.65514331549E+02  0.66954701122E+02  0.00000000000E+00 0.  1.
         12    1    4    4    0    0 -0.36037460509E+02 -0.88627138046E+02 -0.12247645112E+03  0.15541540862E+03  0.00000000000E+00 0. -1.
         -5    1    5    5    0  502  0.72664766748E+02  0.22619686945E+02  0.14855271951E+02  0.77682608535E+02  0.47000000000E+01 0.  1.
         13    1    6    6    0    0 -0.32449846112E+02  0.78491375251E+01 -0.38952071958E+01  0.33612112574E+02  0.00000000000E+00 0. -1.
        -14    1    6    6    0    0 -0.25129218503E+02  0.14083083480E+02  0.10314591115E+03  0.10709290289E+03  0.00000000000E+00 0.  1.
</event>
<event>
12    1  0.8133495E-002  0.2017281E+03  0.7818608E-02  0.1150117E+00
         21   -1    0    0  501  502  0.00000000000E+00  0.00000000000E+00  0.92100527284E+03  0.92100527284E+03  0.00000000000E+00 0. -1.
         21   -1    0    0  502  503 -0.00000000000E+00 -0.00000000000E+00 -0.42512726583E+02  0.42512726583E+02  0.00000000000E+00 0. -1.
         -6    2    1    2    0  503  0.41201759119E+02 -0.80215382499E+02  0.39806997137E+03  0.44246131695E+03  0.17082219512E+03 0.  0.
        -24    2    3    3    0    0  0.27173029649E+02 -0.54535787479E+02  0.40032983748E+03  0.41273853367E+03  0.79853570618E+02 0.  0.
          6    2    1    2  501    0 -0.41201759119E+02  0.80215382499E+02  0.48042257489E+03  0.52105668248E+03  0.18044978067E+03 0.  0.
         24    2    5    5    0    0 -0.22841541383E+02  0.10017221839E+03  0.19657770326E+03  0.23588064203E+03  0.80253813091E+02 0.  0.
          5    1    5    5  501    0 -0.18360217737E+02 -0.19956835890E+02  0.28384487163E+03  0.28517604045E+03  0.47000000000E+01 0. -1.
        -11    1    6    6    0    0  0.12103855460E+02  0.87633161301E+02  0.16466094786E+03  0.18692057679E+03  0.00000000000E+00 0.  1.
         12    1    6    6    0    0 -0.34945396842E+02  0.12539057088E+02  0.31916755397E+02  0.48960065239E+02  0.00000000000E+00 0. -1.
         -5    1    3    3    0  503  0.14028729470E+02 -0.25679595021E+02 -0.22598661153E+01  0.29722783279E+02  0.47000000000E+01 0.  1.
         13    1    4    4    0    0  0.58912297723E+01 -0.30770972573E+02  0.39103654186E+02  0.50106437830E+02  0.00000000000E+00 0. -1.
        -14    1    4    4    0    0  0.21281799877E+02 -0.23764814905E+02  0.36122618330E+03  0.36263209584E+03  0.00000000000E+00 0.  1.
</event>
<event>
12    1  0.8133495E-002  0.2440289E+03  0.7818608E-02  0.1117984E+00
         21   -1    0    0  501  502  0.00000000000E+00  0.00000000000E+00  0.17560925277E+04  0.17560925277E+04  0.00000000000E+00 0.  1.
         21   -1    0    0  502  503 -0.00000000000E+00 -0.00000000000E+00 -0.35362938776E+02  0.35362938776E+02  0.00000000000E+00 0.  1.
         -6    2    1    2    0  503  0.10559668146E+03 -0.12707621127E+03  0.64748225027E+03  0.69194173857E+03  0.17958586401E+03 0.  0.
        -24    2    3    3    0    0  0.12986303479E+03 -0.14700966584E+03  0.58293879926E+03  0.62001020457E+03  0.78222505961E+02 0.  0.
          6    2    1    2  501    0 -0.10559668146E+03  0.12707621127E+03  0.10732473386E+04  0.10995137279E+04  0.17254438650E+03 0.  0.
         24    2    5    5    0    0 -0.99557509484E+02  0.83444614331E+02  0.10153575900E+04  0.10266199637E+04  0.78248406314E+02 0.  0.
          5    1    5    5  501    0 -0.60391719807E+01  0.43631596941E+02  0.57889748646E+02  0.72893764124E+02  0.47000000000E+01 0. -1.
        -13    1    6    6    0    0 -0.66217276107E+02  0.84480836424E+02  0.57026113835E+03  0.58027537023E+03  0.00000000000E+00 0.  1.
         14    1    6    6    0    0 -0.33340233377E+02 -0.10362220930E+01  0.44509645162E+03  0.44634459352E+03  0.00000000000E+00 0. -1.
         -5    1    3    3    0  503 -0.24266353326E+02  0.19933454566E+02  0.64543451008E+02  0.71931533994E+02  0.47000000000E+01 0.  1.
         13    1    4    4    0    0  0.11051937369E+02  0.33551919380E+01  0.96406701869E+02  0.97096111136E+02  0.00000000000E+00 0. -1.
        -14    1    4    4    0    0  0.11881109742E+03 -0.15036485778E+03  0.48653209739E+03  0.52291409344E+03  0.00000000000E+00 0.  1.
</event>
<event>
12    1  0.8133495E-002  0.1832880E+03  0.7818608E-02  0.1164992E+00
         21   -1    0    0  501  502  0.00000000000E+00  0.00000000000E+00  0.96472470022E+03  0.96472470022E+03  0.00000000000E+00 0. -1.
         21   -1    0    0  502  503 -0.00000000000E+00 -0.00000000000E+00 -0.34622380415E+02  0.34622380415E+02  0.00000000000E+00 0. -1.
         -6    2    1    2    0  503 -0.51091514164E+02  0.31998618757E+02  0.44140058179E+03  0.47740467155E+03  0.17159980301E+03 0.  0.
        -24    2    3    3    0    0 -0.32828867094E+02  0.84864856178E+02  0.23626692575E+03  0.26473057774E+03  0.77333306283E+02 0.  0.
          6    2    1    2  501    0  0.51091514164E+02 -0.31998618757E+02  0.48870173801E+03  0.52194240908E+03  0.17309025171E+03 0.  0.
         24    2    5    5    0    0  0.47759917238E+02  0.46060308208E+02  0.31416181802E+03  0.33065579353E+03  0.78949630823E+02 0.  0.
          5    1    5    5  501    0  0.33315969264E+01 -0.78058926965E+02  0.17453991999E+03  0.19128661555E+03  0.47000000000E+01 0. -1.
        -13    1    6    6    0    0  0.13398484313E+02  0.63131144235E+02  0.18632996554E+03  0.19719005251E+03  0.00000000000E+00 0.  1.
         14    1    6    6    0    0  0.34361432925E+02 -0.17070836027E+02  0.12783185249E+03  0.13346574102E+03  0.00000000000E+00 0. -1.
         -5    1    3    3    0  503 -0.18262647070E+02 -0.52866237422E+02  0.20513365604E+03  0.21267409381E+03  0.47000000000E+01 0.  1.
         11    1    4    4    0    0  0.70985772367E+01  0.38714750559E+02  0.17061736699E+03  0.17509856547E+03  0.00000000000E+00 0. -1.
        -12    1    4    4    0    0 -0.39927444331E+02  0.46150105620E+02  0.65649558753E+02  0.89632012272E+02  0.00000000000E+00 0.  1.
</event>
<event>
12    1  0.8133495E-002  0.2324271E+03  0.7818608E-02  0.1124989E+00
         21   -1    0    0  503  502  0.00000000000E+00  0.00000000000E+00  0.20088709250E+03  0.20088709250E+03  0.00000000000E+00 0.  1.
         21   -1    0    0  501  503 -0.00000000000E+00 -0.00000000000E+00 -0.27042784459E+03  0.27042784459E+03  0.00000000000E+00 0. -1.
          6    2    1    2  501    0 -0.11920995399E+03  0.10095647220E+03 -0.15472941168E+02  0.23294153231E+03  0.17210207191E+03 0.  0.
         24    2    3    3    0    0 -0.75237514013E+02  0.29951427619E+02 -0.68759913997E+02  0.13376046906E+03  0.81278322934E+02 0.  0.
         -6    2    1    2    0  502  0.11920995399E+03 -0.10095647220E+03 -0.54067810924E+02  0.23837340478E+03  0.17174204354E+03 0.  0.
        -24    2    5    5    0    0  0.11472016021E+03 -0.13647908400E+03 -0.52588001439E+02  0.20223071488E+03  0.79652423798E+02 0.  0.
          5    1    3    3  501    0 -0.43972439975E+02  0.71005044585E+02  0.53286972830E+02  0.99181063249E+02  0.47000000000E+01 0. -1.
        -13    1    4    4    0    0 -0.17343660104E+02  0.55931071453E+01  0.18682320820E+02  0.26098170522E+02  0.00000000000E+00 0.  1.
         14    1    4    4    0    0 -0.57893853908E+02  0.24358320474E+02 -0.87442234817E+02  0.10766229854E+03  0.00000000000E+00 0. -1.
         -5    1    5    5    0  502  0.44897937792E+01  0.35522611799E+02 -0.14798094843E+01  0.36142689901E+02  0.47000000000E+01 0.  1.
         11    1    6    6    0    0  0.10874615598E+03 -0.11493166853E+03 -0.15576855119E+02  0.15898947539E+03  0.00000000000E+00 0. -1.
        -12    1    6    6    0    0  0.59740042265E+01 -0.21547415477E+02 -0.37011146320E+02  0.43241239485E+02  0.00000000000E+00 0.  1.
</event>
<event>
12    1  0.8133495E-002  0.1868971E+03  0.7818608E-02  0.1161360E+00
         21   -1    0    0  503  502  0.00000000000E+00  0.00000000000E+00  0.12782180814E+03  0.12782180814E+03  0.00000000000E+00 0.  1.
         21   -1    0    0  501  503 -0.00000000000E+00 -0.00000000000E+00 -0.30357299361E+03  0.30357299361E+03  0.00000000000E+00 0.  1.
          6    2    1    2  501    0 -0.56618032387E+02 -0.37538073780E+02 -0.15657785859E+03  0.24381785859E+03  0.17411436986E+03 0.  0.
         24    2    3    3    0    0 -0.79789668531E+02 -0.39530944666E+02 -0.17436853246E+03  0.21416158889E+03  0.86785449542E+02 0.  0.
         -6    2    1    2    0  502  0.56618032387E+02  0.37538073780E+02 -0.19173326874E+02  0.18757694316E+03  0.17378948348E+03 0.  0.
        -24    2    5    5    0    0 -0.30933627369E+01 -0.27255664777E+02  0.22673677795E+02  0.89919679921E+02  0.82577315389E+02 0.  0.
          5    1    3    3  501    0  0.23171636144E+02  0.19928708858E+01  0.17790673870E+02  0.29656269703E+02  0.47000000000E+01 0. -1.
        -13    1    4    4    0    0  0.89862520159E+01 -0.32142585297E+02 -0.65315188921E+02  0.73348295268E+02  0.00000000000E+00 0.  1.
         14    1    4    4    0    0 -0.88775920547E+02 -0.73883593694E+01 -0.10905334354E+03  0.14081329362E+03  0.00000000000E+00 0. -1.
         -5    1    5    5    0  502  0.59711395124E+02  0.64793738558E+02 -0.41847004670E+02  0.97657263242E+02  0.47000000000E+01 0.  1.
         11    1    6    6    0    0 -0.18467463924E+02  0.11887716342E+02 -0.20217292248E+02  0.29851363946E+02  0.00000000000E+00 0. -1.
        -12    1    6    6    0    0  0.15374101187E+02 -0.39143381120E+02  0.42890970043E+02  0.60068315975E+02  0.00000000000E+00 0.  1.
</event>
<event>
12    1  0.8133495E-002  0.2219046E+03  0.7818608E-02  0.1132529E+00
         21   -1    0    0  503  502  0.00000000000E+00  0.00000000000E+00  0.65332245939E+03  0.65332245939E+03  0.00000000000E+00 0.  1.
         21   -1    0    0  501  503 -0.00000000000E+00 -0.00000000000E+00 -0.75749777949E+02  0.75749777949E+02  0.00000000000E+00 0.  1.
          6    2    1    2  501    0 -0.12536996983E+03 -0.62775451360E+02  0.25980509979E+03  0.34167288511E+03  0.17199791834E+03 0.  0.
         24    2    3    3    0    0 -0.42989135036E+02 -0.91979076511E+02  0.18877237044E+03  0.22894670225E+03  0.80457245675E+02 0.  0.
         -6    2    1    2    0  502  0.12536996983E+03  0.62775451360E+02  0.31776758165E+03  0.38739935223E+03  0.17159147860E+03 0.  0.
        -24    2    5    5    0    0  0.75893734536E+02 -0.18169457730E+02  0.10290271471E+03  0.15247600896E+03  0.81055391415E+02 0.  0.
          5    1    3    3  501    0 -0.82380834798E+02  0.29203625151E+02  0.71032729349E+02  0.11272618286E+03  0.47000000000E+01 0. -1.
        -13    1    4    4    0    0 -0.93547918234E+01 -0.85672578255E+02  0.90881159621E+02  0.12524650881E+03  0.00000000000E+00 0.  1.
         14    1    4    4    0    0 -0.33634343212E+02 -0.63064982562E+01  0.97891210818E+02  0.10370019344E+03  0.00000000000E+00 0. -1.
         -5    1    5    5    0  502  0.49476235298E+02  0.80944909089E+02  0.21486486695E+03  0.23492334327E+03  0.47000000000E+01 0.  1.
         13    1    6    6    0    0 -0.10106612637E+02 -0.16992749985E+02  0.43980710530E+02  0.48220328387E+02  0.00000000000E+00 0. -1.
        -14    1    6    6    0    0  0.86000347172E+02 -0.11767077450E+01  0.58922004176E+02  0.10425568057E+03  0.00000000000E+00 0.  1.
</event>
<event>
12    1  0.8133495E-002  0.1847011E+03  0.7818608E-02  0.1163798E+00
         21   -1    0    0  503  502  0.00000000000E+00  0.00000000000E+00  0.23954035995E+03  0.23954035995E+03  0.00000000000E+00 0.  1.
         21   -1    0    0  501  503 -0.00000000000E+00 -0.00000000000E+00 -0.15617218520E+03  0.15617218520E+03  0.00000000000E+00 0.  1.
          6    2    1    2  501    0 -0.26833655499E+02 -0.59198030546E+02 -0.20016570438E+02  0.18578258131E+03  0.17288739843E+03 0.  0.
         24    2    3    3    0    0  0.13668368872E+02  0.56646189557E+01 -0.59728433882E+02  0.99488320914E+02  0.78176262183E+02 0.  0.
         -6    2    1    2    0  502  0.26833655499E+02  0.59198030546E+02  0.10338474518E+03  0.20992996384E+03  0.17075635360E+03 0.  0.
        -24    2    5    5    0    0  0.68107726854E+02  0.54066297651E+02  0.20854337519E+02  0.11739217784E+03  0.76053882386E+02 0.  0.
          5    1    3    3  501    0 -0.40502024371E+02 -0.64862649502E+02  0.39711863444E+02  0.86294260393E+02  0.47000000000E+01 0. -1.
        -13    1    4    4    0    0  0.48447718405E+01 -0.12920700146E+02  0.15934021137E+02  0.21078646447E+02  0.00000000000E+00 0.  1.
         14    1    4    4    0    0  0.88235970314E+01  0.18585319102E+02 -0.75662455018E+02  0.78409674467E+02  0.00000000000E+00 0. -1.
         -5    1    5    5    0  502 -0.41274071355E+02  0.51317328947E+01  0.82530407664E+02  0.92537786001E+02  0.47000000000E+01 0.  1.
         11    1    6    6    0    0 -0.93475451231E+01  0.35805860318E+01  0.22816101513E+02  0.24915290174E+02  0.00000000000E+00 0. -1.
        -12    1    6    6    0    0  0.77455271977E+02  0.50485711619E+02 -0.19617639941E+01  0.92476887668E+02  0.00000000000E+00 0.  1.
</event>
<event>
12    1  0.8133495E-002  0.2248938E+03  0.7818608E-02  0.1130432E+00
         21   -1    0    0  503  502  0.00000000000E+00  0.00000000000E+00  0.32713226972E+02  0.32713226972E+02  0.00000000000E+00 0. -1.
         21   -1    0    0  501  503 -0.00000000000E+00 -0.00000000000E+00 -0.19133270902E+04  0.19133270902E+04  0.00000000000E+00 0. -1.
          6    2    1    2  501    0  0.13981839210E+03 -0.32799710206E+02 -0.13711510126E+04  0.13894719522E+04  0.17306704739E+03 0.  0.
         24    2    3    3    0    0  0.38948567719E+02  0.25356372544E+02 -0.86510773234E+03  0.87018518854E+03  0.81553278614E+02 0.  0.
         -6    2    1    2    0  502 -0.13981839210E+03  0.32799710206E+02 -0.50946285068E+03  0.55656836501E+03  0.17202018759E+03 0.  0.
        -24    2    5    5    0    0 -0.13832513564E+03  0.78530723334E+02 -0.39366231303E+03  0.43196736221E+03  0.79529036578E+02 0.  0.
          5    1    3    3  501    0  0.10086982438E+03 -0.58156082749E+02 -0.50604328023E+03  0.51928676364E+03  0.47000000000E+01 0. -1.
        -11    1    4    4    0    0  0.62824338445E+02  0.16047669800E+02 -0.71212873706E+03  0.71507465579E+03  0.00000000000E+00 0.  1.
         12    1    4    4    0    0 -0.23875770726E+02  0.93087027433E+01 -0.15297899528E+03  0.15511053275E+03  0.00000000000E+00 0. -1.
         -5    1    5    5    0  502 -0.14932564617E+01 -0.45731013128E+02 -0.11580053765E+03  0.12460100279E+03  0.47000000000E+01 0.  1.
         13    1    6    6    0    0 -0.12414976537E+03  0.55038572143E+02 -0.23898135052E+03  0.27487177840E+03  0.00000000000E+00 0. -1.
        -14    1    6    6    0    0 -0.14175370269E+02  0.23492151191E+02 -0.15468096251E+03  0.15709558381E+03  0.00000000000E+00 0.  1.
</event>
<event>
12    1  0.8133495E-002  0.2976905E+03  0.7818608E-02  0.1086440E+00
         21   -1    0    0  501  502  0.00000000000E+00  0.00000000000E+00  0.68217469848E+03  0.68217469848E+03  0.00000000000E+00 0. -1.
         21   -1    0    0  502  503 -0.00000000000E+00 -0.00000000000E+00 -0.14569415089E+03  0.14569415089E+03  0.00000000000E+00 0. -1.
         -6    2    1    2    0  503  0.21727275250E+03 -0.10742731717E+03  0.13152166064E+03  0.32544979628E+03  0.17283386598E+03 0.  0.
        -24    2    3    3    0    0  0.19624495177E+03 -0.54737325519E+02  0.15068022703E+03  0.26538696011E+03  0.78850820382E+02 0.  0.
          6    2    1    2  501    0 -0.21727275250E+03  0.10742731717E+03  0.40495888694E+03  0.50241905309E+03  0.17229372401E+03 0.  0.
         24    2    5    5    0    0 -0.12766693886E+03  0.80079828800E+02  0.14201978235E+03  0.22324858601E+03  0.83418740828E+02 0.  0.
          5    1    5    5  501    0 -0.89605813643E+02  0.27347488375E+02  0.26293910460E+03  0.27917046707E+03  0.47000000000E+01 0. -1.
        -11    1    6    6    0    0 -0.36329287403E+02 -0.14764557429E+02  0.21375591490E+02  0.44662346454E+02  0.00000000000E+00 0.  1.
         12    1    6    6    0    0 -0.91337651455E+02  0.94844386229E+02  0.12064419086E+03  0.17858623956E+03  0.00000000000E+00 0. -1.
         -5    1    3    3    0  503  0.21027800727E+02 -0.52689991655E+02 -0.19158566384E+02  0.60062836180E+02  0.47000000000E+01 0.  1.
         13    1    4    4    0    0  0.11180356083E+03 -0.53437834146E+02  0.49111293203E+02  0.13329500160E+03  0.00000000000E+00 0. -1.
        -14    1    4    4    0    0  0.84441390943E+02 -0.12994913732E+01  0.10156893383E+03  0.13209195850E+03  0.00000000000E+00 0.  1.
</event>
<event>
12    1  0.8133495E-002  0.2399193E+03  0.7818608E-02  0.1121460E+00
         21   -1    0    0  503  502  0.00000000000E+00  0.00000000000E+00  0.94536362871E+03  0.94536362871E+03  0.00000000000E+00 0. -1.
         21   -1    0    0  501  503 -0.00000000000E+00 -0.00000000000E+00 -0.60379097198E+02  0.60379097198E+02  0.00000000000E+00 0. -1.
          6    2    1    2  501    0 -0.14493066854E+03 -0.50382651072E+02  0.34532299035E+03  0.41515330130E+03  0.17193308498E+03 0.  0.
         24    2    3    3    0    0 -0.11094352484E+03  0.27813935480E+02  0.17060293107E+03  0.22068216926E+03  0.80704268965E+02 0.  0.
         -6    2    1    2    0  502  0.14493066854E+03  0.50382651072E+02  0.53966154117E+03  0.59058942460E+03  0.18443963573E+03 0.  0.
        -24    2    5    5    0    0  0.15263655826E+03  0.70873969026E+02  0.53674932247E+03  0.56800965787E+03  0.78829549466E+02 0.  0.
          5    1    3    3  501    0 -0.33987143702E+02 -0.78196586552E+02  0.17472005927E+03  0.19447113204E+03  0.47000000000E+01 0. -1.
        -13    1    4    4    0    0 -0.36768027457E+02 -0.14609736575E+02  0.13428333214E+02  0.41781004999E+02  0.00000000000E+00 0.  1.
         14    1    4    4    0    0 -0.74175497380E+02  0.42423672055E+02  0.15717459786E+03  0.17890116426E+03  0.00000000000E+00 0. -1.
         -5    1    5    5    0  502 -0.77058897182E+01 -0.20491317954E+02  0.29122187015E+01  0.22579766731E+02  0.47000000000E+01 0.  1.
         11    1    6    6    0    0  0.55993497466E+02 -0.34259893531E+01  0.10104033088E+03  0.11556884366E+03  0.00000000000E+00 0. -1.
        -12    1    6    6    0    0  0.96643060791E+02  0.74299958379E+02  0.43570899159E+03  0.45244081421E+03  0.00000000000E+00 0.  1.
</event>
<event>
12    1  0.8133495E-002  0.1776386E+03  0.7818608E-02  0.1170147E+00
         21   -1    0    0  501  502  0.00000000000E+00  0.00000000000E+00  0.11604665604E+04  0.11604665604E+04  0.00000000000E+00 0. -1.
         21   -1    0    0  502  503 -0.00000000000E+00 -0.00000000000E+00 -0.12159172062E+03  0.12159172062E+03  0.00000000000E+00 0. -1.
         -6    2    1    2    0  503 -0.28290962785E+02  0.36211224783E+02 -0.45404273350E+02  0.18334948014E+03  0.17159211069E+03 0.  0.
        -24    2    3    3    0    0 -0.36127546098E+02  0.88995576094E+02 -0.29286156008E+02  0.12740769354E+03  0.78419572090E+02 0.  0.
          6    2    1    2  501    0  0.28290962785E+02 -0.36211224783E+02  0.10842791131E+04  0.10987088009E+04  0.17142987657E+03 0.  0.
         24    2    5    5    0    0 -0.18992545634E+02  0.41823492623E+02  0.51803268392E+03  0.52513905282E+03  0.72823360722E+02 0.  0.
          5    1    5    5  501    0  0.47283508419E+02 -0.78034717406E+02  0.56624642920E+03  0.57356974804E+03  0.47000000000E+01 0. -1.
        -13    1    6    6    0    0 -0.17531233104E+02  0.25358725715E+02  0.66440386955E+02  0.73244345330E+02  0.00000000000E+00 0.  1.
         14    1    6    6    0    0 -0.14613125304E+01  0.16464766908E+02  0.45159229696E+03  0.45189470749E+03  0.00000000000E+00 0. -1.
         -5    1    3    3    0  503  0.78365833132E+01 -0.52784351312E+02 -0.16118117341E+02  0.55941786601E+02  0.47000000000E+01 0.  1.
         11    1    4    4    0    0  0.17192380016E+02 -0.25118810440E+01 -0.90229402481E+01  0.19578072625E+02  0.00000000000E+00 0. -1.
        -12    1    4    4    0    0 -0.53319926114E+02  0.91507457138E+02 -0.20263215760E+02  0.10782962091E+03  0.00000000000E+00 0.  1.
</event>
<event>
12    1  0.8133495E-002  0.2996831E+03  0.7818608E-02  0.1085423E+00
         21   -1    0    0  503  502  0.00000000000E+00  0.00000000000E+00  0.41695962608E+03  0.41695962608E+03  0.00000000000E+00 0. -1.
         21   -1    0    0  501  503 -0.00000000000E+00 -0.00000000000E+00 -0.43657770371E+03  0.43657770371E+03  0.00000000000E+00 0. -1.
          6    2    1    2  501    0  0.86940634012E+02  0.22939891565E+03  0.29405234910E+03  0.41971811572E+03  0.17179632216E+03 0.  0.
         24    2    3    3    0    0  0.99591013448E+02  0.17004809344E+03  0.29067195741E+03  0.35875854515E+03  0.73367450893E+02 0.  0.
         -6    2    1    2    0  502 -0.86940634012E+02 -0.22939891565E+03 -0.31367042674E+03  0.43381921407E+03  0.17212622561E+03 0.  0.
        -24    2    5    5    0    0 -0.55145494477E+02 -0.17308395337E+03 -0.12166529980E+03  0.23116096813E+03  0.75059093648E+02 0.  0.
          5    1    3    3  501    0 -0.12650379435E+02  0.59350822204E+02  0.33803916954E+01  0.60959570571E+02  0.47000000000E+01 0. -1.
        -13    1    4    4    0    0  0.22660579093E+02  0.15943727306E+02  0.10010571198E+02  0.29460411079E+02  0.00000000000E+00 0.  1.
         14    1    4    4    0    0  0.76930434355E+02  0.15410436614E+03  0.28066138621E+03  0.32929813407E+03  0.00000000000E+00 0. -1.
         -5    1    5    5    0  502 -0.31795139535E+02 -0.56314962280E+02 -0.19200512694E+03  0.20265824594E+03  0.47000000000E+01 0.  1.
         13    1    6    6    0    0 -0.15497143238E+02 -0.14924876650E+03 -0.97766963938E+02  0.17909141517E+03  0.00000000000E+00 0. -1.
        -14    1    6    6    0    0 -0.39648351239E+02 -0.23835186871E+02 -0.23898335858E+02  0.52069552965E+02  0.00000000000E+00 0.  1.
</event>
<event>
12    1  0.8133495E-002  0.2789954E+03  0.7818608E-02  0.1096296E+00
         21   -1    0    0  501  502  0.00000000000E+00  0.00000000000E+00  0.14994216141E+03  0.14994216141E+03  0.00000000000E+00 0.  1.
         21   -1    0    0  502  503 -0.00000000000E+00 -0.00000000000E+00 -0.81005439649E+03  0.81005439649E+03  0.00000000000E+00 0. -1.
         -6    2    1    2    0  503  0.18589656144E+03 -0.11774184446E+03 -0.61825600840E+03  0.67829119295E+03  0.17151611300E+03 0.  0.
        -24    2    3    3    0    0  0.11720418108E+03 -0.14743962615E+03 -0.46730738299E+03  0.50974393290E+03  0.77378443447E+02 0.  0.
          6    2    1    2  501    0 -0.18589656144E+03  0.11774184446E+03 -0.41856226680E+02  0.28170536496E+03  0.17083704353E+03 0.  0.
         24    2    5    5    0    0 -0.20473250872E+03  0.10433652824E+03 -0.11746486067E+02  0.24345380430E+03  0.79562953945E+02 0.  0.
          5    1    5    5  501    0  0.18835947282E+02  0.13405316223E+02 -0.30109740612E+02  0.38251560658E+02  0.47000000000E+01 0. -1.
        -11    1    6    6    0    0 -0.19114070010E+03  0.66452527143E+02 -0.36311146104E+01  0.20239538185E+03  0.00000000000E+00 0.  1.
         12    1    6    6    0    0 -0.13591808620E+02  0.37884001093E+02 -0.81153714569E+01  0.41058422452E+02  0.00000000000E+00 0. -1.
         -5    1    3    3    0  503  0.68692380365E+02  0.29697781688E+02 -0.15094862541E+03  0.16854726005E+03  0.47000000000E+01 0.  1.
         13    1    4    4    0    0  0.93448401617E+01 -0.12049945983E+02 -0.12728814284E+03  0.12819827824E+03  0.00000000000E+00 0. -1.
        -14    1    4    4    0    0  0.10785934091E+03 -0.13538968016E+03 -0.34001924015E+03  0.38154565466E+03  0.00000000000E+00 0.  1.
</event>
<event>
12    1  0.8133495E-002  0.1838664E+03  0.7818608E-02  0.1165960E+00
         21   -1    0    0  503  502  0.00000000000E+00  0.00000000000E+00  0.10435842777E+04  0.10435842777E+04  0.00000000000E+00 0. -1.
         21   -1    0    0  501  503 -0.00000000000E+00 -0.00000000000E+00 -0.13834401640E+03  0.13834401640E+03  0.00000000000E+00 0. -1.
          6    2    1    2  501    0  0.36864161406E+02 -0.33329575869E+01 -0.69937708340E+02  0.18956801156E+03  0.17226338252E+03 0.  0.
         24    2    3    3    0    0  0.66248298475E+02 -0.35774247961E+02 -0.20705604453E+01  0.10867360758E+03  0.78339210463E+02 0.  0.
         -6    2    1    2    0  502 -0.36864161406E+02  0.33329575869E+01  0.97517796962E+03  0.99236028251E+03  0.18010214564E+03 0.  0.
        -24    2    5    5    0    0 -0.58222668677E+02  0.63870608870E+02  0.61855994038E+03  0.62997995491E+03  0.82395448374E+02 0.  0.
          5    1    3    3  501    0 -0.29384137070E+02  0.32441290374E+02 -0.67867147895E+02  0.80894403984E+02  0.47000000000E+01 0. -1.
        -13    1    4    4    0    0 -0.32060081746E+01  0.19454157318E+02 -0.29323498721E+01  0.19933424220E+02  0.00000000000E+00 0.  1.
         14    1    4    4    0    0  0.69454306650E+02 -0.55228405279E+02  0.86178942679E+00  0.88740183361E+02  0.00000000000E+00 0. -1.
         -5    1    5    5    0  502  0.21358507271E+02 -0.60537651283E+02  0.35661802924E+03  0.36238032760E+03  0.47000000000E+01 0.  1.
         11    1    6    6    0    0 -0.28034663344E+02  0.38580022074E+02  0.53999869733E+03  0.54210050135E+03  0.00000000000E+00 0. -1.
        -12    1    6    6    0    0 -0.30188005333E+02  0.25290586796E+02  0.78561243054E+02  0.87879453552E+02  0.00000000000E+00 0.  1.
</event>
<event>
12    1  0.8133495E-002  0.2732414E+03  0.7818608E-02  0.1099445E+00
         21   -1    0    0  503  502  0.00000000000E+00  0.00000000000E+00  0.26667427524E+03  0.26667427524E+03  0.00000000000E+00 0. -1.
         21   -1    0    0  501  503 -0.00000000000E+00 -0.00000000000E+00 -0.37473617244E+03  0.37473617244E+03  0.00000000000E+00 0. -1.
          6    2    1    2  501    0 -0.10271725599E+03 -0.18575063712E+03 -0.21534929293E+03  0.34790255382E+03  0.17206607778E+03 0.  0.
         24    2    3    3    0    0 -0.76675630875E+02 -0.18934049454E+03 -0.22933556018E+03  0.31775692418E+03  0.81521092127E+02 0.  0.
         -6    2    1    2    0  502  0.10271725599E+03  0.18575063712E+03  0.10728739573E+03  0.29350789386E+03  0.17199466447E+03 0.  0.
        -24    2    5    5    0    0  0.10953712344E+01  0.11128079704E+03  0.14935314803E+02  0.13722686048E+03  0.78889365445E+02 0.  0.
          5    1    3    3  501    0 -0.26041625113E+02  0.35898574173E+01  0.13986267250E+02  0.30145629640E+02  0.47000000000E+01 0. -1.
        -13    1    4    4    0    0 -0.40308533754E+02 -0.31763832559E+02 -0.93076220129E+02  0.10628688398E+03  0.00000000000E+00 0.  1.
         14    1    4    4    0    0 -0.36367097122E+02 -0.15757666198E+03 -0.13625934005E+03  0.21147004021E+03  0.00000000000E+00 0. -1.
         -5    1    5    5    0  502  0.10162188475E+03  0.74469840080E+02  0.92352080928E+02  0.15628103338E+03  0.47000000000E+01 0.  1.
         13    1    6    6    0    0  0.39403748225E+02  0.59090150630E+02  0.11399420873E+01  0.71032392214E+02  0.00000000000E+00 0. -1.
        -14    1    6    6    0    0 -0.38308376991E+02  0.52190646411E+02  0.13795372716E+02  0.66194468264E+02  0.00000000000E+00 0.  1.
</event>
<event>
12    1  0.8133495E-002  0.2113376E+03  0.7818608E-02  0.1140578E+00
         21   -1    0    0  503  502  0.00000000000E+00  0.00000000000E+00  0.34380108622E+02  0.34380108622E+02  0.00000000000E+00 0.  1.
         21   -1    0    0  501  503 -0.00000000000E+00 -0.00000000000E+00 -0.21012103454E+04  0.21012103454E+04  0.00000000000E+00 0. -1.
          6    2    1    2  501    0  0.92034206211E+02 -0.80988259651E+02 -0.16945291095E+04  0.17076570204E+04  0.17214587696E+03 0.  0.
         24    2    3    3    0    0  0.64847289668E+01 -0.34774382405E+00 -0.10062591317E+04  0.10094025838E+04  0.79334503298E+02 0.  0.
         -6    2    1    2    0  502 -0.92034206211E+02  0.80988259651E+02 -0.37230112727E+03  0.42793343365E+03  0.17172507374E+03 0.  0.
        -24    2    5    5    0    0 -0.25559644200E+02 -0.12587580805E+02 -0.10508338155E+03  0.13706796828E+03  0.83266849646E+02 0.  0.
          5    1    3    3  501    0  0.85549477244E+02 -0.80640515827E+02 -0.68826997786E+03  0.69825443663E+03  0.47000000000E+01 0. -1.
        -11    1    4    4    0    0 -0.25420378072E+02  0.93404098662E+01 -0.14556682622E+03  0.14806464728E+03  0.00000000000E+00 0.  1.
         12    1    4    4    0    0  0.31905107038E+02 -0.96881536903E+01 -0.86069230543E+03  0.86133793647E+03  0.00000000000E+00 0. -1.
         -5    1    5    5    0  502 -0.66474562011E+02  0.93575840456E+02 -0.26721774572E+03  0.29086546536E+03  0.47000000000E+01 0.  1.
         11    1    6    6    0    0  0.18551591814E+02  0.92403083778E+01 -0.78380232149E+02  0.81074075076E+02  0.00000000000E+00 0. -1.
        -12    1    6    6    0    0 -0.44111236014E+02 -0.21827889183E+02 -0.26703149399E+02  0.55993893209E+02  0.00000000000E+00 0.  1.
</event>
<event>
12    1  0.8133495E-002  0.2347686E+03  0.7818608E-02  0.1124186E+00
         21   -1    0    0  503  502  0.00000000000E+00  0.00000000000E+00  0.10221437015E+03  0.10221437015E+03  0.00000000000E+00 0.  1.
         21   -1    0    0  501  503 -0.00000000000E+00 -0.00000000000E+00 -0.56501614459E+03  0.56501614459E+03  0.00000000000E+00 0.  1.
          6    2    1    2  501    0 -0.14681549982E+03 -0.42063491332E+02 -0.31920058777E+03  0.39623897439E+03  0.17830362111E+03 0.  0.
         24    2    3    3    0    0 -0.17719357418E+03 -0.50988961871E+02 -0.25370275721E+03  0.32333803315E+03  0.78644502056E+02 0.  0.
         -6    2    1    2    0  502  0.14681549982E+03  0.42063491332E+02 -0.14360118667E+03  0.27099154035E+03  0.17172939712E+03 0.  0.
        -24    2    5    5    0    0  0.13546119255E+03  0.89270874313E+02 -0.11803616178E+03  0.21591779162E+03  0.79805598559E+02 0.  0.
          5    1    3    3  501    0  0.30378074352E+02  0.89254705382E+01 -0.65497830557E+02  0.72900941238E+02  0.47000000000E+01 0. -1.
        -13    1    4    4    0    0 -0.11004947481E+03 -0.27846798813E+02 -0.21330868073E+03  0.24163386431E+03  0.00000000000E+00 0.  1.
         14    1    4    4    0    0 -0.67144099363E+02 -0.23142163058E+02 -0.40394076488E+02  0.81704168839E+02  0.00000000000E+00 0. -1.
         -5    1    5    5    0  502  0.11354307270E+02 -0.47207382980E+02 -0.25565024888E+02  0.55073748728E+02  0.47000000000E+01 0.  1.
         13    1    6    6    0    0 -0.25604211324E+01  0.30646334238E+02 -0.22672371626E+02  0.38207198193E+02  0.00000000000E+00 0. -1.
        -14    1    6    6    0    0  0.13802161369E+03  0.58624540075E+02 -0.95363790157E+02  0.17771059343E+03  0.00000000000E+00 0.  1.
</event>
<event>
12    1  0.8133495E-002  0.1999442E+03  0.7818608E-02  0.1149888E+00
         21   -1    0    0  501  502  0.00000000000E+00  0.00000000000E+00  0.22101184996E+02  0.22101184996E+02  0.00000000000E+00 0. -1.
         21   -1    0    0  502  503 -0.00000000000E+00 -0.00000000000E+00 -0.18186910950E+04  0.18186910950E+04  0.00000000000E+00 0. -1.
         -6    2    1    2    0  503  0.16987465743E+02  0.98147041414E+02 -0.97856451553E+03  0.99868584929E+03  0.17281058642E+03 0.  0.
        -24    2    3    3    0    0  0.60569285093E+02  0.61748576703E+02 -0.39134777476E+03  0.40871143132E+03  0.80065150109E+02 0.  0.
          6    2    1    2  501    0 -0.16987465743E+02 -0.98147041414E+02 -0.81802539448E+03  0.84210643072E+03  0.17336746785E+03 0.  0.
         24    2    5    5    0    0 -0.15962239573E+02 -0.76117286152E+02 -0.25230202700E+03  0.27593386010E+03  0.80215634252E+02 0.  0.
          5    1    5    5  501    0 -0.10252261700E+01 -0.22029755261E+02 -0.56572336748E+03  0.56617257062E+03  0.47000000000E+01 0. -1.
        -11    1    6    6    0    0  0.23773600292E+02 -0.24786951087E+02 -0.15641092190E+03  0.16013729579E+03  0.00000000000E+00 0.  1.
         12    1    6    6    0    0 -0.39735839866E+02 -0.51330335065E+02 -0.95891105105E+02  0.11579656431E+03  0.00000000000E+00 0. -1.
         -5    1    3    3    0  503 -0.43581819350E+02  0.36398464710E+02 -0.58721674077E+03  0.58997441797E+03  0.47000000000E+01 0.  1.
         13    1    4    4    0    0 -0.14265737547E+02 -0.35515303705E+00 -0.11231407915E+03  0.11321700304E+03  0.00000000000E+00 0. -1.
        -14    1    4    4    0    0  0.74835022641E+02  0.62103729740E+02 -0.27903369560E+03  0.29549442828E+03  0.00000000000E+00 0.  1.
</event>
<event>
12    1  0.8133495E-002  0.2216686E+03  0.7818608E-02  0.1132693E+00
         21   -1    0    0  503  502  0.00000000000E+00  0.00000000000E+00  0.16684923691E+03  0.16684923691E+03  0.00000000000E+00 0. -1.
         21   -1    0    0  501  503 -0.00000000000E+00 -0.00000000000E+00 -0.10342822919E+04  0.10342822919E+04  0.00000000000E+00 0.  1.
          6    2    1    2  501    0  0.75932545541E+01  0.14130416521E+03 -0.94182566596E+03  0.96756011208E+03  0.17062374046E+03 0.  0.
         24    2    3    3    0    0 -0.57618188052E+02  0.11116542034E+03 -0.65437607487E+03  0.67123219641E+03  0.81651747434E+02 0.  0.
         -6    2    1    2    0  502 -0.75932545541E+01 -0.14130416521E+03  0.74392610963E+02  0.23357141674E+03  0.17028453109E+03 0.  0.
        -24    2    5    5    0    0  0.16969221212E+02 -0.43847579781E+01  0.24618000619E+02  0.85754499139E+02  0.80253396171E+02 0.  0.
          5    1    3    3  501    0  0.65211442606E+02  0.30138744880E+02 -0.28744959108E+03  0.29632791567E+03  0.47000000000E+01 0. -1.
        -13    1    4    4    0    0 -0.46458872856E+02  0.40594180118E+02 -0.15593342713E+03  0.16769480619E+03  0.00000000000E+00 0.  1.
         14    1    4    4    0    0 -0.11159315197E+02  0.70571240218E+02 -0.49844264774E+03  0.50353739022E+03  0.00000000000E+00 0. -1.
         -5    1    5    5    0  502 -0.24562475766E+02 -0.13691940724E+03  0.49774610344E+02  0.14781691760E+03  0.47000000000E+01 0.  1.
         11    1    6    6    0    0  0.38253796193E+02  0.12847170771E+02 -0.10039004466E+02  0.41583462226E+02  0.00000000000E+00 0. -1.
        -12    1    6    6    0    0 -0.21284574981E+02 -0.17231928749E+02  0.34657005085E+02  0.44171036913E+02  0.00000000000E+00 0.  1.
</event>
<event>
12    1  0.8133495E-002  0.3344759E+03  0.7818608E-02  0.1069311E+00
         21   -1    0    0  501  502  0.00000000000E+00  0.00000000000E+00  0.55782598891E+03  0.55782598891E+03  0.00000000000E+00 0. -1.
         21   -1    0    0  502  503 -0.00000000000E+00 -0.00000000000E+00 -0.20261013441E+03  0.20261013441E+03  0.00000000000E+00 0. -1.
         -6    2    1    2    0  503  0.26654473505E+03  0.10214815624E+03  0.13314577148E+03  0.36000270130E+03  0.17433819682E+03 0.  0.
        -24    2    3    3    0    0  0.17943326295E+03  0.94984143320E+02  0.15801124225E+03  0.26900757347E+03  0.78608132984E+02 0.  0.
          6    2    1    2  501    0 -0.26654473505E+03 -0.10214815624E+03  0.22207008301E+03  0.40043342202E+03  0.17190538704E+03 0.  0.
         24    2    5    5    0    0 -0.46794182157E+02 -0.57180352734E+02  0.71410362006E+02  0.13018751477E+03  0.79937856976E+02 0.  0.
          5    1    5    5  501    0 -0.21975055290E+03 -0.44967803506E+02  0.15065972101E+03  0.27024590725E+03  0.47000000000E+01 0. -1.
        -13    1    6    6    0    0 -0.13441052176E+02 -0.28195059763E+02 -0.13841372645E+02  0.34164409483E+02  0.00000000000E+00 0.  1.
         14    1    6    6    0    0 -0.33353129981E+02 -0.28985292971E+02  0.85251734651E+02  0.96023105288E+02  0.00000000000E+00 0. -1.
         -5    1    3    3    0  503  0.87111472102E+02  0.71640129196E+01 -0.24865470763E+02  0.90995127832E+02  0.47000000000E+01 0.  1.
         11    1    4    4    0    0  0.74880946844E+02  0.59990602663E+01  0.28735401760E+02  0.80429274761E+02  0.00000000000E+00 0. -1.
        -12    1    4    4    0    0  0.10455231611E+03  0.88985083054E+02  0.12927584049E+03  0.18857829871E+03  0.00000000000E+00 0.  1.
</event>
<event>
12    1  0.8133495E-002  0.2084460E+03  0.7818608E-02  0.1143543E+00
         21   -1    0    0  501  502  0.00000000000E+00  0.00000000000E+00  0.46279475118E+03  0.46279475118E+03  0.00000000000E+00 0. -1.
         21   -1    0    0  502  503 -0.00000000000E+00 -0.00000000000E+00 -0.92347840102E+02  0.92347840102E+02  0.00000000000E+00 0. -1.
         -6    2    1    2    0  503 -0.11039290348E+03  0.16708347485E+01  0.17738443526E+03  0.27370597796E+03  0.17680593788E+03 0.  0.
        -24    2    3    3    0    0 -0.79715273320E+02 -0.54296087911E+02  0.60351178017E+02  0.14031824717E+03  0.82124027164E+02 0.  0.
          6    2    1    2  501    0  0.11039290348E+03 -0.16708347485E+01  0.19306247581E+03  0.28143661332E+03  0.17246467152E+03 0.  0.
         24    2    5    5    0    0  0.83197605025E+02 -0.11382988876E+02  0.21532823065E+03  0.24467026955E+03  0.80286237726E+02 0.  0.
          5    1    5    5  501    0  0.27195298456E+02  0.97121541272E+01 -0.22265754837E+02  0.36766343772E+02  0.47000000000E+01 0. -1.
        -13    1    6    6    0    0  0.34127780670E+02 -0.44858457065E+02  0.94566789778E+02  0.11009025530E+03  0.00000000000E+00 0.  1.
         14    1    6    6    0    0  0.49069824355E+02  0.33475468190E+02  0.12076144087E+03  0.13458001424E+03  0.00000000000E+00 0. -1.
         -5    1    3    3    0  503 -0.30677630161E+02  0.55966922659E+02  0.11703325725E+03  0.13338773079E+03  0.47000000000E+01 0.  1.
         11    1    4    4    0    0 -0.59430659744E+02  0.62661635294E+01  0.13931961447E+02  0.61362591802E+02  0.00000000000E+00 0. -1.
        -12    1    4    4    0    0 -0.20284613577E+02 -0.60562251440E+02  0.46419216570E+02  0.78955655367E+02  0.00000000000E+00 0.  1.
</event>
<event>
12    1  0.8133495E-002  0.1981764E+03  0.7818608E-02  0.1151406E+00
         21   -1    0    0  503  502  0.00000000000E+00  0.00000000000E+00  0.11483959373E+04  0.11483959373E+04  0.00000000000E+00 0.  1.
         21   -1    0    0  501  503 -0.00000000000E+00 -0.00000000000E+00 -0.35328628398E+02  0.35328628398E+02  0.00000000000E+00 0.  1.
          6    2    1    2  501    0  0.83723993856E+02 -0.51195020575E+02  0.44702925309E+03  0.48898776296E+03  0.17217212879E+03 0.  0.
         24    2    3    3    0    0  0.11885659511E+03 -0.12195829014E+02  0.35521064606E+03  0.38312000011E+03  0.79565714764E+02 0.  0.
         -6    2    1    2    0  502 -0.83723993856E+02  0.51195020575E+02  0.66603805580E+03  0.69473680272E+03  0.17152812015E+03 0.  0.
        -24    2    5    5    0    0  0.34917080750E+01 -0.21290000053E+02  0.30428239551E+03  0.31559315629E+03  0.80906167574E+02 0.  0.
          5    1    3    3  501    0 -0.35132601258E+02 -0.38999191562E+02  0.91818607027E+02  0.10586776285E+03  0.47000000000E+01 0. -1.
        -11    1    4    4    0    0  0.29321392868E+02  0.13783245696E+02  0.19569404184E+03  0.19835795914E+03  0.00000000000E+00 0.  1.
         12    1    4    4    0    0  0.89535202246E+02 -0.25979074710E+02  0.15951660422E+03  0.18476204098E+03  0.00000000000E+00 0. -1.
         -5    1    5    5    0  502 -0.87215701931E+02  0.72485020628E+02  0.36175566029E+03  0.37914364643E+03  0.47000000000E+01 0.  1.
         13    1    6    6    0    0 -0.18691339160E+02 -0.70756482035E+01  0.14687547933E+02  0.24802318870E+02  0.00000000000E+00 0. -1.
        -14    1    6    6    0    0  0.22183047235E+02 -0.14214351849E+02  0.28959484758E+03  0.29079083742E+03  0.00000000000E+00 0.  1.
</event>
<event>
12    1  0.8133495E-002  0.2389970E+03  0.7818608E-02  0.1120765E+00
         21   -1    0    0  501  502  0.00000000000E+00  0.00000000000E+00  0.10094093239E+04  0.10094093239E+04  0.00000000000E+00 0. -1.
         21   -1    0    0  502  503 -0.00000000000E+00 -0.00000000000E+00 -0.57789814184E+02  0.57789814184E+02  0.00000000000E+00 0.  1.
         -6    2    1    2    0  503 -0.88098017291E+02 -0.13829328838E+03  0.56359446483E+03  0.61147662218E+03  0.17140199655E+03 0.  0.
        -24    2    3    3    0    0 -0.96563361105E+02 -0.98221847177E+02  0.25963492233E+03  0.30473426135E+03  0.80502566291E+02 0.  0.
          6    2    1    2  501    0  0.88098017291E+02  0.13829328838E+03  0.38802504484E+03  0.45572251586E+03  0.17387720316E+03 0.  0.
         24    2    5    5    0    0  0.80888146788E+02  0.16902031443E+03  0.35733540990E+03  0.41144976967E+03  0.80570210424E+02 0.  0.
          5    1    5    5  501    0  0.72098705028E+01 -0.30727026054E+02  0.30689634934E+02  0.44272746189E+02  0.47000000000E+01 0. -1.
        -13    1    6    6    0    0  0.60007381142E+02  0.89843091679E+02  0.12560921330E+03  0.16568144549E+03  0.00000000000E+00 0.  1.
         14    1    6    6    0    0  0.20880765646E+02  0.79177222753E+02  0.23172619660E+03  0.24576832418E+03  0.00000000000E+00 0. -1.
         -5    1    3    3    0  503  0.84653438146E+01 -0.40071441202E+02  0.30395954250E+03  0.30674236082E+03  0.47000000000E+01 0.  1.
         11    1    4    4    0    0 -0.49536140265E+02 -0.10089672674E+03  0.18584022891E+03  0.21718786647E+03  0.00000000000E+00 0. -1.
        -12    1    4    4    0    0 -0.47027220840E+02  0.26748795659E+01  0.73794693417E+02  0.87546394884E+02  0.00000000000E+00 0.  1.
</event>
<event>
12    1  0.8133495E-002  0.1913520E+03  0.7818608E-02  0.1157476E+00
         21   -1    0    0  501  502  0.00000000000E+00  0.00000000000E+00  0.13158639928E+04  0.13158639928E+04  0.00000000000E+00 0.  1.
         21   -1    0    0  502  503 -0.00000000000E+00 -0.00000000000E+00 -0.13844753225E+03  0.13844753225E+03  0.00000000000E+00 0.  1.
         -6    2    1    2    0  503  0.53748636361E+02 -0.61133558057E+02 -0.61397893661E+02  0.20096092970E+03  0.17317438057E+03 0.  0.
        -24    2    3    3    0    0  0.95001088100E+02 -0.49986219857E+02 -0.11948891386E+02  0.13543748542E+03  0.81711122481E+02 0.  0.
          6    2    1    2  501    0 -0.53748636361E+02  0.61133558057E+02  0.12388143542E+04  0.12533505954E+04  0.17204790861E+03 0.  0.
         24    2    5    5    0    0  0.30757557992E+02 -0.12265149626E+01  0.55900345961E+03  0.56545887567E+03  0.79443945724E+02 0.  0.
          5    1    5    5  501    0 -0.84506194354E+02  0.62360073020E+02  0.67981089460E+03  0.68789171968E+03  0.47000000000E+01 0. -1.
        -11    1    6    6    0    0  0.60673486499E+01  0.26520492405E+02  0.43892734939E+03  0.43976967526E+03  0.00000000000E+00 0.  1.
         12    1    6    6    0    0  0.24690209343E+02 -0.27747007368E+02  0.12007611022E+03  0.12568920041E+03  0.00000000000E+00 0. -1.
         -5    1    3    3    0  503 -0.41252451738E+02 -0.11147338201E+02 -0.49449002275E+02  0.65523444273E+02  0.47000000000E+01 0.  1.
         11    1    4    4    0    0 -0.89035228781E+01  0.10992170732E+02  0.14434294313E+01  0.14219142926E+02  0.00000000000E+00 0. -1.
        -12    1    4    4    0    0  0.10390461098E+03 -0.60978390588E+02 -0.13392320818E+02  0.12121834250E+03  0.00000000000E+00 0.  1.
</event>
<event>
12    1  0.8133495E-002  0.2270043E+03  0.7818608E-02  0.1129211E+00
         21   -1    0    0  501  502  0.00000000000E+00  0.00000000000E+00  0.24860739674E+03  0.24860739674E+03  0.00000000000E+00 0. -1.
         21   -1    0    0  502  503 -0.00000000000E+00 -0.00000000000E+00 -0.25073589393E+03  0.25073589393E+03  0.00000000000E+00 0. -1.
         -6    2    1    2    0  503  0.37450008755E+02 -0.14897874471E+03  0.10553917281E+03  0.24809978817E+03  0.16376146788E+03 0.  0.
        -24    2    3    3    0    0  0.43399102665E+02 -0.17433723074E+02  0.52456540803E+02  0.10604578346E+03  0.79414121565E+02 0.  0.
          6    2    1    2  501    0 -0.37450008755E+02  0.14897874471E+03 -0.10766767000E+03  0.25124350250E+03  0.16713408047E+03 0.  0.
         24    2    5    5    0    0  0.23733586281E+02  0.29563522477E+02 -0.66345253277E+02  0.11076909300E+03  0.80192358439E+02 0.  0.
          5    1    5    5  501    0 -0.61183595036E+02  0.11941522223E+03 -0.41322416721E+02  0.14047440950E+03  0.47000000000E+01 0. -1.
        -11    1    6    6    0    0  0.28694623547E+02  0.54603252106E+02 -0.55704178892E+02  0.83113489321E+02  0.00000000000E+00 0.  1.
         12    1    6    6    0    0 -0.49610372655E+01 -0.25039729629E+02 -0.10641074385E+02  0.27655603676E+02  0.00000000000E+00 0. -1.
         -5    1    3    3    0  503 -0.59490939100E+01 -0.13154502163E+03  0.53082632009E+02  0.14205400471E+03  0.47000000000E+01 0.  1.
         13    1    4    4    0    0  0.63246335054E+02  0.33051304719E+01  0.38625077299E+02  0.74181664726E+02  0.00000000000E+00 0. -1.
        -14    1    4    4    0    0 -0.19847232389E+02 -0.20738853546E+02  0.13831463504E+02  0.31864118732E+02  0.00000000000E+00 0.  1.
</event>
<event>
12    1  0.8133495E-002  0.2094231E+03  0.7818608E-02  0.1142273E+00
         21   -1    0    0  503  502  0.00000000000E+00  0.00000000000E+00  0.12292094670E+04  0.12292094670E+04  0.00000000000E+00 0. -1.
         21   -1    0    0  501  503 -0.00000000000E+00 -0.00000000000E+00 -0.48333164326E+02  0.48333164326E+02  0.00000000000E+00 0. -1.
          6    2    1    2  501    0 -0.80359458432E+02  0.87081129965E+02  0.26216850127E+03  0.33554485140E+03  0.17267674565E+03 0.  0.
         24    2    3    3    0    0 -0.12187304506E+03  0.76009508229E+02  0.22176909661E+03  0.27638269644E+03  0.81088705916E+02 0.  0.
         -6    2    1    2    0  502  0.80359458432E+02 -0.87081129965E+02  0.91870780136E+03  0.94199777988E+03  0.17115790156E+03 0.  0.
        -24    2    5    5    0    0  0.24359529506E+02 -0.11086797977E+03  0.47785276370E+03  0.49693928879E+03  0.75632647384E+02 0.  0.
          5    1    3    3  501    0  0.41513586629E+02  0.11071621736E+02  0.40399404661E+02  0.59162154961E+02  0.47000000000E+01 0. -1.
        -11    1    4    4    0    0  0.28652637366E+01 -0.16021899677E+01  0.51041532843E+02  0.51146992325E+02  0.00000000000E+00 0.  1.
         12    1    4    4    0    0 -0.12473830880E+03  0.77611698197E+02  0.17072756376E+03  0.22523570411E+03  0.00000000000E+00 0. -1.
         -5    1    5    5    0  502  0.55999928926E+02  0.23786849804E+02  0.44085503766E+03  0.44505849109E+03  0.47000000000E+01 0.  1.
         11    1    6    6    0    0  0.45943791154E+02 -0.65535613798E+02  0.36083724343E+03  0.36960690587E+03  0.00000000000E+00 0. -1.
        -12    1    6    6    0    0 -0.21584261649E+02 -0.45332365970E+02  0.11701552027E+03  0.12733238292E+03  0.00000000000E+00 0.  1.
</event>
<event>
12    1  0.8133495E-002  0.2358199E+03  0.7818608E-02  0.1122786E+00
         21   -1    0    0  501  502  0.00000000000E+00  0.00000000000E+00  0.30865976778E+03  0.30865976778E+03  0.00000000000E+00 0.  1.
         21   -1    0    0  502  503 -0.00000000000E+00 -0.00000000000E+00 -0.19227933038E+03  0.19227933038E+03  0.00000000000E+00 0.  1.
         -6    2    1    2    0  503  0.90795326536E+02 -0.13283765031E+03 -0.68004169437E+01  0.23488547067E+03  0.17098335008E+03 0.  0.
        -24    2    3    3    0    0  0.10971185486E+03 -0.61579231546E+02  0.30944782530E+02  0.15192531535E+03  0.79341218951E+02 0.  0.
          6    2    1    2  501    0 -0.90795326536E+02  0.13283765031E+03  0.12318085434E+03  0.26605362749E+03  0.17239888969E+03 0.  0.
         24    2    5    5    0    0  0.96906985041E+01  0.89498653808E+02  0.80378379802E+02  0.14845323773E+03  0.86450917762E+02 0.  0.
          5    1    5    5  501    0 -0.10048602504E+03  0.43338996497E+02  0.42802474540E+02  0.11760038976E+03  0.47000000000E+01 0. -1.
        -11    1    6    6    0    0 -0.32129160426E+02  0.70626166587E+02  0.60776766624E+02  0.98560406441E+02  0.00000000000E+00 0.  1.
         12    1    6    6    0    0  0.41819858930E+02  0.18872487221E+02  0.19601613178E+02  0.49892831289E+02  0.00000000000E+00 0. -1.
         -5    1    3    3    0  503 -0.18916528321E+02 -0.71258418759E+02 -0.37745199474E+02  0.82960155322E+02  0.47000000000E+01 0.  1.
         13    1    4    4    0    0  0.61981067487E+02 -0.60661029230E+02  0.50475200151E+02  0.10034519931E+03  0.00000000000E+00 0. -1.
        -14    1    4    4    0    0  0.47730787370E+02 -0.91820231598E+00 -0.19530417620E+02  0.51580116042E+02  0.00000000000E+00 0.  1.
</event>
<event>
12    1  0.8133495E-002  0.3236383E+03  0.7818608E-02  0.1073995E+00
         21   -1    0    0  503  502  0.00000000000E+00  0.00000000000E+00  0.24555075522E+03  0.24555075522E+03  0.00000000000E+00 0.  1.
         21   -1    0    0  501  503 -0.00000000000E+00 -0.00000000000E+00 -0.47804659836E+03  0.47804659836E+03  0.00000000000E+00 0.  1.
          6    2    1    2  501    0  0.14742529089E+03 -0.23116567404E+03  0.26065310349E+01  0.32357876714E+03  0.17182735316E+03 0.  0.
         24    2    3    3    0    0  0.42366158893E+02 -0.16624580318E+03  0.40654607468E+02  0.19426613447E+03  0.81571903250E+02 0.  0.
         -6    2    1    2    0  502 -0.14742529089E+03  0.23116567404E+03 -0.23510237418E+03  0.40001858644E+03  0.17195917510E+03 0.  0.
        -24    2    5    5    0    0 -0.75917901745E+02  0.20492859887E+03 -0.11909011169E+03  0.26115669150E+03  0.79127140568E+02 0.  0.
          5    1    3    3  501    0  0.10505913199E+03 -0.64919870861E+02 -0.38048076433E+02  0.12931263267E+03  0.47000000000E+01 0. -1.
        -13    1    4    4    0    0  0.81258612785E+01 -0.55008744168E+02 -0.24632864480E+02  0.60817510381E+02  0.00000000000E+00 0.  1.
         14    1    4    4    0    0  0.34240297615E+02 -0.11123705901E+03  0.65287471948E+02  0.13344862409E+03  0.00000000000E+00 0. -1.
         -5    1    5    5    0  502 -0.71507389141E+02  0.26237075172E+02 -0.11601226250E+03  0.13886189493E+03  0.47000000000E+01 0.  1.
         13    1    6    6    0    0 -0.33490383895E+01  0.14051504028E+02  0.11757678510E+02  0.18625354427E+02  0.00000000000E+00 0. -1.
        -14    1    6    6    0    0 -0.72568863356E+02  0.19087709484E+03 -0.13084779020E+03  0.24253133708E+03  0.00000000000E+00 0.  1.
</event>
<event>
12    1  0.8133495E-002  0.2321802E+03  0.7818608E-02  0.1125612E+00
         21   -1    0    0  501  502  0.00000000000E+00  0.00000000000E+00  0.31595005821E+03  0.31595005821E+03  0.00000000000E+00 0. -1.
         21   -1    0    0  502  503 -0.00000000000E+00 -0.00000000000E+00 -0.89462082835E+03  0.89462082835E+03  0.00000000000E+00 0. -1.
         -6    2    1    2    0  503  0.19079923271E+02  0.15007289755E+03 -0.83429527367E+03  0.86524272874E+03  0.17236721821E+03 0.  0.
        -24    2    3    3    0    0  0.39300283116E+02  0.17517157471E+03 -0.69311345457E+03  0.72035241647E+03  0.79194382094E+02 0.  0.
          6    2    1    2  501    0 -0.19079923271E+02 -0.15007289755E+03  0.25562450353E+03  0.34532815782E+03  0.17612987176E+03 0.  0.
         24    2    5    5    0    0  0.52061869958E+02 -0.12231375087E+03  0.17931315260E+03  0.23726689164E+03  0.80444261540E+02 0.  0.
          5    1    5    5  501    0 -0.71141793230E+02 -0.27759146681E+02  0.76311350927E+02  0.10806126618E+03  0.47000000000E+01 0. -1.
        -11    1    6    6    0    0  0.32673224160E+02 -0.26937599129E+01  0.25985847825E+02  0.41833720928E+02  0.00000000000E+00 0.  1.
         12    1    6    6    0    0  0.19388645798E+02 -0.11961999096E+03  0.15332730478E+03  0.19543317071E+03  0.00000000000E+00 0. -1.
         -5    1    3    3    0  503 -0.20220359845E+02 -0.25098677160E+02 -0.14118181909E+03  0.14489031227E+03  0.47000000000E+01 0.  1.
         11    1    4    4    0    0  0.18720437893E+02  0.10041200914E+03 -0.52991981549E+03  0.53967401015E+03  0.00000000000E+00 0. -1.
        -12    1    4    4    0    0  0.20579845223E+02  0.74759565568E+02 -0.16319363908E+03  0.18067840632E+03  0.00000000000E+00 0.  1.
</event>
<event>
12    1  0.8133495E-002  0.1805265E+03  0.7818608E-02  0.1167698E+00
         21   -1    0    0  501  502  0.00000000000E+00  0.00000000000E+00  0.31548489732E+02  0.31548489732E+02  0.00000000000E+00 0.  1.
         21   -1    0    0  502  503 -0.00000000000E+00 -0.00000000000E+00 -0.12737598450E+04  0.12737598450E+04  0.00000000000E+00 0. -1.
         -6    2    1    2    0  503  0.34252590120E+02  0.40241732957E+02 -0.90807912230E+03  0.92552657992E+03  0.17087750222E+03 0.  0.
        -24    2    3    3    0    0  0.25999146181E+02  0.50979063182E+01 -0.86542156660E+03  0.86944659288E+03  0.79252417471E+02 0.  0.
          6    2    1    2  501    0 -0.34252590120E+02 -0.40241732957E+02 -0.33413223296E+03  0.37978175481E+03  0.17261864089E+03 0.  0.
         24    2    5    5    0    0 -0.44632388865E+02 -0.45031392145E+01 -0.32957513626E+03  0.34199492595E+03  0.79551433300E+02 0.  0.
          5    1    5    5  501    0  0.10379798745E+02 -0.35738593742E+02 -0.45570966998E+01  0.37786828856E+02  0.47000000000E+01 0. -1.
        -13    1    6    6    0    0 -0.20645971726E+02  0.20189118862E+02 -0.34818059391E+02  0.45234432998E+02  0.00000000000E+00 0.  1.
         14    1    6    6    0    0 -0.23986417139E+02 -0.24692258076E+02 -0.29475707687E+03  0.29676049295E+03  0.00000000000E+00 0. -1.
         -5    1    3    3    0  503  0.82534439383E+01  0.35143826639E+02 -0.42657555700E+02  0.56079987036E+02  0.47000000000E+01 0.  1.
         11    1    4    4    0    0 -0.26877793307E+02  0.11048650974E+02 -0.38251236042E+03  0.38361464301E+03  0.00000000000E+00 0. -1.
        -12    1    4    4    0    0  0.52876939489E+02 -0.59507446557E+01 -0.48290920619E+03  0.48583194987E+03  0.00000000000E+00 0.  1.
</event>
<event>
12    1  0.8133495E-002  0.2161099E+03  0.7818608E-02  0.1136996E+00
         21   -1    0    0  503  502  0.00000000000E+00  0.00000000000E+00  0.48326570807E+03  0.48326570807E+03  0.00000000000E+00 0. -1.
         21   -1    0    0  501  503 -0.00000000000E+00 -0.00000000000E+00 -0.14060585885E+03  0.14060585885E+03  0.00000000000E+00 0. -1.
          6    2    1    2  501    0 -0.10953266343E+03  0.70281500008E+02 -0.41805897587E+01  0.21521305815E+03  0.17135428055E+03 0.  0.
         24    2    3    3    0    0 -0.60961102764E+02 -0.23474743721E+02 -0.28428224073E+02  0.10677197961E+03  0.79528435565E+02 0.  0.
         -6    2    1    2    0  502  0.10953266343E+03 -0.70281500008E+02  0.34684043898E+03  0.40865850877E+03  0.17252997734E+03 0.  0.
        -24    2    5    5    0    0  0.11948798139E+03 -0.22553540687E+02  0.31633102262E+03  0.35095252171E+03  0.91193841507E+02 0.  0.
          5    1    3    3  501    0 -0.48571560671E+02  0.93756243729E+02  0.24247634314E+02  0.10844107854E+03  0.47000000000E+01 0. -1.
        -11    1    4    4    0    0 -0.56611611615E+02 -0.41951880041E+02  0.24743648980E+01  0.70505016065E+02  0.00000000000E+00 0.  1.
         12    1    4    4    0    0 -0.43494911486E+01  0.18477136320E+02 -0.30902588971E+02  0.36266963548E+02  0.00000000000E+00 0. -1.
         -5    1    5    5    0  502 -0.99553179540E+01 -0.47727959322E+02  0.30509416360E+02  0.57705987065E+02  0.47000000000E+01 0.  1.
         13    1    6    6    0    0 -0.30109667685E+01  0.17940522560E+02  0.76363233379E+02  0.78500138106E+02  0.00000000000E+00 0. -1.
        -14    1    6    6    0    0  0.12249894816E+03 -0.40494063247E+02  0.23996778924E+03  0.27245238360E+03  0.00000000000E+00 0.  1.
</event>
<event>
12    1  0.8133495E-002  0.1767140E+03  0.7818608E-02  0.1171538E+00
         21   -1    0    0  503  502  0.00000000000E+00  0.00000000000E+00  0.43208853266E+03  0.43208853266E+03  0.00000000000E+00 0.  1.
         21   -1    0    0  501  503 -0.00000000000E+00 -0.00000000000E+00 -0.71554013788E+02  0.71554013788E+02  0.00000000000E+00 0.  1.
          6    2    1    2  501    0  0.31821226420E+02  0.22161541752E+02  0.17073665415E+03  0.24572105043E+03  0.17240680141E+03 0.  0.
         24    2    3    3    0    0 -0.34863479694E+02  0.29691369238E+02  0.42866365385E+02  0.10123420300E+03  0.79459417017E+02 0.  0.
         -6    2    1    2    0  502 -0.31821226420E+02 -0.22161541752E+02  0.18979786472E+03  0.25792149602E+03  0.17028371698E+03 0.  0.
        -24    2    5    5    0    0 -0.28629558060E+02  0.51365102250E+02  0.12076769712E+03  0.15690858513E+03  0.81101430925E+02 0.  0.
          5    1    3    3  501    0  0.66684706114E+02 -0.75298274859E+01  0.12787028876E+03  0.14448684743E+03  0.47000000000E+01 0. -1.
        -11    1    4    4    0    0 -0.29375228250E+02  0.51864214528E+02  0.49466317112E+02  0.77457842159E+02  0.00000000000E+00 0.  1.
         12    1    4    4    0    0 -0.54882514436E+01 -0.22172845290E+02 -0.65999517267E+01  0.23776360844E+02  0.00000000000E+00 0. -1.
         -5    1    5    5    0  502 -0.31916683602E+01 -0.73526644002E+02  0.69030167608E+02  0.10101291088E+03  0.47000000000E+01 0.  1.
         11    1    6    6    0    0  0.14989148567E+02 -0.13534884921E+02  0.14022734713E+02  0.24586678780E+02  0.00000000000E+00 0. -1.
        -12    1    6    6    0    0 -0.43618706628E+02  0.64899987171E+02  0.10674496240E+03  0.13232190635E+03  0.00000000000E+00 0.  1.
</event>
<event>
12    1  0.8133495E-002  0.1958633E+03  0.7818608E-02  0.1153423E+00
         21   -1    0    0  503  502  0.00000000000E+00  0.00000000000E+00  0.72479606910E+03  0.72479606910E+03  0.00000000000E+00 0. -1.
         21   -1    0    0  501  503 -0.00000000000E+00 -0.00000000000E+00 -0.57568232692E+02  0.57568232692E+02  0.00000000000E+00 0. -1.
          6    2    1    2  501    0 -0.91126183951E+02 -0.30012727166E+02  0.22093313887E+03  0.29525224168E+03  0.17075622734E+03 0.  0.
         24    2    3    3    0    0 -0.62782751319E+02 -0.83230420865E+02  0.17714447713E+03  0.22058625215E+03  0.80057179816E+02 0.  0.
         -6    2    1    2    0  502  0.91126183951E+02  0.30012727166E+02  0.44629469754E+03  0.48711206011E+03  0.16998369586E+03 0.  0.
        -24    2    5    5    0    0  0.12382580227E+03  0.39498423893E+02  0.30688922986E+03  0.34353205489E+03  0.83308574189E+02 0.  0.
          5    1    3    3  501    0 -0.28343432632E+02  0.53217693699E+02  0.43788661740E+02  0.74665989533E+02  0.47000000000E+01 0. -1.
        -11    1    4    4    0    0  0.15005457449E+02 -0.39378572626E+02  0.55632923528E+02  0.69791531833E+02  0.00000000000E+00 0.  1.
         12    1    4    4    0    0 -0.77788208767E+02 -0.43851848239E+02  0.12151155360E+03  0.15079472032E+03  0.00000000000E+00 0. -1.
         -5    1    5    5    0  502 -0.32699618317E+02 -0.94856967267E+01  0.13940546768E+03  0.14358000522E+03  0.47000000000E+01 0.  1.
         13    1    6    6    0    0  0.10174741509E+03  0.56306568880E+02  0.28619011158E+03  0.30891381669E+03  0.00000000000E+00 0. -1.
        -14    1    6    6    0    0  0.22078387176E+02 -0.16808144987E+02  0.20699118282E+02  0.34618238197E+02  0.00000000000E+00 0.  1.
</event>
<event>
12    1  0.8133495E-002  0.1843835E+03  0.7818608E-02  0.1164357E+00
         21   -1    0    0  501  502  0.00000000000E+00  0.00000000000E+00  0.14983452902E+04  0.14983452902E+04  0.00000000000E+00 0. -1.
         21   -1    0    0  502  503 -0.00000000000E+00 -0.00000000000E+00 -0.29446371937E+02  0.29446371937E+02  0.00000000000E+00 0. -1.
         -6    2    1    2    0  503 -0.52445462524E+02  0.52648355524E+01  0.35375772872E+03  0.39750977275E+03  0.17346827885E+03 0.  0.
        -24    2    3    3    0    0  0.16574685636E+01 -0.58381318717E+02  0.15773717717E+03  0.18438045346E+03  0.75524889818E+02 0.  0.
          6    2    1    2  501    0  0.52445462524E+02 -0.52648355524E+01  0.11151411895E+04  0.11302818894E+04  0.17668908240E+03 0.  0.
         24    2    5    5    0    0  0.65789941232E+02  0.16030402976E+02  0.36430537835E+03  0.37901092119E+03  0.79659145731E+02 0.  0.
          5    1    5    5  501    0 -0.13344478708E+02 -0.21295238528E+02  0.75083581118E+03  0.75127096819E+03  0.47000000000E+01 0. -1.
        -13    1    6    6    0    0  0.40279213651E+02  0.47200303562E+02  0.25728572670E+03  0.26466248104E+03  0.00000000000E+00 0.  1.
         14    1    6    6    0    0  0.25510727581E+02 -0.31169900586E+02  0.10701965165E+03  0.11434844015E+03  0.00000000000E+00 0. -1.
         -5    1    3    3    0  503 -0.54102931088E+02  0.63646154270E+02  0.19602055156E+03  0.21312931929E+03  0.47000000000E+01 0.  1.
         13    1    4    4    0    0  0.22046074366E+02  0.64633160161E+01  0.18722292605E+02  0.29636600501E+02  0.00000000000E+00 0. -1.
        -14    1    4    4    0    0 -0.20388605802E+02 -0.64844634733E+02  0.13901488456E+03  0.15474385296E+03  0.00000000000E+00 0.  1.
</event>
<event>
12    1  0.8133495E-002  0.2037364E+03  0.7818608E-02  0.1146727E+00
         21   -1    0    0  503  502  0.00000000000E+00  0.00000000000E+00  0.19202689798E+04  0.19202689798E+04  0.00000000000E+00 0. -1.
         21   -1    0    0  501  503 -0.00000000000E+00 -0.00000000000E+00 -0.22515924648E+02  0.22515924648E+02  0.00000000000E+00 0. -1.
          6    2    1    2  501    0 -0.73680363751E+02  0.77773181114E+02  0.74791996665E+03  0.77504150786E+03  0.17270668398E+03 0.  0.
         24    2    3    3    0    0 -0.55189143763E+02 -0.15953001284E+02  0.27225971728E+03  0.28985980446E+03  0.81197369104E+02 0.  0.
         -6    2    1    2    0  502  0.73680363751E+02 -0.77773181114E+02  0.11498330885E+04  0.11677433966E+04  0.17329467723E+03 0.  0.
        -24    2    5    5    0    0  0.85533562888E+02  0.77647727274E+01  0.61651821713E+03  0.62746191263E+03  0.78977577048E+02 0.  0.
          5    1    3    3  501    0 -0.18491219989E+02  0.93726182398E+02  0.47566024937E+03  0.48518170340E+03  0.47000000000E+01 0. -1.
        -11    1    4    4    0    0 -0.43216689465E+00 -0.12148799507E+02  0.19338098048E+03  0.19376269947E+03  0.00000000000E+00 0.  1.
         12    1    4    4    0    0 -0.54756976868E+02 -0.38042017768E+01  0.78878736799E+02  0.96097104982E+02  0.00000000000E+00 0. -1.
         -5    1    5    5    0  502 -0.11853199136E+02 -0.85537953842E+02  0.53331487138E+03  0.54028148397E+03  0.47000000000E+01 0.  1.
         11    1    6    6    0    0  0.47962186613E+02 -0.33964282377E+02  0.26085187306E+03  0.26739043270E+03  0.00000000000E+00 0. -1.
        -12    1    6    6    0    0  0.37571376274E+02  0.41729055104E+02  0.35566634407E+03  0.36007147993E+03  0.00000000000E+00 0.  1.
</event>
<event>
12    1  0.8133495E-002  0.1902976E+03  0.7818608E-02  0.1158643E+00
         21   -1    0    0  501  502  0.00000000000E+00  0.00000000000E+00  0.79813931724E+03  0.79813931724E+03  0.00000000000E+00 0. -1.
         21   -1    0    0  502  503 -0.00000000000E+00 -0.00000000000E+00 -0.47560654958E+02  0.47560654958E+02  0.00000000000E+00 0. -1.
         -6    2    1    2    0  503 -0.57287501855E+02  0.53323424459E+02  0.47345445304E+03  0.50952890526E+03  0.17127562794E+03 0.  0.
        -24    2    3    3    0    0  0.82999185178E+01  0.64242895926E+02  0.38687128672E+03  0.40026006588E+03  0.79641004074E+02 0.  0.
          6    2    1    2  501    0  0.57287501855E+02 -0.53323424459E+02  0.27712420924E+03  0.33617106693E+03  0.17345867932E+03 0.  0.
         24    2    5    5    0    0  0.50056241706E+02  0.23225334391E+02  0.23357222266E+03  0.24767886875E+03  0.61186561710E+02 0.  0.
          5    1    5    5  501    0  0.72312601495E+01 -0.76548758850E+02  0.43551986573E+02  0.88492198183E+02  0.47000000000E+01 0. -1.
        -11    1    6    6    0    0  0.25180750526E+02 -0.15148624213E+02  0.14553849863E+03  0.14847560606E+03  0.00000000000E+00 0.  1.
         12    1    6    6    0    0  0.24875491179E+02  0.38373958604E+02  0.88033724039E+02  0.99203262691E+02  0.00000000000E+00 0. -1.
         -5    1    3    3    0  503 -0.65587420373E+02 -0.10919471467E+02  0.86583166325E+02  0.10926883938E+03  0.47000000000E+01 0.  1.
         11    1    4    4    0    0 -0.27692803214E+01  0.80458810763E+02  0.26984871211E+03  0.28160187600E+03  0.00000000000E+00 0. -1.
        -12    1    4    4    0    0  0.11069198839E+02 -0.16215914838E+02  0.11702257461E+03  0.11865818988E+03  0.00000000000E+00 0.  1.
</event>
<event>
12    1  0.8133495E-002  0.1724463E+03  0.7818608E-02  0.1175592E+00
         21   -1    0    0  501  502  0.00000000000E+00  0.00000000000E+00  0.41400464040E+02  0.41400464040E+02  0.00000000000E+00 0.  1.
         21   -1    0    0  502  503 -0.00000000000E+00 -0.00000000000E+00 -0.74553952607E+03  0.74553952607E+03  0.00000000000E+00 0.  1.
         -6    2    1    2    0  503 -0.61685984856E-01  0.66018879964E+01 -0.27205073465E+03  0.32210141634E+03  0.17231985217E+03 0.  0.
        -24    2    3    3    0    0  0.10135111392E+02  0.66664820245E+02 -0.21132652942E+03  0.23595590219E+03  0.80432375321E+02 0.  0.
          6    2    1    2  501    0  0.61685984856E-01 -0.66018879964E+01 -0.43208832737E+03  0.46483857377E+03  0.17126292150E+03 0.  0.
         24    2    5    5    0    0 -0.49081029631E+02  0.29287309026E+02 -0.17421281208E+03  0.19983873915E+03  0.79490400880E+02 0.  0.
          5    1    5    5  501    0  0.49142715615E+02 -0.35889197022E+02 -0.25787551529E+03  0.26499983462E+03  0.47000000000E+01 0. -1.
        -13    1    6    6    0    0 -0.11434463713E+02  0.11187635640E+02 -0.15140177259E+03  0.15224456277E+03  0.00000000000E+00 0.  1.
         14    1    6    6    0    0 -0.37646565918E+02  0.18099673386E+02 -0.22811039493E+02  0.47594176375E+02  0.00000000000E+00 0. -1.
         -5    1    3    3    0  503 -0.10196797377E+02 -0.60062932249E+02 -0.60724205237E+02  0.86145514153E+02  0.47000000000E+01 0.  1.
         13    1    4    4    0    0 -0.24592904307E+02  0.56927836069E+02 -0.17077430288E+03  0.18168503511E+03  0.00000000000E+00 0. -1.
        -14    1    4    4    0    0  0.34728015699E+02  0.97369841758E+01 -0.40552226540E+02  0.54270867071E+02  0.00000000000E+00 0.  1.
</event>
<event>
12    1  0.8133495E-002  0.2507337E+03  0.7818608E-02  0.1115560E+00
         21   -1    0    0  503  502  0.00000000000E+00  0.00000000000E+00  0.23261442400E+02  0.23261442400E+02  0.00000000000E+00 0. -1.
         21   -1    0    0  501  503 -0.00000000000E+00 -0.00000000000E+00 -0.25594176348E+04  0.25594176348E+04  0.00000000000E+00 0.  1.
          6    2    1    2  501    0  0.14112897380E+03 -0.72715206017E+02 -0.10780436514E+04  0.11031657896E+04  0.17202254687E+03 0.  0.
         24    2    3    3    0    0  0.16779495203E+03 -0.59930713225E+02 -0.80457939464E+03  0.82806706665E+03  0.81241789046E+02 0.  0.
         -6    2    1    2    0  502 -0.14112897380E+03  0.72715206017E+02 -0.14581125410E+04  0.14795132876E+04  0.19406828043E+03 0.  0.
        -24    2    5    5    0    0 -0.97442239601E+02  0.76206550437E+02 -0.13936719350E+04  0.14014402325E+04  0.80067686642E+02 0.  0.
          5    1    3    3  501    0 -0.26665978229E+02 -0.12784492792E+02 -0.27346425673E+03  0.27509872294E+03  0.47000000000E+01 0. -1.
        -13    1    4    4    0    0  0.93928815015E+02 -0.19502675177E+01 -0.51930503958E+03  0.52773492396E+03  0.00000000000E+00 0.  1.
         14    1    4    4    0    0  0.73866137016E+02 -0.57980445707E+02 -0.28527435506E+03  0.30033214269E+03  0.00000000000E+00 0. -1.
         -5    1    5    5    0  502 -0.43686734202E+02 -0.34913444192E+01 -0.64440606062E+02  0.78073055152E+02  0.47000000000E+01 0.  1.
         11    1    6    6    0    0  0.90682107577E+01 -0.32512039362E+01 -0.35524520527E+02  0.36807530915E+02  0.00000000000E+00 0. -1.
        -12    1    6    6    0    0 -0.10651045036E+03  0.79457754373E+02 -0.13581474144E+04  0.13646327015E+04  0.00000000000E+00 0.  1.
</event>
<event>
12    1  0.8133495E-002  0.2427471E+03  0.7818608E-02  0.1118109E+00
         21   -1    0    0  501  502  0.00000000000E+00  0.00000000000E+00  0.35640024070E+03  0.35640024070E+03  0.00000000000E+00 0.  1.
         21   -1    0    0  502  503 -0.00000000000E+00 -0.00000000000E+00 -0.17677355065E+03  0.17677355065E+03  0.00000000000E+00 0. -1.
         -6    2    1    2    0  503 -0.14675051806E+03 -0.87992295400E+02  0.20256315842E+02  0.24278598749E+03  0.17104490284E+03 0.  0.
        -24    2    3    3    0    0 -0.16595375120E+03 -0.42628583467E+02  0.32858669280E+02  0.19172191171E+03  0.79496890627E+02 0.  0.
          6    2    1    2  501    0  0.14675051806E+03  0.87992295400E+02  0.15937037421E+03  0.29038780386E+03  0.17218537061E+03 0.  0.
         24    2    5    5    0    0  0.13794966293E+03  0.94451016996E+02  0.69187044716E+02  0.19942466267E+03  0.83858480867E+02 0.  0.
          5    1    5    5  501    0  0.88008551379E+01 -0.64587215968E+01  0.90183329492E+02  0.90963141184E+02  0.47000000000E+01 0. -1.
        -11    1    6    6    0    0  0.66015556875E+02  0.79704532330E+02  0.79271197390E+01  0.10379646165E+03  0.00000000000E+00 0.  1.
         12    1    6    6    0    0  0.71934106050E+02  0.14746484667E+02  0.61259924977E+02  0.95628201026E+02  0.00000000000E+00 0. -1.
         -5    1    3    3    0  503  0.19203233133E+02 -0.45363711932E+02 -0.12602353438E+02  0.51064075779E+02  0.47000000000E+01 0.  1.
         13    1    4    4    0    0 -0.70362458972E+02 -0.47450332048E+02 -0.12539268371E+02  0.85788361072E+02  0.00000000000E+00 0. -1.
        -14    1    4    4    0    0 -0.95591292224E+02  0.48217485803E+01  0.45397937651E+02  0.10593355064E+03  0.00000000000E+00 0.  1.
</event>
<event>
12    1  0.8133495E-002  0.1760381E+03  0.7818608E-02  0.1172273E+00
         21   -1    0    0  501  502  0.00000000000E+00  0.00000000000E+00  0.35388912288E+03  0.35388912288E+03  0.00000000000E+00 0. -1.
         21   -1    0    0  502  503 -0.00000000000E+00 -0.00000000000E+00 -0.10691640872E+03  0.10691640872E+03  0.00000000000E+00 0. -1.
         -6    2    1    2    0  503  0.13143482886E+02 -0.18829215011E+02  0.23273797872E+02  0.17756990380E+03  0.17453398119E+03 0.  0.
        -24    2    3    3    0    0  0.57579911243E+02 -0.49112008874E+02  0.57687973412E+02  0.11355373985E+03  0.61960583946E+02 0.  0.
          6    2    1    2  501    0 -0.13143482886E+02  0.18829215011E+02  0.22369891629E+03  0.28323562780E+03  0.17220315102E+03 0.  0.
         24    2    5    5    0    0  0.26413124158E+02 -0.41171205367E+02  0.64833737486E+02  0.10880796186E+03  0.72408823834E+02 0.  0.
          5    1    5    5  501    0 -0.39556607043E+02  0.60000420377E+02  0.15886517881E+03  0.17442766594E+03  0.47000000000E+01 0. -1.
        -13    1    6    6    0    0  0.34860045695E+02  0.64484405283E+01  0.43041887448E+02  0.55762077133E+02  0.00000000000E+00 0.  1.
         14    1    6    6    0    0 -0.84469215370E+01 -0.47619645895E+02  0.21791850038E+02  0.53045884729E+02  0.00000000000E+00 0. -1.
         -5    1    3    3    0  503 -0.44436428357E+02  0.30282793863E+02 -0.34414175541E+02  0.64016163954E+02  0.47000000000E+01 0.  1.
         13    1    4    4    0    0  0.19060548082E+02 -0.15329323000E+01  0.47878535081E+02  0.51555877416E+02  0.00000000000E+00 0. -1.
        -14    1    4    4    0    0  0.38519363161E+02 -0.47579076574E+02  0.98094383314E+01  0.61997862433E+02  0.00000000000E+00 0.  1.
</event>
<event>
12    1  0.8133495E-002  0.1884100E+03  0.7818608E-02  0.1160802E+00
         21   -1    0    0  501  502  0.00000000000E+00  0.00000000000E+00  0.45606537912E+02  0.45606537912E+02  0.00000000000E+00 0.  1.
         21   -1    0    0  502  503 -0.00000000000E+00 -0.00000000000E+00 -0.17367229007E+04  0.17367229007E+04  0.00000000000E+00 0.  1.
         -6    2    1    2    0  503  0.63699719154E+02 -0.13103094560E+02 -0.15169361002E+04  0.15285919901E+04  0.17683041231E+03 0.  0.
        -24    2    3    3    0    0 -0.29501099053E+02 -0.24214857335E+01 -0.48284275500E+03  0.49024155507E+03  0.79520298191E+02 0.  0.
          6    2    1    2  501    0 -0.63699719154E+02  0.13103094560E+02 -0.17418026257E+03  0.25373744852E+03  0.17266900013E+03 0.  0.
         24    2    5    5    0    0  0.15941436875E+02  0.60220442916E+01 -0.25582322581E+02  0.84928998568E+02  0.79171239362E+02 0.  0.
          5    1    5    5  501    0 -0.79641156029E+02  0.70810502687E+01 -0.14859793999E+03  0.16880844995E+03  0.47000000000E+01 0. -1.
        -13    1    6    6    0    0 -0.30507361690E+02 -0.87748165993E+01 -0.14688794632E+02  0.34977953219E+02  0.00000000000E+00 0.  1.
         14    1    6    6    0    0  0.46448798565E+02  0.14796860891E+02 -0.10893527949E+02  0.49951045350E+02  0.00000000000E+00 0. -1.
         -5    1    3    3    0  503  0.93200818207E+02 -0.10681608827E+02 -0.10340933452E+04  0.10383504350E+04  0.47000000000E+01 0.  1.
         13    1    4    4    0    0  0.12059650260E+02 -0.20242987645E+02 -0.52694041381E+02  0.57722402152E+02  0.00000000000E+00 0. -1.
        -14    1    4    4    0    0 -0.41560749313E+02  0.17821501911E+02 -0.43014871362E+03  0.43251915292E+03  0.00000000000E+00 0.  1.
</event>
<event>
12    1  0.8133495E-002  0.2418168E+03  0.7818608E-02  0.1118592E+00
         21   -1    0    0  501  502  0.00000000000E+00  0.00000000000E+00  0.12128908098E+03  0.12128908098E+03  0.00000000000E+00 0.  1.
         21   -1    0    0  502  503 -0.00000000000E+00 -0.00000000000E+00 -0.54212536236E+03  0.54212536236E+03  0.00000000000E+00 0.  1.
         -6    2    1    2    0  503  0.16393747438E+03  0.50789999776E+02 -0.32081060036E+03  0.40172660648E+03  0.17032235750E+03 0.  0.
        -24    2    3    3    0    0  0.85442420207E+02  0.90849616070E+02 -0.15384573094E+03  0.21287321358E+03  0.78054059606E+02 0.  0.
          6    2    1    2  501    0 -0.16393747438E+03 -0.50789999776E+02 -0.10002568102E+03  0.26168783687E+03  0.17035336075E+03 0.  0.
         24    2    5    5    0    0 -0.14839954117E+03 -0.74777104084E+02 -0.31260166584E+02  0.18707152151E+03  0.80028226453E+02 0.  0.
          5    1    5    5  501    0 -0.15537933201E+02  0.23987104308E+02 -0.68765514439E+02  0.74616315356E+02  0.47000000000E+01 0. -1.
        -13    1    6    6    0    0 -0.41772523494E+02 -0.22021023407E+02  0.27225700271E+02  0.54507870498E+02  0.00000000000E+00 0.  1.
         14    1    6    6    0    0 -0.10662701768E+03 -0.52756080677E+02 -0.58485866856E+02  0.13256365101E+03  0.00000000000E+00 0. -1.
         -5    1    3    3    0  503  0.78495054168E+02 -0.40059616294E+02 -0.16696486943E+03  0.18885339290E+03  0.47000000000E+01 0.  1.
         13    1    4    4    0    0  0.37492964853E+02  0.87133556342E+02 -0.76804026971E+02  0.12205260183E+03  0.00000000000E+00 0. -1.
        -14    1    4    4    0    0  0.47949455354E+02  0.37160597276E+01 -0.77041703965E+02  0.90820611749E+02  0.00000000000E+00 0.  1.
</event>
<event>
12    1  0.8133495E-002  0.1833854E+03  0.7818608E-02  0.1164828E+00
         21   -1    0    0  503  502  0.00000000000E+00  0.00000000000E+00  0.14578374371E+03  0.14578374371E+03  0.00000000000E+00 0.  1.
         21   -1    0    0  501  503 -0.00000000000E+00 -0.00000000000E+00 -0.22995891365E+03  0.22995891365E+03  0.00000000000E+00 0.  1.
          6    2    1    2  501    0 -0.60967957946E+01 -0.59189962651E+02 -0.52293861857E+02  0.19069574926E+03  0.17346353565E+03 0.  0.
         24    2    3    3    0    0  0.61972583878E+02 -0.18907209911E+02 -0.38764455948E+02  0.11031369006E+03  0.80426012144E+02 0.  0.
         -6    2    1    2    0  502  0.60967957946E+01  0.59189962651E+02 -0.31881308089E+02  0.18504690810E+03  0.17229427673E+03 0.  0.
        -24    2    5    5    0    0  0.46701950084E+02  0.77626929682E+02 -0.56819280121E+02  0.13373713557E+03  0.80313003199E+02 0.  0.
          5    1    3    3  501    0 -0.68069379673E+02 -0.40282752739E+02 -0.13529405909E+02  0.80382059202E+02  0.47000000000E+01 0. -1.
        -11    1    4    4    0    0  0.34391957394E+02 -0.34337351338E+02 -0.56136173120E+02  0.74250456988E+02  0.00000000000E+00 0.  1.
         12    1    4    4    0    0  0.27580626485E+02  0.15430141427E+02  0.17371717173E+02  0.36063233067E+02  0.00000000000E+00 0. -1.
         -5    1    5    5    0  502 -0.40605154289E+02 -0.18436967031E+02  0.24937972032E+02  0.51309772532E+02  0.47000000000E+01 0.  1.
         11    1    6    6    0    0  0.27251719413E+02 -0.51141147863E+01  0.55946745246E+01  0.28286229230E+02  0.00000000000E+00 0. -1.
        -12    1    6    6    0    0  0.19450230671E+02  0.82741044469E+02 -0.62413954646E+02  0.10545090634E+03  0.00000000000E+00 0.  1.
</event>
<event>
12    1  0.8133495E-002  0.1819632E+03  0.7818608E-02  0.1165996E+00
         21   -1    0    0  503  502  0.00000000000E+00  0.00000000000E+00  0.73383250871E+03  0.73383250871E+03  0.00000000000E+00 0. -1.
         21   -1    0    0  501  503 -0.00000000000E+00 -0.00000000000E+00 -0.70125680908E+02  0.70125680908E+02  0.00000000000E+00 0. -1.
          6    2    1    2  501    0 -0.32791250314E+02  0.50634489890E+02  0.57209279262E+03  0.60023350831E+03  0.17132128726E+03 0.  0.
         24    2    3    3    0    0  0.22171078028E+02  0.23560205632E+02  0.15215609609E+03  0.17582475075E+03  0.81952580238E+02 0.  0.
         -6    2    1    2    0  502  0.32791250314E+02 -0.50634489890E+02  0.91614035186E+02  0.20372468131E+03  0.17167264391E+03 0.  0.
        -24    2    5    5    0    0 -0.31392835884E+02 -0.71567449725E+02  0.37797403225E+02  0.11726020534E+03  0.78828307490E+02 0.  0.
          5    1    3    3  501    0 -0.54962328342E+02  0.27074284258E+02  0.41993669653E+03  0.42440875756E+03  0.47000000000E+01 0. -1.
        -13    1    4    4    0    0 -0.38559464403E+01  0.78245139651E+01 -0.85805964996E+01  0.12235929798E+02  0.00000000000E+00 0.  1.
         14    1    4    4    0    0  0.26027024469E+02  0.15735691667E+02  0.16073669259E+03  0.16358882095E+03  0.00000000000E+00 0. -1.
         -5    1    5    5    0  502  0.64184086197E+02  0.20932959835E+02  0.53816631960E+02  0.86464475965E+02  0.47000000000E+01 0.  1.
         11    1    6    6    0    0 -0.20992549904E+02 -0.33073774540E+02  0.59974101633E+02  0.71634171877E+02  0.00000000000E+00 0. -1.
        -12    1    6    6    0    0 -0.10400285980E+02 -0.38493675185E+02 -0.22176698407E+02  0.45626033467E+02  0.00000000000E+00 0.  1.
</event>
<event>
12    1  0.8133495E-002  0.1904849E+03  0.7818608E-02  0.1158103E+00
         21   -1    0    0  501  502  0.00000000000E+00  0.00000000000E+00  0.69347087207E+03  0.69347087207E+03  0.00000000000E+00 0.  1.
         21   -1    0    0  502  503 -0.00000000000E+00 -0.00000000000E+00 -0.52286818745E+02  0.52286818745E+02  0.00000000000E+00 0.  1.
         -6    2    1    2    0  503 -0.15309346146E+02 -0.79036657105E+02  0.33339179728E+03  0.38397211472E+03  0.17263639577E+03 0.  0.
        -24    2    3    3    0    0  0.31496730961E+02 -0.43123270696E+02  0.30225749024E+03  0.31709898669E+03  0.79627359751E+02 0.  0.
          6    2    1    2  501    0  0.15309346146E+02  0.79036657105E+02  0.30779225604E+03  0.36178557609E+03  0.17225434956E+03 0.  0.
         24    2    5    5    0    0  0.13611544000E+02 -0.22827336644E+02  0.17434254279E+03  0.19382703441E+03  0.80419124685E+02 0.  0.
          5    1    5    5  501    0  0.16978021455E+01  0.10186399375E+03  0.13344971326E+03  0.16795854168E+03  0.47000000000E+01 0. -1.
        -11    1    6    6    0    0  0.44916969041E+02  0.14101023579E+01  0.86601925031E+02  0.97567494155E+02  0.00000000000E+00 0.  1.
         12    1    6    6    0    0 -0.31305425041E+02 -0.24237439001E+02  0.87740617756E+02  0.96259540257E+02  0.00000000000E+00 0. -1.
         -5    1    3    3    0  503 -0.46806077107E+02 -0.35913386409E+02  0.31134307047E+02  0.66873128032E+02  0.47000000000E+01 0.  1.
         11    1    4    4    0    0  0.29222992305E+02 -0.70506161227E+01  0.30060301642E+02  0.42512541700E+02  0.00000000000E+00 0. -1.
        -12    1    4    4    0    0  0.22737386567E+01 -0.36072654573E+02  0.27219718859E+03  0.27458644499E+03  0.00000000000E+00 0.  1.
</event>
<event>
12    1  0.8133495E-002  0.1751765E+03  0.7818608E-02  0.1172755E+00
         21   -1    0    0  503  502  0.00000000000E+00  0.00000000000E+00  0.46232741831E+03  0.46232741831E+03  0.00000000000E+00 0. -1.
         21   -1    0    0  501  503 -0.00000000000E+00 -0.00000000000E+00 -0.12640822404E+03  0.12640822404E+03  0.00000000000E+00 0. -1.
          6    2    1    2  501    0  0.34703664117E+02 -0.18841444565E+02 -0.35211240943E+02  0.17868027785E+03  0.17066770599E+03 0.  0.
         24    2    3    3    0    0  0.78482072083E+02 -0.29395072654E+02  0.86416947470E+01  0.11564776212E+03  0.79222598173E+02 0.  0.
         -6    2    1    2    0  502 -0.34703664117E+02  0.18841444565E+02  0.37113043521E+03  0.41005536450E+03  0.16984774854E+03 0.  0.
        -24    2    5    5    0    0  0.31780693735E+02 -0.14141867655E+02  0.27394843786E+03  0.28768502768E+03  0.80653106783E+02 0.  0.
          5    1    3    3  501    0 -0.43778407966E+02  0.10553628089E+02 -0.43852935690E+02  0.63032515724E+02  0.47000000000E+01 0. -1.
        -13    1    4    4    0    0  0.51458452645E+02 -0.27816036467E+02  0.42495584845E+02  0.72301998345E+02  0.00000000000E+00 0.  1.
         14    1    4    4    0    0  0.27023619438E+02 -0.15790361865E+01 -0.33853890097E+02  0.43345763778E+02  0.00000000000E+00 0. -1.
         -5    1    5    5    0  502 -0.66484357853E+02  0.32983312219E+02  0.97181997350E+02  0.12237033682E+03  0.47000000000E+01 0.  1.
         13    1    6    6    0    0  0.31573133822E+01  0.56587599587E+01  0.23639289331E+03  0.23648169104E+03  0.00000000000E+00 0. -1.
        -14    1    6    6    0    0  0.28623380353E+02 -0.19800627613E+02  0.37555544550E+02  0.51203336641E+02  0.00000000000E+00 0.  1.
</event>
<event>
12    1  0.8133495E-002  0.1768351E+03  0.7818608E-02  0.1171876E+00
         21   -1    0    0  503  502  0.00000000000E+00  0.00000000000E+00  0.10367887784E+04  0.10367887784E+04  0.00000000000E+00 0. -1.
         21   -1    0    0  501  503 -0.00000000000E+00 -0.00000000000E+00 -0.33067260548E+02  0.33067260548E+02  0.00000000000E+00 0. -1.
          6    2    1    2  501    0  0.30682147086E+02 -0.11120006875E+02  0.68248710827E+03  0.70502432777E+03  0.17379758657E+03 0.  0.
         24    2    3    3    0    0  0.55085192927E+02  0.47963162904E+02  0.36483354859E+03  0.38096846288E+03  0.81845024621E+02 0.  0.
         -6    2    1    2    0  502 -0.30682147086E+02  0.11120006875E+02  0.32123440960E+03  0.36483171120E+03  0.16983987423E+03 0.  0.
        -24    2    5    5    0    0 -0.69369392664E+02 -0.10546375304E+02  0.97392237323E+02  0.13659161135E+03  0.65181912590E+02 0.  0.
          5    1    3    3  501    0 -0.24403045842E+02 -0.59083169779E+02  0.31765355968E+03  0.32405586490E+03  0.47000000000E+01 0. -1.
        -11    1    4    4    0    0  0.42629718275E+01  0.48285053524E+02  0.97938119796E+02  0.10927714597E+03  0.00000000000E+00 0.  1.
         12    1    4    4    0    0  0.50822221100E+02 -0.32189061953E+00  0.26689542879E+03  0.27169131691E+03  0.00000000000E+00 0. -1.
         -5    1    5    5    0  502  0.38687245579E+02  0.21666382179E+02  0.22384217228E+03  0.22824009985E+03  0.47000000000E+01 0.  1.
         11    1    6    6    0    0 -0.18953017196E+02  0.24220121862E+02  0.15807780675E+02  0.34579142466E+02  0.00000000000E+00 0. -1.
        -12    1    6    6    0    0 -0.50416375468E+02 -0.34766497166E+02  0.81584456648E+02  0.10201246888E+03  0.00000000000E+00 0.  1.
</event>
<event>
12    1  0.8133495E-002  0.1752004E+03  0.7818608E-02  0.1172944E+00
         21   -1    0    0  503  502  0.00000000000E+00  0.00000000000E+00  0.14842991202E+03  0.14842991202E+03  0.00000000000E+00 0. -1.
         21   -1    0    0  501  503 -0.00000000000E+00 -0.00000000000E+00 -0.37838969829E+03  0.37838969829E+03  0.00000000000E+00 0. -1.
          6    2    1    2  501    0 -0.22234163252E+02  0.62159375583E+01 -0.29365020755E+03  0.34194386869E+03  0.17367259153E+03 0.  0.
         24    2    3    3    0    0 -0.32546370050E+02  0.32106432034E+01 -0.31003561819E+03  0.32179578975E+03  0.79755070791E+02 0.  0.
         -6    2    1    2    0  502  0.22234163252E+02 -0.62159375583E+01  0.63690421276E+02  0.18487574162E+03  0.17201620325E+03 0.  0.
        -24    2    5    5    0    0 -0.53632214751E+02  0.10921527726E+02  0.48389757634E+02  0.10546793133E+03  0.76067218085E+02 0.  0.
          5    1    3    3  501    0  0.10312206798E+02  0.30052943548E+01  0.16385410645E+02  0.20148078946E+02  0.47000000000E+01 0. -1.
        -11    1    4    4    0    0 -0.37347351690E+02  0.17024499389E+02 -0.68769452486E+02  0.80086801990E+02  0.00000000000E+00 0.  1.
         12    1    4    4    0    0  0.48009816400E+01 -0.13813856185E+02 -0.24126616571E+03  0.24170898776E+03  0.00000000000E+00 0. -1.
         -5    1    5    5    0  502  0.75866378003E+02 -0.17137465284E+02  0.15300663641E+02  0.79407810293E+02  0.47000000000E+01 0.  1.
         11    1    6    6    0    0 -0.16019303323E+02  0.37212061700E+02  0.25327238984E+01  0.40592737100E+02  0.00000000000E+00 0. -1.
        -12    1    6    6    0    0 -0.37612911428E+02 -0.26290533974E+02  0.45857033736E+02  0.64875194226E+02  0.00000000000E+00 0.  1.
</event>
<event>
12    1  0.8133495E-002  0.2339823E+03  0.7818608E-02  0.1123904E+00
         21   -1    0    0  501  502  0.00000000000E+00  0.00000000000E+00  0.69632199566E+03  0.69632199566E+03  0.00000000000E+00 0. -1.
         21   -1    0    0  502  503 -0.00000000000E+00 -0.00000000000E+00 -0.13493530894E+03  0.13493530894E+03  0.00000000000E+00 0. -1.
         -6    2    1    2    0  503  0.14072746574E+03 -0.72284032920E+02  0.12100380438E+02  0.23429500036E+03  0.17239062317E+03 0.  0.
        -24    2    3    3    0    0  0.93381924132E+02  0.14783722043E+02  0.41829625667E+02  0.13071743384E+03  0.79991172852E+02 0.  0.
          6    2    1    2  501    0 -0.14072746574E+03  0.72284032920E+02  0.54928630629E+03  0.59696230424E+03  0.17210271750E+03 0.  0.
         24    2    5    5    0    0 -0.55504457901E+01  0.58047294166E+02  0.23225089023E+03  0.25198541155E+03  0.78459389567E+02 0.  0.
          5    1    5    5  501    0 -0.13517701995E+03  0.14236738754E+02  0.31703541606E+03  0.34497689269E+03  0.47000000000E+01 0. -1.
        -11    1    6    6    0    0 -0.35893513229E+02  0.56946165093E+02  0.16465495487E+03  0.17788328807E+03  0.00000000000E+00 0.  1.
         12    1    6    6    0    0  0.30343067439E+02  0.11011290730E+01  0.67595935361E+02  0.74102123480E+02  0.00000000000E+00 0. -1.
         -5    1    3    3    0  503  0.47345541612E+02 -0.87067754963E+02 -0.29729245229E+02  0.10357756652E+03  0.47000000000E+01 0.  1.
         11    1    4    4    0    0  0.82450514791E+02  0.25965819773E+02  0.40926591589E+00  0.86443499954E+02  0.00000000000E+00 0. -1.
        -12    1    4    4    0    0  0.10931409341E+02 -0.11182097730E+02  0.41420359751E+02  0.44273933886E+02  0.00000000000E+00 0.  1.
</event>
<event>
12    1  0.8133495E-002  0.1903696E+03  0.7818608E-02  0.1162370E+00
         21   -1    0    0  503  502  0.00000000000E+00  0.00000000000E+00  0.67339661594E+03  0.67339661594E+03  0.00000000000E+00 0. -1.
         21   -1    0    0  501  503 -0.00000000000E+00 -0.00000000000E+00 -0.74511353537E+02  0.74511353537E+02  0.00000000000E+00 0. -1.
          6    2    1    2  501    0  0.73254913165E+02 -0.25379165407E+02  0.89969480518E+02  0.21055895862E+03  0.17386829294E+03 0.  0.
         24    2    3    3    0    0 -0.18328202540E+02  0.64750339680E+01  0.79583391787E+02  0.11292639264E+03  0.77723901303E+02 0.  0.
         -6    2    1    2    0  502 -0.73254913165E+02  0.25379165407E+02  0.50891578188E+03  0.53734901085E+03  0.15407239233E+03 0.  0.
        -24    2    5    5    0    0 -0.26324868280E+02  0.37229366071E+02  0.17198617384E+03  0.19692793756E+03  0.84393982078E+02 0.  0.
          5    1    3    3  501    0  0.91583115705E+02 -0.31854199375E+02  0.10386088731E+02  0.97632565977E+02  0.47000000000E+01 0. -1.
        -13    1    4    4    0    0 -0.46302691328E+02 -0.10019244010E+02  0.42630064107E+02  0.63731050835E+02  0.00000000000E+00 0.  1.
         14    1    4    4    0    0  0.27974488788E+02  0.16494277978E+02  0.36953327680E+02  0.49195341808E+02  0.00000000000E+00 0. -1.
         -5    1    5    5    0  502 -0.46930044885E+02 -0.11850200665E+02  0.33692960804E+03  0.34042107330E+03  0.47000000000E+01 0.  1.
         11    1    6    6    0    0  0.19185936836E+02  0.34481423281E+02  0.12655279365E+03  0.13256197911E+03  0.00000000000E+00 0. -1.
        -12    1    6    6    0    0 -0.45510805116E+02  0.27479427901E+01  0.45433380184E+02  0.64365958447E+02  0.00000000000E+00 0.  1.
</event>
<event>
12    1  0.8133495E-002  0.2306699E+03  0.7818608E-02  0.1126610E+00
         21   -1    0    0  503  502  0.00000000000E+00  0.00000000000E+00  0.10888020775E+03  0.10888020775E+03  0.00000000000E+00 0.  1.
         21   -1    0    0  501  503 -0.00000000000E+00 -0.00000000000E+00 -0.50404144195E+03  0.50404144195E+03  0.00000000000E+00 0. -1.
          6    2    1    2  501    0 -0.20370931413E+02  0.15200417822E+03 -0.25856156790E+03  0.34483943464E+03  0.16893758091E+03 0.  0.
         24    2    3    3    0    0 -0.73225397667E+02  0.80698727615E+02 -0.14230669821E+03  0.19849960200E+03  0.85303295001E+02 0.  0.
         -6    2    1    2    0  502  0.20370931413E+02 -0.15200417822E+03 -0.13659966629E+03  0.26808221507E+03  0.17230310549E+03 0.  0.
        -24    2    5    5    0    0  0.61545445100E+02 -0.68139014570E+02 -0.28604333519E+02  0.12520538646E+03  0.80171153066E+02 0.  0.
          5    1    3    3  501    0  0.52854466254E+02  0.71305450602E+02 -0.11625486969E+03  0.14633983264E+03  0.47000000000E+01 0. -1.
        -11    1    4    4    0    0 -0.28576548146E+02  0.23080866703E+02  0.20422019347E+01  0.36790163093E+02  0.00000000000E+00 0.  1.
         12    1    4    4    0    0 -0.44648849521E+02  0.57617860912E+02 -0.14434890015E+03  0.16170943891E+03  0.00000000000E+00 0. -1.
         -5    1    5    5    0  502 -0.41174513687E+02 -0.83865163647E+02 -0.10799533277E+03  0.14287682860E+03  0.47000000000E+01 0.  1.
         11    1    6    6    0    0  0.48863385250E+00 -0.60326658037E+02 -0.14996040773E+02  0.62164504919E+02  0.00000000000E+00 0. -1.
        -12    1    6    6    0    0  0.61056811248E+02 -0.78123565333E+01 -0.13608292745E+02  0.63040881544E+02  0.00000000000E+00 0.  1.
</event>
<event>
12    1  0.8133495E-002  0.2809740E+03  0.7818608E-02  0.1095249E+00
         21   -1    0    0  501  502  0.00000000000E+00  0.00000000000E+00  0.22213997497E+03  0.22213997497E+03  0.00000000000E+00 0.  1.
         21   -1    0    0  502  503 -0.00000000000E+00 -0.00000000000E+00 -0.14235017818E+04  0.14235017818E+04  0.00000000000E+00 0. -1.
         -6    2    1    2    0  503  0.21030430202E+03 -0.52518167606E+02 -0.13135299849E+04  0.13431056906E+04  0.17772399226E+03 0.  0.
        -24    2    3    3    0    0  0.49798450271E+02 -0.32496130262E+02 -0.75875894917E+03  0.76521642564E+03  0.79404980972E+02 0.  0.
          6    2    1    2  501    0 -0.21030430202E+03  0.52518167606E+02  0.11216817811E+03  0.30253606617E+03  0.17877447742E+03 0.  0.
         24    2    5    5    0    0 -0.23462582111E+03  0.60704083094E+02  0.10233840340E+03  0.27465668357E+03  0.78923275319E+02 0.  0.
          5    1    5    5  501    0  0.24321519089E+02 -0.81859154887E+01  0.98297747119E+01  0.27879382598E+02  0.47000000000E+01 0. -1.
        -11    1    6    6    0    0 -0.11615910323E+03  0.70589305272E+02  0.51275900182E+02  0.14527561812E+03  0.00000000000E+00 0.  1.
         12    1    6    6    0    0 -0.11846671788E+03 -0.98852221775E+01  0.51062503215E+02  0.12938106545E+03  0.00000000000E+00 0. -1.
         -5    1    3    3    0  503  0.16050585175E+03 -0.20022037344E+02 -0.55477103574E+03  0.57788926493E+03  0.47000000000E+01 0.  1.
         13    1    4    4    0    0  0.53334810633E+02 -0.65721853067E+00 -0.63980287623E+03  0.64202239400E+03  0.00000000000E+00 0. -1.
        -14    1    4    4    0    0 -0.35363603624E+01 -0.31838911731E+02 -0.11895607293E+03  0.12319403164E+03  0.00000000000E+00 0.  1.
</event>
<event>
12    1  0.8133495E-002  0.2078465E+03  0.7818608E-02  0.1143442E+00
         21   -1    0    0  503  502  0.00000000000E+00  0.00000000000E+00  0.45148921996E+03  0.45148921996E+03  0.00000000000E+00 0. -1.
         21   -1    0    0  501  503 -0.00000000000E+00 -0.00000000000E+00 -0.10260955807E+03  0.10260955807E+03  0.00000000000E+00 0.  1.
          6    2    1    2  501    0  0.95767315126E+02  0.65123233228E+02  0.10028623015E+03  0.23006350937E+03  0.17163763059E+03 0.  0.
         24    2    3    3    0    0  0.10356868579E+03  0.10057367083E+03  0.10171705732E+03  0.19343384685E+03  0.78922477257E+02 0.  0.
         -6    2    1    2    0  502 -0.95767315126E+02 -0.65123233228E+02  0.24859343174E+03  0.32403526866E+03  0.17259127115E+03 0.  0.
        -24    2    5    5    0    0 -0.13183998205E+01  0.69497292607E+01  0.59059138576E+02  0.10029334632E+03  0.80751077719E+02 0.  0.
          5    1    3    3  501    0 -0.78013706675E+01 -0.35450437599E+02 -0.14308271715E+01  0.36629662524E+02  0.47000000000E+01 0. -1.
        -13    1    4    4    0    0 -0.40157386794E+01  0.69857107694E+01 -0.96007342029E+01  0.12533970214E+02  0.00000000000E+00 0.  1.
         14    1    4    4    0    0  0.10758442447E+03  0.93587960057E+02  0.11131779153E+03  0.18089987664E+03  0.00000000000E+00 0. -1.
         -5    1    5    5    0  502 -0.94448915305E+02 -0.72072962489E+02  0.18953429316E+03  0.22374192233E+03  0.47000000000E+01 0.  1.
         13    1    6    6    0    0 -0.12517173037E+02  0.14713523795E+02  0.76077452042E+02  0.78491694544E+02  0.00000000000E+00 0. -1.
        -14    1    6    6    0    0  0.11198773217E+02 -0.77637945340E+01 -0.17018313466E+02  0.21801651780E+02  0.00000000000E+00 0.  1.
</event>
<event>
12    1  0.8133495E-002  0.1784171E+03  0.7818608E-02  0.1170004E+00
         21   -1    0    0  503  502  0.00000000000E+00  0.00000000000E+00  0.64876771689E+02  0.64876771689E+02  0.00000000000E+00 0. -1.
         21   -1    0    0  501  503 -0.00000000000E+00 -0.00000000000E+00 -0.60103022612E+03  0.60103022612E+03  0.00000000000E+00 0. -1.
          6    2    1    2  501    0  0.13886897895E+02 -0.47042728102E+02 -0.41378470082E+03  0.44955827918E+03  0.16875723257E+03 0.  0.
         24    2    3    3    0    0  0.44208545588E+02  0.21730406608E+02 -0.16737668905E+03  0.19189930953E+03  0.79898578746E+02 0.  0.
         -6    2    1    2    0  502 -0.13886897895E+02  0.47042728102E+02 -0.12236875361E+03  0.21634871863E+03  0.17154239124E+03 0.  0.
        -24    2    5    5    0    0 -0.31209177756E+02 -0.88449354784E+01 -0.13124680389E+03  0.15698204366E+03  0.79783412066E+02 0.  0.
          5    1    3    3  501    0 -0.30321647693E+02 -0.68773134710E+02 -0.24640801177E+03  0.25765896965E+03  0.47000000000E+01 0. -1.
        -13    1    4    4    0    0  0.31210856333E+02 -0.27609144018E+02 -0.60420398439E+02  0.73396232424E+02  0.00000000000E+00 0.  1.
         14    1    4    4    0    0  0.12997689255E+02  0.49339550626E+02 -0.10695629061E+03  0.11850307711E+03  0.00000000000E+00 0. -1.
         -5    1    5    5    0  502  0.17322279860E+02  0.55887663580E+02  0.88780502819E+01  0.59366674968E+02  0.47000000000E+01 0.  1.
         13    1    6    6    0    0 -0.30993444106E+02 -0.24930697054E+02 -0.19894850782E+02  0.44474018492E+02  0.00000000000E+00 0. -1.
        -14    1    6    6    0    0 -0.21573364932E+00  0.16085761576E+02 -0.11135195311E+03  0.11250802517E+03  0.00000000000E+00 0.  1.
</event>
<event>
12    1  0.8133495E-002  0.1814119E+03  0.7818608E-02  0.1166477E+00
         21   -1    0    0  503  502  0.00000000000E+00  0.00000000000E+00  0.10394762338E+04  0.10394762338E+04  0.00000000000E+00 0. -1.
         21   -1    0    0  501  503 -0.00000000000E+00 -0.00000000000E+00 -0.39062772980E+02  0.39062772980E+02  0.00000000000E+00 0.  1.
          6    2    1    2  501    0 -0.23407055609E+02  0.52179600233E+02  0.26490876730E+03  0.32099201666E+03  0.17201342631E+03 0.  0.
         24    2    3    3    0    0 -0.77744752363E+02  0.59288787645E+02  0.17528720155E+03  0.21583860073E+03  0.79380675705E+02 0.  0.
         -6    2    1    2    0  502  0.23407055609E+02 -0.52179600233E+02  0.73550469354E+03  0.75754699015E+03  0.17216180507E+03 0.  0.
        -24    2    5    5    0    0  0.80403849224E+02 -0.32382799763E+02  0.49933550066E+03  0.51374681488E+03  0.84180893882E+02 0.  0.
          5    1    3    3  501    0  0.54337696754E+02 -0.71091874114E+01  0.89621565748E+02  0.10515341593E+03  0.47000000000E+01 0. -1.
        -11    1    4    4    0    0 -0.40686623888E+02  0.59330038251E+02  0.56708508099E+02  0.91604092120E+02  0.00000000000E+00 0.  1.
         12    1    4    4    0    0 -0.37058128474E+02 -0.41250606404E-01  0.11857869346E+03  0.12423450861E+03  0.00000000000E+00 0. -1.
         -5    1    5    5    0  502 -0.56996793616E+02 -0.19796800470E+02  0.23616919288E+03  0.24380017526E+03  0.47000000000E+01 0.  1.
         11    1    6    6    0    0  0.92993801748E+01 -0.40057915882E+02  0.28108879536E+03  0.28408102009E+03  0.00000000000E+00 0. -1.
        -12    1    6    6    0    0  0.71104469050E+02  0.76751161190E+01  0.21824670530E+03  0.22966579480E+03  0.00000000000E+00 0.  1.
</event>
<event>
12    1  0.8133495E-002  0.1837384E+03  0.7818608E-02  0.1165056E+00
         21   -1    0    0  503  502  0.00000000000E+00  0.00000000000E+00  0.38378233064E+03  0.38378233064E+03  0.00000000000E+00 0.  1.
         21   -1    0    0  501  503 -0.00000000000E+00 -0.00000000000E+00 -0.13008577924E+03  0.13008577924E+03  0.00000000000E+00 0.  1.
          6    2    1    2  501    0 -0.78873986602E+01  0.65139571297E+02 -0.22979201993E+02  0.18173972767E+03  0.16791637824E+03 0.  0.
         24    2    3    3    0    0  0.93271601595E+01 -0.16137495675E+02  0.24620680236E+02  0.85874502276E+02  0.80130128931E+02 0.  0.
         -6    2    1    2    0  502  0.78873986602E+01 -0.65139571297E+02  0.27667575340E+03  0.33212838221E+03  0.17162288584E+03 0.  0.
        -24    2    5    5    0    0  0.69879814350E+02 -0.22695964912E+02  0.16788227307E+03  0.19983087397E+03  0.79684536155E+02 0.  0.
          5    1    3    3  501    0 -0.17214558820E+02  0.81277066971E+02 -0.47599882229E+02  0.95865225390E+02  0.47000000000E+01 0. -1.
        -13    1    4    4    0    0  0.28858897952E+02 -0.40837578827E+02  0.93277255559E+01  0.50867969288E+02  0.00000000000E+00 0.  1.
         14    1    4    4    0    0 -0.19531737793E+02  0.24700083152E+02  0.15292954680E+02  0.35006532987E+02  0.00000000000E+00 0. -1.
         -5    1    5    5    0  502 -0.61992415689E+02 -0.42443606385E+02  0.10879348032E+03  0.13229750824E+03  0.47000000000E+01 0.  1.
         13    1    6    6    0    0  0.30830502259E+02 -0.34617913917E+02  0.14666853959E+03  0.15381996080E+03  0.00000000000E+00 0. -1.
        -14    1    6    6    0    0  0.39049312090E+02  0.11921949004E+02  0.21213733483E+02  0.46010913174E+02  0.00000000000E+00 0.  1.
</event>
<event>
12    1  0.8133495E-002  0.4693870E+03  0.7818608E-02  0.1022097E+00
         21   -1    0    0  501  502  0.00000000000E+00  0.00000000000E+00  0.25677082113E+03  0.25677082113E+03  0.00000000000E+00 0.  1.
         21   -1    0    0  502  503 -0.00000000000E+00 -0.00000000000E+00 -0.88226252170E+03  0.88226252170E+03  0.00000000000E+00 0. -1.
         -6    2    1    2    0  503 -0.72701322646E+02  0.43077469683E+03 -0.40723399737E+03  0.62138428897E+03  0.17154178565E+03 0.  0.
        -24    2    3    3    0    0 -0.10894951217E+01  0.32094440682E+03 -0.33809824487E+03  0.47308463044E+03  0.80573848814E+02 0.  0.
          6    2    1    2  501    0  0.72701322646E+02 -0.43077469683E+03 -0.21825770320E+03  0.51764905386E+03  0.17167351636E+03 0.  0.
         24    2    5    5    0    0  0.70746295297E+02 -0.44364617080E+03 -0.21662155432E+03  0.50371119329E+03  0.70520247388E+02 0.  0.
          5    1    5    5  501    0  0.19550273486E+01  0.12871473970E+02 -0.16361488743E+01  0.13937860569E+02  0.47000000000E+01 0. -1.
        -13    1    6    6    0    0  0.59760136613E+00 -0.66676874621E+02 -0.79067594761E+01  0.67146701945E+02  0.00000000000E+00 0.  1.
         14    1    6    6    0    0  0.70148693931E+02 -0.37696929618E+03 -0.20871479484E+03  0.43656449135E+03  0.00000000000E+00 0. -1.
         -5    1    3    3    0  503 -0.71611827524E+02  0.10983029001E+03 -0.69135752502E+02  0.14829965852E+03  0.47000000000E+01 0.  1.
         13    1    4    4    0    0 -0.39715750721E+02  0.19878303864E+03 -0.21193773536E+03  0.29327400324E+03  0.00000000000E+00 0. -1.
        -14    1    4    4    0    0  0.38626255599E+02  0.12216136818E+03 -0.12616050950E+03  0.17981062720E+03  0.00000000000E+00 0.  1.
</event>
<event>
12    1  0.8133495E-002  0.2033211E+03  0.7818608E-02  0.1148467E+00
         21   -1    0    0  503  502  0.00000000000E+00  0.00000000000E+00  0.20675764718E+03  0.20675764718E+03  0.00000000000E+00 0.  1.
         21   -1    0    0  501  503 -0.00000000000E+00 -0.00000000000E+00 -0.36611071711E+03  0.36611071711E+03  0.00000000000E+00 0.  1.
          6    2    1    2  501    0 -0.67977702091E+02  0.79879074273E+02 -0.27587660615E+03  0.33852412732E+03  0.16579821613E+03 0.  0.
         24    2    3    3    0    0 -0.91758933915E+02  0.90983193628E+02 -0.16468622161E+03  0.22418148406E+03  0.80238037937E+02 0.  0.
         -6    2    1    2    0  502  0.67977702091E+02 -0.79879074273E+02  0.11652353622E+03  0.23434423697E+03  0.17417764615E+03 0.  0.
        -24    2    5    5    0    0  0.15371818873E+02 -0.35807037607E+01  0.11797097353E+03  0.14153795827E+03  0.76594574091E+02 0.  0.
          5    1    3    3  501    0  0.23781231824E+02 -0.11104119355E+02 -0.11119038454E+03  0.11434264326E+03  0.47000000000E+01 0. -1.
        -11    1    4    4    0    0 -0.20024107268E+02  0.76284568668E+02 -0.86708584557E+02  0.11721211083E+03  0.00000000000E+00 0.  1.
         12    1    4    4    0    0 -0.71734826646E+02  0.14698624960E+02 -0.77977637055E+02  0.10696937324E+03  0.00000000000E+00 0. -1.
         -5    1    5    5    0  502  0.52605883218E+02 -0.76298370513E+02 -0.14474373073E+01  0.92806278703E+02  0.47000000000E+01 0.  1.
         11    1    6    6    0    0 -0.22501123743E+02  0.95668628345E+01  0.88407106034E+02  0.91725906000E+02  0.00000000000E+00 0. -1.
        -12    1    6    6    0    0  0.37872942616E+02 -0.13147566595E+02  0.29563867494E+02  0.49812052267E+02  0.00000000000E+00 0.  1.
</event>
<event>
12    1  0.8133495E-002  0.1958097E+03  0.7818608E-02  0.1153468E+00
         21   -1    0    0  503  502  0.00000000000E+00  0.00000000000E+00  0.77254962286E+03  0.77254962286E+03  0.00000000000E+00 0. -1.
         21   -1    0    0  501  503 -0.00000000000E+00 -0.00000000000E+00 -0.72878479582E+02  0.72878479582E+02  0.00000000000E+00 0. -1.
          6    2    1    2  501    0  0.46921894189E+02 -0.79441245362E+02  0.11062498143E+03  0.22489851678E+03  0.17271039550E+03 0.  0.
         24    2    3    3    0    0  0.39979339573E+02 -0.11529733823E+03  0.11888754736E+03  0.18715969783E+03  0.77476962886E+02 0.  0.
         -6    2    1    2    0  502 -0.46921894189E+02  0.79441245362E+02  0.58904616185E+03  0.62052958566E+03  0.17195641970E+03 0.  0.
        -24    2    5    5    0    0 -0.20834303072E+02  0.16539821614E+02  0.50594512349E+03  0.51298878365E+03  0.80432520117E+02 0.  0.
          5    1    3    3  501    0  0.69425546160E+01  0.35856092866E+02 -0.82625659305E+01  0.37738818953E+02  0.47000000000E+01 0. -1.
        -11    1    4    4    0    0  0.59773856760E+02 -0.88590309753E+02  0.68993735483E+02  0.12720570927E+03  0.00000000000E+00 0.  1.
         12    1    4    4    0    0 -0.19794517187E+02 -0.26707028476E+02  0.49893811877E+02  0.59953988560E+02  0.00000000000E+00 0. -1.
         -5    1    5    5    0  502 -0.26087591117E+02  0.62901423748E+02  0.83101038364E+02  0.10754080201E+03  0.47000000000E+01 0.  1.
         13    1    6    6    0    0  0.71794242497E+01  0.21913780149E+02  0.44607623555E+03  0.44667187712E+03  0.00000000000E+00 0. -1.
        -14    1    6    6    0    0 -0.28013727322E+02 -0.53739585344E+01  0.59868887939E+02  0.66316906531E+02  0.00000000000E+00 0.  1.
</event>
<event>
12    1  0.8133495E-002  0.1987549E+03  0.7818608E-02  0.1150824E+00
         21   -1    0    0  501  502  0.00000000000E+00  0.00000000000E+00  0.15927006166E+03  0.15927006166E+03  0.00000000000E+00 0. -1.
         21   -1    0    0  502  503 -0.00000000000E+00 -0.00000000000E+00 -0.28127589235E+03  0.28127589235E+03  0.00000000000E+00 0. -1.
         -6    2    1    2    0  503 -0.70740725771E+01  0.98548336218E+02 -0.13695350087E+03  0.24137059323E+03  0.17245777686E+03 0.  0.
        -24    2    3    3    0    0 -0.37758704911E+02  0.31767354507E+02 -0.10514729872E+02  0.95048691273E+02  0.80553147421E+02 0.  0.
          6    2    1    2  501    0  0.70740725771E+01 -0.98548336218E+02  0.14947670187E+02  0.19917536079E+03  0.17229502148E+03 0.  0.
         24    2    5    5    0    0  0.48778034465E+02 -0.57629126898E+02  0.59862768345E+02  0.12533053584E+03  0.80148482627E+02 0.  0.
          5    1    5    5  501    0 -0.41703961888E+02 -0.40919209319E+02 -0.44915098158E+02  0.73844824944E+02  0.47000000000E+01 0. -1.
        -11    1    6    6    0    0  0.52794626535E+01 -0.86503686493E+01 -0.19770488172E+02  0.22216521020E+02  0.00000000000E+00 0.  1.
         12    1    6    6    0    0  0.43498571811E+02 -0.48978758249E+02  0.79633256517E+02  0.10311401482E+03  0.00000000000E+00 0. -1.
         -5    1    3    3    0  503  0.30684632334E+02  0.66780981710E+02 -0.12643877100E+03  0.14632190196E+03  0.47000000000E+01 0.  1.
         11    1    4    4    0    0  0.12981225908E+02  0.31993215616E+02 -0.24594919271E+02  0.42390896728E+02  0.00000000000E+00 0. -1.
        -12    1    4    4    0    0 -0.50739930819E+02 -0.22586110829E+00  0.14080189399E+02  0.52657794545E+02  0.00000000000E+00 0.  1.
</event>
<event>
12    1  0.8133495E-002  0.1773330E+03  0.7818608E-02  0.1170749E+00
         21   -1    0    0  501  502  0.00000000000E+00  0.00000000000E+00  0.71607786846E+02  0.71607786846E+02  0.00000000000E+00 0. -1.
         21   -1    0    0  502  503 -0.00000000000E+00 -0.00000000000E+00 -0.50703711715E+03  0.50703711715E+03  0.00000000000E+00 0. -1.
         -6    2    1    2    0  503  0.12909284146E+02  0.29116580186E+02 -0.32545656329E+03  0.36998005724E+03  0.17305734110E+03 0.  0.
        -24    2    3    3    0    0 -0.52741504506E+02  0.85431965308E+01 -0.12454070477E+03  0.15755933705E+03  0.80373534448E+02 0.  0.
          6    2    1    2  501    0 -0.12909284146E+02 -0.29116580186E+02 -0.10997276702E+03  0.20866484676E+03  0.17444937354E+03 0.  0.
         24    2    5    5    0    0 -0.12990697878E+02  0.41008587391E+02 -0.15123107887E+02  0.90613613842E+02  0.78304892250E+02 0.  0.
          5    1    5    5  501    0  0.81413731641E-01 -0.70125167577E+02 -0.94849659129E+02  0.11805123291E+03  0.47000000000E+01 0. -1.
        -13    1    6    6    0    0  0.28497596289E+02  0.11084717669E+02  0.11838643836E+02  0.32789288615E+02  0.00000000000E+00 0.  1.
         14    1    6    6    0    0 -0.41488294166E+02  0.29923869722E+02 -0.26961751722E+02  0.57824325227E+02  0.00000000000E+00 0. -1.
         -5    1    3    3    0  503  0.65650788653E+02  0.20573383655E+02 -0.20091585851E+03  0.21242072019E+03  0.47000000000E+01 0.  1.
         11    1    4    4    0    0 -0.91193457804E+01  0.27492252594E+02 -0.99861468924E+02  0.10397739849E+03  0.00000000000E+00 0. -1.
        -12    1    4    4    0    0 -0.43622158726E+02 -0.18949056063E+02 -0.24679235851E+02  0.53581938559E+02  0.00000000000E+00 0.  1.
</event>
<event>
12    1  0.8133495E-002  0.1750651E+03  0.7818608E-02  0.1173329E+00
         21   -1    0    0  501  502  0.00000000000E+00  0.00000000000E+00  0.57024908703E+02  0.57024908703E+02  0.00000000000E+00 0. -1.
         21   -1    0    0  502  503 -0.00000000000E+00 -0.00000000000E+00 -0.12094099510E+04  0.12094099510E+04  0.00000000000E+00 0. -1.
         -6    2    1    2    0  503 -0.29394331553E+01 -0.22086543496E+02 -0.10528924484E+04  0.10673473204E+04  0.17364140883E+03 0.  0.
        -24    2    3    3    0    0  0.30049898971E+02  0.28206911829E+02 -0.86734243576E+03  0.87223549384E+03  0.82542289470E+02 0.  0.
          6    2    1    2  501    0  0.29394331553E+01  0.22086543496E+02 -0.99492593894E+02  0.19908753927E+03  0.17099887831E+03 0.  0.
         24    2    5    5    0    0 -0.46066519817E+02  0.26649890672E+02 -0.20872170356E+02  0.10621306182E+03  0.89516624630E+02 0.  0.
          5    1    5    5  501    0  0.49005952973E+02 -0.45633471762E+01 -0.78620423538E+02  0.92874477450E+02  0.47000000000E+01 0. -1.
        -13    1    6    6    0    0  0.82743839452E+01 -0.39648955406E+01 -0.39949226598E+02  0.40989346568E+02  0.00000000000E+00 0.  1.
         14    1    6    6    0    0 -0.54340903763E+02  0.30614786212E+02  0.19077056242E+02  0.65223715253E+02  0.00000000000E+00 0. -1.
         -5    1    3    3    0  503 -0.32989332126E+02 -0.50293455325E+02 -0.18555001266E+03  0.19511182660E+03  0.47000000000E+01 0.  1.
         13    1    4    4    0    0  0.13329163834E+01  0.12770958822E+02 -0.75865142886E+03  0.75876008367E+03  0.00000000000E+00 0. -1.
        -14    1    4    4    0    0  0.28716982587E+02  0.15435953007E+02 -0.10869100689E+03  0.11347541017E+03  0.00000000000E+00 0.  1.
</event>
<event>
12    1  0.8133495E-002  0.1842797E+03  0.7818608E-02  0.1163756E+00
         21   -1    0    0  503  502  0.00000000000E+00  0.00000000000E+00  0.18145335617E+03  0.18145335617E+03  0.00000000000E+00 0.  1.
         21   -1    0    0  501  503 -0.00000000000E+00 -0.00000000000E+00 -0.20819392007E+03  0.20819392007E+03  0.00000000000E+00 0.  1.
          6    2    1    2  501    0 -0.54735487198E+01  0.65890670278E+02 -0.75516341208E+02  0.19915252530E+03  0.17201008802E+03 0.  0.
         24    2    3    3    0    0 -0.28349308016E+02  0.64384643217E+02  0.13308405625E+02  0.10729669189E+03  0.79914960327E+02 0.  0.
         -6    2    1    2    0  502  0.54735487198E+01 -0.65890670278E+02  0.48775777314E+02  0.19049475094E+03  0.17186516086E+03 0.  0.
        -24    2    5    5    0    0 -0.86933559969E+01  0.31508556200E+02  0.26965622729E+02  0.89573576994E+02  0.78917154878E+02 0.  0.
          5    1    3    3  501    0  0.22875759296E+02  0.15060270612E+01 -0.88824746834E+02  0.91855833407E+02  0.47000000000E+01 0. -1.
        -11    1    4    4    0    0 -0.12782095579E+02  0.81884670408E+02  0.12877127354E+02  0.83870743553E+02  0.00000000000E+00 0.  1.
         12    1    4    4    0    0 -0.15567212437E+02 -0.17500027191E+02  0.43127827092E+00  0.23425948342E+02  0.00000000000E+00 0. -1.
         -5    1    5    5    0  502  0.14166904717E+02 -0.97399226478E+02  0.21810154585E+02  0.10092117395E+03  0.47000000000E+01 0.  1.
         11    1    6    6    0    0 -0.13025285294E+02  0.69991518422E+01 -0.26641703108E+02  0.30470092353E+02  0.00000000000E+00 0. -1.
        -12    1    6    6    0    0  0.43319292969E+01  0.24509404358E+02  0.53607325837E+02  0.59103484641E+02  0.00000000000E+00 0.  1.
</event>
<event>
12    1  0.8133495E-002  0.2082695E+03  0.7818608E-02  0.1143289E+00
         21   -1    0    0  503  502  0.00000000000E+00  0.00000000000E+00  0.53876122935E+03  0.53876122935E+03  0.00000000000E+00 0. -1.
         21   -1    0    0  501  503 -0.00000000000E+00 -0.00000000000E+00 -0.24875218355E+03  0.24875218355E+03  0.00000000000E+00 0.  1.
          6    2    1    2  501    0 -0.11289256537E+03  0.36654398629E+02 -0.17964927084E+03  0.27374779721E+03  0.16904354383E+03 0.  0.
         24    2    3    3    0    0 -0.40936599039E+01  0.43503532665E+02 -0.48365827885E+02  0.10303884941E+03  0.79802479750E+02 0.  0.
         -6    2    1    2    0  502  0.11289256537E+03 -0.36654398629E+02  0.46965831663E+03  0.51376561569E+03  0.17113707147E+03 0.  0.
        -24    2    5    5    0    0  0.12857864528E+03 -0.48983489234E+02  0.27193395657E+03  0.31498163208E+03  0.79583299592E+02 0.  0.
          5    1    3    3  501    0 -0.10879890546E+03 -0.68491340356E+01 -0.13128344295E+03  0.17070894781E+03  0.47000000000E+01 0. -1.
        -11    1    4    4    0    0 -0.30784839213E+02 -0.68974720935E+01 -0.28876880431E+02  0.42768629509E+02  0.00000000000E+00 0.  1.
         12    1    4    4    0    0  0.26691179309E+02  0.50401004758E+02 -0.19488947454E+02  0.60270219897E+02  0.00000000000E+00 0. -1.
         -5    1    5    5    0  502 -0.15686079907E+02  0.12329090605E+02  0.19772436006E+03  0.19878398361E+03  0.47000000000E+01 0.  1.
         13    1    6    6    0    0  0.46719967729E+02 -0.47602607174E+02  0.17956460095E+03  0.19155210651E+03  0.00000000000E+00 0. -1.
        -14    1    6    6    0    0  0.81858677547E+02 -0.13808820608E+01  0.92369355624E+02  0.12342952557E+03  0.00000000000E+00 0.  1.
</event>
<event>
12    1  0.8133495E-002  0.1935040E+03  0.7818608E-02  0.1155816E+00
         21   -1    0    0  503  502  0.00000000000E+00  0.00000000000E+00  0.56570280243E+03  0.56570280243E+03  0.00000000000E+00 0. -1.
         21   -1    0    0  501  503 -0.00000000000E+00 -0.00000000000E+00 -0.83852766086E+02  0.83852766086E+02  0.00000000000E+00 0. -1.
          6    2    1    2  501    0  0.23989232731E+02 -0.82324776612E+02  0.89848551408E+02  0.21334609297E+03  0.17346740635E+03 0.  0.
         24    2    3    3    0    0  0.70908719065E+02 -0.98252711682E+01  0.55373376035E+02  0.12024268700E+03  0.79167610861E+02 0.  0.
         -6    2    1    2    0  502 -0.23989232731E+02  0.82324776612E+02  0.39200148494E+03  0.43620947555E+03  0.17105756409E+03 0.  0.
        -24    2    5    5    0    0  0.43100301780E+01  0.12036115668E+03  0.28502171997E+03  0.31910108728E+03  0.77991914013E+02 0.  0.
          5    1    3    3  501    0 -0.46919486334E+02 -0.72499505444E+02  0.34475175373E+02  0.93103405977E+02  0.47000000000E+01 0. -1.
        -13    1    4    4    0    0 -0.37013080749E+01 -0.10417339585E+02  0.43263845904E+02  0.44654014466E+02  0.00000000000E+00 0.  1.
         14    1    4    4    0    0  0.74610027140E+02  0.59206841698E+00  0.12109530130E+02  0.75588672530E+02  0.00000000000E+00 0. -1.
         -5    1    5    5    0  502 -0.28299262908E+02 -0.38036380065E+02  0.10697976497E+03  0.11710838827E+03  0.47000000000E+01 0.  1.
         13    1    6    6    0    0  0.24217637440E+02  0.55733240299E+02  0.20756700531E+03  0.21627933265E+03  0.00000000000E+00 0. -1.
        -14    1    6    6    0    0 -0.19907607262E+02  0.64627916378E+02  0.77454714657E+02  0.10282175463E+03  0.00000000000E+00 0.  1.
</event>
<event>
12    1  0.8133495E-002  0.2547149E+03  0.7818608E-02  0.1110579E+00
         21   -1    0    0  503  502  0.00000000000E+00  0.00000000000E+00  0.12829376474E+04  0.12829376474E+04  0.00000000000E+00 0.  1.
         21   -1    0    0  501  503 -0.00000000000E+00 -0.00000000000E+00 -0.50613573716E+02  0.50613573716E+02  0.00000000000E+00 0.  1.
          6    2    1    2  501    0 -0.25951540698E+02  0.18535951490E+03  0.56470868929E+03  0.61949623145E+03  0.17276586697E+03 0.  0.
         24    2    3    3    0    0 -0.59576814612E+02  0.15755384351E+03  0.53355300642E+03  0.56567633752E+03  0.83296444840E+02 0.  0.
         -6    2    1    2    0  502  0.25951540698E+02 -0.18535951490E+03  0.66761538441E+03  0.71405498969E+03  0.17068273071E+03 0.  0.
        -24    2    5    5    0    0  0.72431551509E+01 -0.10025892605E+03  0.56525292008E+03  0.57954745080E+03  0.79120594783E+02 0.  0.
          5    1    3    3  501    0  0.33625273915E+02  0.27805671396E+02  0.31155682869E+02  0.53819893930E+02  0.47000000000E+01 0. -1.
        -13    1    4    4    0    0 -0.78361699547E+01  0.67535022469E+02  0.33267757816E+03  0.33955375986E+03  0.00000000000E+00 0.  1.
         14    1    4    4    0    0 -0.51740644658E+02  0.90018821039E+02  0.20087542826E+03  0.22612257766E+03  0.00000000000E+00 0. -1.
         -5    1    5    5    0  502  0.18708385547E+02 -0.85100588857E+02  0.10236246433E+03  0.13450753889E+03  0.47000000000E+01 0.  1.
         13    1    6    6    0    0  0.23783375081E+02 -0.15772273790E+02  0.53808029620E+02  0.60907451123E+02  0.00000000000E+00 0. -1.
        -14    1    6    6    0    0 -0.16540219930E+02 -0.84486652256E+02  0.51144489046E+03  0.51863999968E+03  0.00000000000E+00 0.  1.
</event>
<event>
12    1  0.8133495E-002  0.1795886E+03  0.7818608E-02  0.1168918E+00
         21   -1    0    0  503  502  0.00000000000E+00  0.00000000000E+00  0.17988902135E+03  0.17988902135E+03  0.00000000000E+00 0. -1.
         21   -1    0    0  501  503 -0.00000000000E+00 -0.00000000000E+00 -0.32761564632E+03  0.32761564632E+03  0.00000000000E+00 0. -1.
          6    2    1    2  501    0  0.46162788957E+02  0.66524373093E+01 -0.24594126065E+03  0.30281424865E+03  0.17039397727E+03 0.  0.
         24    2    3    3    0    0  0.39336543226E+02 -0.60130598446E+02 -0.12268942159E+03  0.16238748009E+03  0.78447096948E+02 0.  0.
         -6    2    1    2    0  502 -0.46162788957E+02 -0.66524373093E+01  0.98214635680E+02  0.20469041902E+03  0.17342662706E+03 0.  0.
        -24    2    5    5    0    0 -0.95281451053E+02 -0.11830518875E+02  0.76593045639E+02  0.15056982543E+03  0.87099148096E+02 0.  0.
          5    1    3    3  501    0  0.68262457310E+01  0.66783035755E+02 -0.12325183906E+03  0.14042676856E+03  0.47000000000E+01 0. -1.
        -11    1    4    4    0    0  0.25075341336E+02  0.23653739151E+01 -0.14301712059E+01  0.25227229863E+02  0.00000000000E+00 0.  1.
         12    1    4    4    0    0  0.14261201891E+02 -0.62495972361E+02 -0.12125925038E+03  0.13716025023E+03  0.00000000000E+00 0. -1.
         -5    1    5    5    0  502  0.49118662096E+02  0.51780815653E+01  0.21621590040E+02  0.54120593591E+02  0.47000000000E+01 0.  1.
         11    1    6    6    0    0 -0.65741378745E+02  0.18508639575E+02  0.64039386676E+01  0.68596713104E+02  0.00000000000E+00 0. -1.
        -12    1    6    6    0    0 -0.29540072308E+02 -0.30339158450E+02  0.70189106972E+02  0.81973112329E+02  0.00000000000E+00 0.  1.
</event>
<event>
12    1  0.8133495E-002  0.2320273E+03  0.7818608E-02  0.1125250E+00
         21   -1    0    0  501  502  0.00000000000E+00  0.00000000000E+00  0.13543859328E+03  0.13543859328E+03  0.00000000000E+00 0.  1.
         21   -1    0    0  502  503 -0.00000000000E+00 -0.00000000000E+00 -0.78879674529E+03  0.78879674529E+03  0.00000000000E+00 0.  1.
         -6    2    1    2    0  503  0.48529516555E+02 -0.14856932610E+03 -0.65233769837E+03  0.69237356574E+03  0.17148971743E+03 0.  0.
        -24    2    3    3    0    0  0.17060929886E+02 -0.45175576570E+01 -0.19065267291E+03  0.20769187981E+03  0.80473545942E+02 0.  0.
          6    2    1    2  501    0 -0.48529516555E+02  0.14856932610E+03 -0.10204536362E+01  0.23186177283E+03  0.17126261045E+03 0.  0.
         24    2    5    5    0    0 -0.81712550871E+02  0.50624800704E+02  0.17569948554E+02  0.12668603002E+03  0.80627760064E+02 0.  0.
          5    1    5    5  501    0  0.33183034316E+02  0.97944525399E+02 -0.18590402190E+02  0.10517574281E+03  0.47000000000E+01 0. -1.
        -11    1    6    6    0    0 -0.66631133280E+02  0.54252411652E+02  0.43623783132E+02  0.96364238942E+02  0.00000000000E+00 0.  1.
         12    1    6    6    0    0 -0.15081417591E+02 -0.36276109474E+01 -0.26053834578E+02  0.30321791074E+02  0.00000000000E+00 0. -1.
         -5    1    3    3    0  503  0.31468586669E+02 -0.14405176845E+03 -0.46168502546E+03  0.48468168593E+03  0.47000000000E+01 0.  1.
         11    1    4    4    0    0  0.53904265421E+01 -0.38152527624E+02 -0.53103202129E+02  0.65609619255E+02  0.00000000000E+00 0. -1.
        -12    1    4    4    0    0  0.11670503344E+02  0.33634969967E+02 -0.13754947078E+03  0.14208226056E+03  0.00000000000E+00 0.  1.
</event>
<event>
12    1  0.8133495E-002  0.2190788E+03  0.7818608E-02  0.1134596E+00
         21   -1    0    0  503  502  0.00000000000E+00  0.00000000000E+00  0.86622261146E+03  0.86622261146E+03  0.00000000000E+00 0.  1.
         21   -1    0    0  501  503 -0.00000000000E+00 -0.00000000000E+00 -0.55947894447E+02  0.55947894447E+02  0.00000000000E+00 0. -1.
          6    2    1    2  501    0 -0.11900543380E+03  0.64719249342E+02  0.45189361303E+03  0.50219853508E+03  0.17217623714E+03 0.  0.
         24    2    3    3    0    0 -0.89952929766E+02 -0.19660242357E+02  0.32164390456E+03  0.34423960635E+03  0.81043510156E+02 0.  0.
         -6    2    1    2    0  502  0.11900543380E+03 -0.64719249342E+02  0.35838110399E+03  0.41997197082E+03  0.17201327296E+03 0.  0.
        -24    2    5    5    0    0  0.83541968235E+02  0.36047634108E+01  0.11578619010E+03  0.16541311642E+03  0.83443408920E+02 0.  0.
          5    1    3    3  501    0 -0.29052504031E+02  0.84379491699E+02  0.13024970846E+03  0.15795892873E+03  0.47000000000E+01 0. -1.
        -13    1    4    4    0    0  0.13062836119E+02 -0.14286086532E+02  0.57277169275E+02  0.60459937777E+02  0.00000000000E+00 0.  1.
         14    1    4    4    0    0 -0.10301576588E+03 -0.53741558247E+01  0.26436673529E+03  0.28377966858E+03  0.00000000000E+00 0. -1.
         -5    1    5    5    0  502  0.35463465562E+02 -0.68324012753E+02  0.24259491389E+03  0.25455885440E+03  0.47000000000E+01 0.  1.
         13    1    6    6    0    0  0.44350722268E+02  0.28376980054E+02  0.10551918140E+03  0.11792598190E+03  0.00000000000E+00 0. -1.
        -14    1    6    6    0    0  0.39191245967E+02 -0.24772216644E+02  0.10267008692E+02  0.47487134525E+02  0.00000000000E+00 0.  1.
</event>
<event>
12    1  0.8133495E-002  0.2095662E+03  0.7818608E-02  0.1141939E+00
         21   -1    0    0  501  502  0.00000000000E+00  0.00000000000E+00  0.39200773265E+03  0.39200773265E+03  0.00000000000E+00 0.  1.
         21   -1    0    0  502  503 -0.00000000000E+00 -0.00000000000E+00 -0.23637752091E+03  0.23637752091E+03  0.00000000000E+00 0.  1.
         -6    2    1    2    0  503  0.75966135185E+02  0.91495255964E+02 -0.15012383687E+03  0.25778894309E+03  0.17255647546E+03 0.  0.
        -24    2    3    3    0    0  0.10912133062E+03  0.35259897246E+02 -0.74810569929E+02  0.15800988350E+03  0.78865561308E+02 0.  0.
          6    2    1    2  501    0 -0.75966135185E+02 -0.91495255964E+02  0.30575404862E+03  0.37059631048E+03  0.17237706209E+03 0.  0.
         24    2    5    5    0    0 -0.48756911460E+02 -0.12989152295E+03  0.20303286295E+03  0.25751073598E+03  0.76422454545E+02 0.  0.
          5    1    5    5  501    0 -0.27209223725E+02  0.38396266985E+02  0.10272118567E+03  0.11308557450E+03  0.47000000000E+01 0. -1.
        -11    1    6    6    0    0 -0.48378929353E+02 -0.91139572720E+02  0.86310369030E+02  0.13452294348E+03  0.00000000000E+00 0.  1.
         12    1    6    6    0    0 -0.37798210678E+00 -0.38751950229E+02  0.11672249392E+03  0.12298779250E+03  0.00000000000E+00 0. -1.
         -5    1    3    3    0  503 -0.33155195437E+02  0.56235358719E+02 -0.75313266939E+02  0.99779059585E+02  0.47000000000E+01 0.  1.
         13    1    4    4    0    0  0.25591021757E+02 -0.18665844486E+02  0.29155883119E+01  0.31809036454E+02  0.00000000000E+00 0. -1.
        -14    1    4    4    0    0  0.83530308865E+02  0.53925741732E+02 -0.77726158241E+02  0.12620084705E+03  0.00000000000E+00 0.  1.
</event>
<event>
12    1  0.8133495E-002  0.2799550E+03  0.7818608E-02  0.1095980E+00
         21   -1    0    0  503  502  0.00000000000E+00  0.00000000000E+00  0.88964964366E+03  0.88964964366E+03  0.00000000000E+00 0.  1.
         21   -1    0    0  501  503 -0.00000000000E+00 -0.00000000000E+00 -0.25499054847E+03  0.25499054847E+03  0.00000000000E+00 0. -1.
          6    2    1    2  501    0 -0.15405041646E+03 -0.15819782310E+03 -0.14691207739E+03  0.31444245400E+03  0.16891659584E+03 0.  0.
         24    2    3    3    0    0 -0.77158093843E+02 -0.13925577936E+02 -0.43553328161E+02  0.12096886137E+03  0.81174379341E+02 0.  0.
         -6    2    1    2    0  502  0.15405041646E+03  0.15819782310E+03  0.78157117258E+03  0.83019773812E+03  0.17209504503E+03 0.  0.
        -24    2    5    5    0    0  0.35273860770E+02  0.85008675466E+01  0.27523760859E+03  0.28898353218E+03  0.80244817201E+02 0.  0.
          5    1    3    3  501    0 -0.76892322619E+02 -0.14427224517E+03 -0.10335874923E+03  0.19347359263E+03  0.47000000000E+01 0. -1.
        -11    1    4    4    0    0  0.17206595528E+02 -0.13586075685E+01 -0.10463751402E+02  0.20184222491E+02  0.00000000000E+00 0.  1.
         12    1    4    4    0    0 -0.94364689370E+02 -0.12566970367E+02 -0.33089576759E+02  0.10078463888E+03  0.00000000000E+00 0. -1.
         -5    1    5    5    0  502  0.11877655569E+03  0.14969695556E+03  0.50633356400E+03  0.54121420594E+03  0.47000000000E+01 0.  1.
         11    1    6    6    0    0  0.46425907093E+02 -0.24754625288E+02  0.17800920298E+03  0.18562174621E+03  0.00000000000E+00 0. -1.
        -12    1    6    6    0    0 -0.11152046322E+02  0.33255492834E+02  0.97228405609E+02  0.10336178597E+03  0.00000000000E+00 0.  1.
</event>
<event>
12    1  0.8133495E-002  0.1791888E+03  0.7818608E-02  0.1169621E+00
         21   -1    0    0  503  502  0.00000000000E+00  0.00000000000E+00  0.51601510129E+03  0.51601510129E+03  0.00000000000E+00 0.  1.
         21   -1    0    0  501  503 -0.00000000000E+00 -0.00000000000E+00 -0.65942357276E+02  0.65942357276E+02  0.00000000000E+00 0.  1.
          6    2    1    2  501    0  0.23572157588E+02  0.31048909136E+02  0.30399281712E+03  0.35076930144E+03  0.17061004835E+03 0.  0.
         24    2    3    3    0    0 -0.45838404060E+02 -0.10295968343E+02  0.13683291014E+03  0.16504975626E+03  0.79441868625E+02 0.  0.
         -6    2    1    2    0  502 -0.23572157588E+02 -0.31048909136E+02  0.14607992689E+03  0.23118815713E+03  0.17489693418E+03 0.  0.
        -24    2    5    5    0    0 -0.73330886974E+02  0.22364786759E+02  0.11909839286E+03  0.15321991207E+03  0.58432111040E+02 0.  0.
          5    1    3    3  501    0  0.69410561648E+02  0.41344877479E+02  0.16715990698E+03  0.18571954518E+03  0.47000000000E+01 0. -1.
        -13    1    4    4    0    0 -0.43373415305E+02 -0.12418360422E+02  0.14731804291E+03  0.15407165410E+03  0.00000000000E+00 0.  1.
         14    1    4    4    0    0 -0.24649887551E+01  0.21223920786E+01 -0.10485132768E+02  0.10978102152E+02  0.00000000000E+00 0. -1.
         -5    1    5    5    0  502  0.49758729386E+02 -0.53413695895E+02  0.26981534031E+02  0.77968245061E+02  0.47000000000E+01 0.  1.
         13    1    6    6    0    0 -0.64236317265E+02 -0.20758654137E+01  0.10618377181E+03  0.12411932593E+03  0.00000000000E+00 0. -1.
        -14    1    6    6    0    0 -0.90945697096E+01  0.24440652173E+02  0.12914621055E+02  0.29100586142E+02  0.00000000000E+00 0.  1.
</event>
<event>
12    1  0.8133495E-002  0.1986905E+03  0.7818608E-02  0.1151927E+00
         21   -1    0    0  501  502  0.00000000000E+00  0.00000000000E+00  0.65946187453E+02  0.65946187453E+02  0.00000000000E+00 0. -1.
         21   -1    0    0  502  503 -0.00000000000E+00 -0.00000000000E+00 -0.68403214549E+03  0.68403214549E+03  0.00000000000E+00 0.  1.
         -6    2    1    2    0  503  0.59323713296E+01 -0.92354031223E+02 -0.44931037483E+03  0.48928099916E+03  0.17015176489E+03 0.  0.
        -24    2    3    3    0    0 -0.62451866816E+02 -0.54137083073E+02 -0.26583599804E+03  0.28972680579E+03  0.80260729538E+02 0.  0.
          6    2    1    2  501    0 -0.59323713296E+01  0.92354031223E+02 -0.16877558320E+03  0.26069733378E+03  0.17582218928E+03 0.  0.
         24    2    5    5    0    0 -0.10547397771E+02  0.67074878574E+02 -0.15590375382E+02  0.10530064166E+03  0.78961246151E+02 0.  0.
          5    1    5    5  501    0  0.46150264418E+01  0.25279152649E+02 -0.15318520782E+03  0.15539669212E+03  0.47000000000E+01 0. -1.
        -13    1    6    6    0    0 -0.46143555730E+01  0.14558355403E+02 -0.43095201892E+02  0.45721268743E+02  0.00000000000E+00 0.  1.
         14    1    6    6    0    0 -0.59330421984E+01  0.52516523171E+02  0.27504826510E+02  0.59579372916E+02  0.00000000000E+00 0. -1.
         -5    1    3    3    0  503  0.68384238146E+02 -0.38216948151E+02 -0.18347437679E+03  0.19955419337E+03  0.47000000000E+01 0.  1.
         13    1    4    4    0    0 -0.16297749001E+02 -0.19411685493E+02 -0.96670625388E+01  0.27127149764E+02  0.00000000000E+00 0. -1.
        -14    1    4    4    0    0 -0.46154117815E+02 -0.34725397580E+02 -0.25616893550E+03  0.26259965603E+03  0.00000000000E+00 0.  1.
</event>
<event>
12    1  0.8133495E-002  0.1962486E+03  0.7818608E-02  0.1153168E+00
         21   -1    0    0  501  502  0.00000000000E+00  0.00000000000E+00  0.19504840813E+03  0.19504840813E+03  0.00000000000E+00 0.  1.
         21   -1    0    0  502  503 -0.00000000000E+00 -0.00000000000E+00 -0.20234205145E+03  0.20234205145E+03  0.00000000000E+00 0. -1.
         -6    2    1    2    0  503 -0.48211765301E+02 -0.81813782275E+02  0.30354088668E+02  0.19858219592E+03  0.17174297235E+03 0.  0.
        -24    2    3    3    0    0 -0.11468408958E+02 -0.66786294571E+02 -0.44094112155E+02  0.11408057328E+03  0.80486973647E+02 0.  0.
          6    2    1    2  501    0  0.48211765301E+02  0.81813782275E+02 -0.37647731990E+02  0.19880826366E+03  0.17055645603E+03 0.  0.
         24    2    5    5    0    0 -0.86504310604E+01  0.15600313281E+02 -0.67152760725E+02  0.10655768333E+03  0.80788903142E+02 0.  0.
          5    1    5    5  501    0  0.56862196362E+02  0.66213468995E+02  0.29505028735E+02  0.92250580334E+02  0.47000000000E+01 0. -1.
        -13    1    6    6    0    0 -0.40424084894E+02 -0.10097255567E+00 -0.14213790889E+02  0.42850305558E+02  0.00000000000E+00 0.  1.
         14    1    6    6    0    0  0.31773653833E+02  0.15701285836E+02 -0.52938969836E+02  0.63707377768E+02  0.00000000000E+00 0. -1.
         -5    1    3    3    0  503 -0.36743356343E+02 -0.15027487705E+02  0.74448200823E+02  0.84501622634E+02  0.47000000000E+01 0.  1.
         11    1    4    4    0    0 -0.26188122503E+02 -0.29332687217E+02 -0.59222847543E+02  0.71088465806E+02  0.00000000000E+00 0. -1.
        -12    1    4    4    0    0  0.14719713545E+02 -0.37453607354E+02  0.15128735388E+02  0.42992107475E+02  0.00000000000E+00 0.  1.
</event>
<event>
12    1  0.8133495E-002  0.1754310E+03  0.7818608E-02  0.1172374E+00
         21   -1    0    0  501  502  0.00000000000E+00  0.00000000000E+00  0.30058748831E+03  0.30058748831E+03  0.00000000000E+00 0. -1.
         21   -1    0    0  502  503 -0.00000000000E+00 -0.00000000000E+00 -0.11234477193E+03  0.11234477193E+03  0.00000000000E+00 0. -1.
         -6    2    1    2    0  503  0.33848204242E+02  0.54340488013E+01  0.32048761955E+02  0.17804379618E+03  0.17174760667E+03 0.  0.
        -24    2    3    3    0    0  0.52732900651E+02 -0.55703347555E+02  0.31113857777E+02  0.11387700541E+03  0.78206639585E+02 0.  0.
          6    2    1    2  501    0 -0.33848204242E+02 -0.54340488013E+01  0.15619395442E+03  0.23488846407E+03  0.17204885741E+03 0.  0.
         24    2    5    5    0    0 -0.81416877684E+02 -0.15064165174E+02  0.65573338914E+02  0.13198217762E+03  0.79144143116E+02 0.  0.
          5    1    5    5  501    0  0.47568673443E+02  0.96301163729E+01  0.90620615508E+02  0.10290628644E+03  0.47000000000E+01 0. -1.
        -11    1    6    6    0    0 -0.74773721205E+02  0.21097009224E+02  0.42178353669E+02  0.88403657726E+02  0.00000000000E+00 0.  1.
         12    1    6    6    0    0 -0.66431564790E+01 -0.36161174398E+02  0.23394985245E+02  0.43578519898E+02  0.00000000000E+00 0. -1.
         -5    1    3    3    0  503 -0.18884696409E+02  0.61137396357E+02  0.93490417793E+00  0.64166790769E+02  0.47000000000E+01 0.  1.
         13    1    4    4    0    0 -0.95363608890E+01 -0.47712302332E+01 -0.17053781641E+02  0.20113137129E+02  0.00000000000E+00 0. -1.
        -14    1    4    4    0    0  0.62269261540E+02 -0.50932117322E+02  0.48167639417E+02  0.93763868279E+02  0.00000000000E+00 0.  1.
</event>
<event>
12    1  0.8133495E-002  0.1857411E+03  0.7818608E-02  0.1162890E+00
         21   -1    0    0  501  502  0.00000000000E+00  0.00000000000E+00  0.83910464396E+02  0.83910464396E+02  0.00000000000E+00 0. -1.
         21   -1    0    0  502  503 -0.00000000000E+00 -0.00000000000E+00 -0.56997513252E+03  0.56997513252E+03  0.00000000000E+00 0.  1.
         -6    2    1    2    0  503  0.64545797522E+02  0.16895990765E+02 -0.41724948193E+03  0.45580657980E+03  0.17091188822E+03 0.  0.
        -24    2    3    3    0    0  0.99002723392E+02 -0.25858977465E+02 -0.29646637286E+03  0.32304394769E+03  0.77426455081E+02 0.  0.
          6    2    1    2  501    0 -0.64545797522E+02 -0.16895990765E+02 -0.68815186193E+02  0.19807901711E+03  0.17334397217E+03 0.  0.
         24    2    5    5    0    0 -0.17856679336E+02 -0.60994579747E+02 -0.85036148917E+02  0.13167292599E+03  0.77893600893E+02 0.  0.
          5    1    5    5  501    0 -0.46689118186E+02  0.44098588982E+02  0.16220962724E+02  0.66406091128E+02  0.47000000000E+01 0. -1.
        -13    1    6    6    0    0 -0.23303033992E+01  0.17311404362E+02 -0.29982805022E+02  0.34699908241E+02  0.00000000000E+00 0.  1.
         14    1    6    6    0    0 -0.15526375937E+02 -0.78305984108E+02 -0.55053343895E+02  0.96973017746E+02  0.00000000000E+00 0. -1.
         -5    1    3    3    0  503 -0.34456925870E+02  0.42754968229E+02 -0.12078310907E+03  0.13276263211E+03  0.47000000000E+01 0.  1.
         13    1    4    4    0    0  0.52469935500E+01 -0.33693379238E+02 -0.72479696184E+02  0.80100443848E+02  0.00000000000E+00 0. -1.
        -14    1    4    4    0    0  0.93755729842E+02  0.78344017735E+01 -0.22398667668E+03  0.24294350384E+03  0.00000000000E+00 0.  1.
</event>
<event>
12    1  0.8133495E-002  0.1980580E+03  0.7818608E-02  0.1152019E+00
         21   -1    0    0  503  502  0.00000000000E+00  0.00000000000E+00  0.82119531315E+02  0.82119531315E+02  0.00000000000E+00 0. -1.
         21   -1    0    0  501  503 -0.00000000000E+00 -0.00000000000E+00 -0.56033995830E+03  0.56033995830E+03  0.00000000000E+00 0. -1.
          6    2    1    2  501    0  0.33600177254E+02 -0.87065392767E+02 -0.36613326100E+03  0.41488421308E+03  0.17136508082E+03 0.  0.
         24    2    3    3    0    0  0.80534769123E+00 -0.11179826609E+03 -0.33704190891E+03  0.36433114556E+03  0.81488860457E+02 0.  0.
         -6    2    1    2    0  502 -0.33600177254E+02  0.87065392767E+02 -0.11208716599E+03  0.22757527654E+03  0.17469292826E+03 0.  0.
        -24    2    5    5    0    0  0.62404592369E+01 -0.22257746340E+02 -0.57247813000E+02  0.98857485630E+02  0.77208417728E+02 0.  0.
          5    1    3    3  501    0  0.32794829563E+02  0.24732873324E+02 -0.29091352082E+02  0.50553067512E+02  0.47000000000E+01 0. -1.
        -13    1    4    4    0    0  0.20312685350E+02 -0.75354747248E+01 -0.12902184437E+03  0.13082822666E+03  0.00000000000E+00 0.  1.
         14    1    4    4    0    0 -0.19507337659E+02 -0.10426279137E+03 -0.20802006454E+03  0.23350291891E+03  0.00000000000E+00 0. -1.
         -5    1    5    5    0  502 -0.39840636491E+02  0.10932313911E+03 -0.54839352988E+02  0.12871779091E+03  0.47000000000E+01 0.  1.
         13    1    6    6    0    0  0.40143919012E+02 -0.45693057863E+01 -0.40179853001E+02  0.56980991359E+02  0.00000000000E+00 0. -1.
        -14    1    6    6    0    0 -0.33903459775E+02 -0.17688440553E+02 -0.17067959999E+02  0.41876494271E+02  0.00000000000E+00 0.  1.
</event>
<event>
12    1  0.8133495E-002  0.1954016E+03  0.7818608E-02  0.1153733E+00
         21   -1    0    0  501  502  0.00000000000E+00  0.00000000000E+00  0.11135923021E+03  0.11135923021E+03  0.00000000000E+00 0. -1.
         21   -1    0    0  502  503 -0.00000000000E+00 -0.00000000000E+00 -0.47211459758E+03  0.47211459758E+03  0.00000000000E+00 0.  1.
         -6    2    1    2    0  503  0.46881553169E+02 -0.79984967335E+02 -0.27557622645E+02  0.19733530090E+03  0.17200675390E+03 0.  0.
        -24    2    3    3    0    0 -0.32362717453E+02 -0.24812789970E+02  0.16392260075E+02  0.91140641083E+02  0.79842909764E+02 0.  0.
          6    2    1    2  501    0 -0.46881553169E+02  0.79984967335E+02 -0.33319774473E+03  0.38613852689E+03  0.17171706330E+03 0.  0.
         24    2    5    5    0    0  0.40205710904E+02  0.46604540812E+02 -0.16113099439E+03  0.19036441979E+03  0.80541495861E+02 0.  0.
          5    1    5    5  501    0 -0.87087264073E+02  0.33380426523E+02 -0.17206675034E+03  0.19577410710E+03  0.47000000000E+01 0. -1.
        -13    1    6    6    0    0 -0.30701230920E+01 -0.19991357500E+02 -0.48490190270E+02  0.52539305124E+02  0.00000000000E+00 0.  1.
         14    1    6    6    0    0  0.43275833996E+02  0.66595898312E+02 -0.11264080412E+03  0.13782511467E+03  0.00000000000E+00 0. -1.
         -5    1    3    3    0  503  0.79244270622E+02 -0.55172177365E+02 -0.43949882720E+02  0.10619465981E+03  0.47000000000E+01 0.  1.
         13    1    4    4    0    0 -0.21905081193E+01 -0.50001857369E+02  0.12873040469E+02  0.51678808395E+02  0.00000000000E+00 0. -1.
        -14    1    4    4    0    0 -0.30172209333E+02  0.25189067399E+02  0.35192196059E+01  0.39461832688E+02  0.00000000000E+00 0.  1.
</event>
<event>
12    1  0.8133495E-002  0.2216646E+03  0.7818608E-02  0.1132691E+00
         21   -1    0    0  501  502  0.00000000000E+00  0.00000000000E+00  0.82016609745E+03  0.82016609745E+03  0.00000000000E+00 0.  1.
         21   -1    0    0  502  503 -0.00000000000E+00 -0.00000000000E+00 -0.10582239962E+03  0.10582239962E+03  0.00000000000E+00 0.  1.
         -6    2    1    2    0  503 -0.80860449529E+02  0.11487922526E+03  0.51890433952E+02  0.22743317380E+03  0.17116536657E+03 0.  0.
        -24    2    3    3    0    0 -0.10317918030E+03  0.74564613673E+02  0.84483651391E+02  0.17079571734E+03  0.76340453564E+02 0.  0.
          6    2    1    2  501    0  0.80860449529E+02 -0.11487922526E+03  0.66245326389E+03  0.69855532327E+03  0.17146301101E+03 0.  0.
         24    2    5    5    0    0  0.32249598354E+02 -0.10242299981E+03  0.61155704348E+03  0.62692650466E+03  0.86627462907E+02 0.  0.
          5    1    5    5  501    0  0.48610851175E+02 -0.12456225449E+02  0.50896220409E+02  0.71628818616E+02  0.47000000000E+01 0. -1.
        -13    1    6    6    0    0  0.45657606397E+02 -0.53348652525E+02  0.49214773024E+03  0.49713185789E+03  0.00000000000E+00 0.  1.
         14    1    6    6    0    0 -0.13408008043E+02 -0.49074347290E+02  0.11940931323E+03  0.12979464676E+03  0.00000000000E+00 0. -1.
         -5    1    3    3    0  503  0.22318730768E+02  0.40314611591E+02 -0.32593217439E+02  0.56637456456E+02  0.47000000000E+01 0.  1.
         13    1    4    4    0    0 -0.62210270740E+02  0.75449917541E+02  0.85365370117E+02  0.12980775885E+03  0.00000000000E+00 0. -1.
        -14    1    4    4    0    0 -0.40968909557E+02 -0.88530386846E+00 -0.88171872630E+00  0.40987958489E+02  0.00000000000E+00 0.  1.
</event>
<event>
12    1  0.8133495E-002  0.2299596E+03  0.7818608E-02  0.1127112E+00
         21   -1    0    0  503  502  0.00000000000E+00  0.00000000000E+00  0.11961906090E+03  0.11961906090E+03  0.00000000000E+00 0. -1.
         21   -1    0    0  501  503 -0.00000000000E+00 -0.00000000000E+00 -0.44215674388E+03  0.44215674388E+03  0.00000000000E+00 0. -1.
          6    2    1    2  501    0  0.10612990321E+03 -0.10967820111E+03 -0.13088677527E+03  0.26242399165E+03  0.16864797449E+03 0.  0.
         24    2    3    3    0    0  0.20053410218E+02 -0.10574052877E+03 -0.10942686311E+03  0.17350107144E+03  0.80902316007E+02 0.  0.
         -6    2    1    2    0  502 -0.10612990321E+03  0.10967820111E+03 -0.19165090771E+03  0.29935181313E+03  0.17201329438E+03 0.  0.
        -24    2    5    5    0    0 -0.77977577139E+02 -0.16516264380E+02 -0.70173188941E+02  0.12187921598E+03  0.59807836570E+02 0.  0.
          5    1    3    3  501    0  0.86076492989E+02 -0.39376723387E+01 -0.21459912164E+02  0.88922920211E+02  0.47000000000E+01 0. -1.
        -13    1    4    4    0    0 -0.19472833672E+02 -0.34730128355E+01 -0.37430039006E+02  0.42335102331E+02  0.00000000000E+00 0.  1.
         14    1    4    4    0    0  0.39526243891E+02 -0.10226751594E+03 -0.71996824105E+02  0.13116596911E+03  0.00000000000E+00 0. -1.
         -5    1    5    5    0  502 -0.28152326068E+02  0.12619446549E+03 -0.12147771877E+03  0.17747259715E+03  0.47000000000E+01 0.  1.
         11    1    6    6    0    0 -0.48411028814E+02  0.27540174222E+00 -0.73180456345E+02  0.87744417188E+02  0.00000000000E+00 0. -1.
        -12    1    6    6    0    0 -0.29566548326E+02 -0.16791666122E+02  0.30072674037E+01  0.34134798788E+02  0.00000000000E+00 0.  1.
</event>
<event>
12    1  0.8133495E-002  0.1843500E+03  0.7818608E-02  0.1163821E+00
         21   -1    0    0  501  502  0.00000000000E+00  0.00000000000E+00  0.35365975483E+03  0.35365975483E+03  0.00000000000E+00 0.  1.
         21   -1    0    0  502  503 -0.00000000000E+00 -0.00000000000E+00 -0.10889331270E+04  0.10889331270E+04  0.00000000000E+00 0.  1.
         -6    2    1    2    0  503  0.64215032062E+02  0.29261981766E+01 -0.10565578796E+04  0.10725201534E+04  0.17277960990E+03 0.  0.
        -24    2    3    3    0    0  0.83416887525E+01 -0.45120373471E+02 -0.34684645560E+03  0.35897779387E+03  0.80356461188E+02 0.  0.
          6    2    1    2  501    0 -0.64215032062E+02 -0.29261981766E+01  0.32128450740E+03  0.37007272841E+03  0.17204056684E+03 0.  0.
         24    2    5    5    0    0  0.44950463982E+01 -0.53975205482E+02  0.18102601410E+03  0.20569021421E+03  0.81268186856E+02 0.  0.
          5    1    5    5  501    0 -0.68710078460E+02  0.51049007306E+02  0.14025849331E+03  0.16438251420E+03  0.47000000000E+01 0. -1.
        -11    1    6    6    0    0  0.74941892613E+01  0.18748948539E+02  0.70627370340E+02  0.73456867515E+02  0.00000000000E+00 0.  1.
         12    1    6    6    0    0 -0.29991428631E+01 -0.72724154021E+02  0.11039864376E+03  0.13223334670E+03  0.00000000000E+00 0. -1.
         -5    1    3    3    0  503  0.55873343309E+02  0.48046571648E+02 -0.70971142395E+03  0.71354235952E+03  0.47000000000E+01 0.  1.
         11    1    4    4    0    0 -0.10569582835E+02  0.40948143423E+01 -0.38774004889E+01  0.11979892335E+02  0.00000000000E+00 0. -1.
        -12    1    4    4    0    0  0.18911271587E+02 -0.49215187814E+02 -0.34296905511E+03  0.34699790154E+03  0.00000000000E+00 0.  1.
</event>
<event>
12    1  0.8133495E-002  0.1763841E+03  0.7818608E-02  0.1171593E+00
         21   -1    0    0  501  502  0.00000000000E+00  0.00000000000E+00  0.48280429578E+03  0.48280429578E+03  0.00000000000E+00 0.  1.
         21   -1    0    0  502  503 -0.00000000000E+00 -0.00000000000E+00 -0.11827307973E+03  0.11827307973E+03  0.00000000000E+00 0.  1.
         -6    2    1    2    0  503  0.37419621298E+02  0.10391082028E+02 -0.21441038633E+02  0.17671205570E+03  0.17105329535E+03 0.  0.
        -24    2    3    3    0    0  0.65741194601E+02 -0.35761778131E+02 -0.44227585191E+02  0.11777552442E+03  0.79461848826E+02 0.  0.
          6    2    1    2  501    0 -0.37419621298E+02 -0.10391082028E+02  0.38597225469E+03  0.42436531981E+03  0.17205563236E+03 0.  0.
         24    2    5    5    0    0 -0.11816255768E+02 -0.12169922893E+02  0.38963468510E+03  0.39801764443E+03  0.79467770315E+02 0.  0.
          5    1    5    5  501    0 -0.25603365530E+02  0.17788408652E+01 -0.36624304176E+01  0.26347675378E+02  0.47000000000E+01 0. -1.
        -13    1    6    6    0    0  0.81718071095E+01 -0.31814027445E+02  0.71879090045E+02  0.79028566730E+02  0.00000000000E+00 0.  1.
         14    1    6    6    0    0 -0.19988062878E+02  0.19644104552E+02  0.31775559506E+03  0.31898907770E+03  0.00000000000E+00 0. -1.
         -5    1    3    3    0  503 -0.28321573303E+02  0.46152860158E+02  0.22786546558E+02  0.58936531279E+02  0.47000000000E+01 0.  1.
         13    1    4    4    0    0  0.80999964957E+02 -0.18625341643E+02 -0.22337028390E+02  0.86063003153E+02  0.00000000000E+00 0. -1.
        -14    1    4    4    0    0 -0.15258770356E+02 -0.17136436487E+02 -0.21890556801E+02  0.31712521271E+02  0.00000000000E+00 0.  1.
</event>
<event>
12    1  0.8133495E-002  0.2116658E+03  0.7818608E-02  0.1142864E+00
         21   -1    0    0  501  502  0.00000000000E+00  0.00000000000E+00  0.95369333923E+02  0.95369333923E+02  0.00000000000E+00 0. -1.
         21   -1    0    0  502  503 -0.00000000000E+00 -0.00000000000E+00 -0.44973606710E+03  0.44973606710E+03  0.00000000000E+00 0. -1.
         -6    2    1    2    0  503 -0.10652382050E+03  0.19843118723E+02 -0.14605608120E+03  0.25716688481E+03  0.18182781440E+03 0.  0.
        -24    2    3    3    0    0 -0.88218693438E+02  0.46682387436E+01 -0.99303987125E+01  0.11890030862E+03  0.78957838404E+02 0.  0.
          6    2    1    2  501    0  0.10652382050E+03 -0.19843118723E+02 -0.20831065198E+03  0.28793851621E+03  0.16665589608E+03 0.  0.
         24    2    5    5    0    0  0.35191162088E+02 -0.62761305119E+01 -0.19536674287E+03  0.21403285940E+03  0.79775265472E+02 0.  0.
          5    1    5    5  501    0  0.71332658417E+02 -0.13566988211E+02 -0.12943909106E+02  0.73905656812E+02  0.47000000000E+01 0. -1.
        -11    1    6    6    0    0  0.15364136492E+02 -0.25119179789E+01  0.19473042505E+01  0.15689436444E+02  0.00000000000E+00 0.  1.
         12    1    6    6    0    0  0.19827025596E+02 -0.37642125331E+01 -0.19731404712E+03  0.19834342296E+03  0.00000000000E+00 0. -1.
         -5    1    3    3    0  503 -0.18305127066E+02  0.15174879979E+02 -0.13612568248E+03  0.13826657619E+03  0.47000000000E+01 0.  1.
         11    1    4    4    0    0  0.62943262799E+01 -0.17379256146E+02  0.81141401194E+01  0.20186539015E+02  0.00000000000E+00 0. -1.
        -12    1    4    4    0    0 -0.94513019718E+02  0.22047494890E+02 -0.18044538832E+02  0.98713769601E+02  0.00000000000E+00 0.  1.
</event>
<event>
12    1  0.8133495E-002  0.1839646E+03  0.7818608E-02  0.1164320E+00
         21   -1    0    0  503  502  0.00000000000E+00  0.00000000000E+00  0.75458091732E+02  0.75458091732E+02  0.00000000000E+00 0. -1.
         21   -1    0    0  501  503 -0.00000000000E+00 -0.00000000000E+00 -0.45984886901E+03  0.45984886901E+03  0.00000000000E+00 0. -1.
          6    2    1    2  501    0  0.61647223481E+02  0.82072985592E+01 -0.23898277748E+03  0.30081501368E+03  0.17178231751E+03 0.  0.
         24    2    3    3    0    0  0.24915358059E+02 -0.34668037743E+02 -0.22467390905E+03  0.24238250461E+03  0.80301091049E+02 0.  0.
         -6    2    1    2    0  502 -0.61647223481E+02 -0.82072985592E+01 -0.14540799980E+03  0.23449194706E+03  0.17313361002E+03 0.  0.
        -24    2    5    5    0    0 -0.45938671419E+02 -0.61862158592E+02 -0.45485568657E+02  0.11989620169E+03  0.79805225552E+02 0.  0.
          5    1    3    3  501    0  0.36731865422E+02  0.42875336303E+02 -0.14308868425E+02  0.58432509069E+02  0.47000000000E+01 0. -1.
        -11    1    4    4    0    0  0.66552600571E+01 -0.41324827008E+02 -0.44234201712E+02  0.60899083859E+02  0.00000000000E+00 0.  1.
         12    1    4    4    0    0  0.18260098002E+02  0.66567892649E+01 -0.18043970734E+03  0.18148342075E+03  0.00000000000E+00 0. -1.
         -5    1    5    5    0  502 -0.15708552062E+02  0.53654860033E+02 -0.99922431143E+02  0.11459574538E+03  0.47000000000E+01 0.  1.
         11    1    6    6    0    0 -0.50019688905E+02 -0.12617175525E+02 -0.47937860979E+02  0.70421594072E+02  0.00000000000E+00 0. -1.
        -12    1    6    6    0    0  0.40810174866E+01 -0.49244983067E+02  0.24522923225E+01  0.49474607614E+02  0.00000000000E+00 0.  1.
</event>
<event>
12    1  0.8133495E-002  0.1822064E+03  0.7818608E-02  0.1165939E+00
         21   -1    0    0  501  502  0.00000000000E+00  0.00000000000E+00  0.84747385750E+03  0.84747385750E+03  0.00000000000E+00 0.  1.
         21   -1    0    0  502  503 -0.00000000000E+00 -0.00000000000E+00 -0.17183094505E+03  0.17183094505E+03  0.00000000000E+00 0.  1.
         -6    2    1    2    0  503  0.16598961316E+02 -0.50111044202E+02 -0.11014367507E+03  0.21291034217E+03  0.17439192176E+03 0.  0.
        -24    2    3    3    0    0  0.71081846057E+02 -0.64281359454E+02 -0.67483637361E+02  0.14212085579E+03  0.80371477075E+02 0.  0.
          6    2    1    2  501    0 -0.16598961316E+02  0.50111044202E+02  0.78578658751E+03  0.80639446038E+03  0.17327672190E+03 0.  0.
         24    2    5    5    0    0 -0.76051550578E+02  0.39976820633E+02  0.60161225852E+03  0.61253991100E+03  0.76719283289E+02 0.  0.
          5    1    5    5  501    0  0.59452589262E+02  0.10134223568E+02  0.18417432899E+03  0.19385454938E+03  0.47000000000E+01 0. -1.
        -13    1    6    6    0    0  0.87328572598E+01  0.23162590882E+02  0.21285607010E+03  0.21429063207E+03  0.00000000000E+00 0.  1.
         14    1    6    6    0    0 -0.84784407838E+02  0.16814229752E+02  0.38875618842E+03  0.39824927893E+03  0.00000000000E+00 0. -1.
         -5    1    3    3    0  503 -0.54482884742E+02  0.14170315252E+02 -0.42660037705E+02  0.70789486374E+02  0.47000000000E+01 0.  1.
         13    1    4    4    0    0 -0.40120522087E+01 -0.48082174094E+02 -0.25322421625E+02  0.54490522713E+02  0.00000000000E+00 0. -1.
        -14    1    4    4    0    0  0.75093898266E+02 -0.16199185360E+02 -0.42161215736E+02  0.87630333079E+02  0.00000000000E+00 0.  1.
</event>
<event>
12    1  0.8133495E-002  0.3649514E+03  0.7818608E-02  0.1056659E+00
         21   -1    0    0  501  502  0.00000000000E+00  0.00000000000E+00  0.16720513539E+04  0.16720513539E+04  0.00000000000E+00 0.  1.
         21   -1    0    0  502  503 -0.00000000000E+00 -0.00000000000E+00 -0.10690451278E+03  0.10690451278E+03  0.00000000000E+00 0.  1.
         -6    2    1    2    0  503  0.16730608790E+03  0.27525915491E+03  0.33332353660E+03  0.49426117384E+03  0.17155348585E+03 0.  0.
        -24    2    3    3    0    0  0.17752257615E+02  0.78087103373E+02  0.13957491062E+03  0.17993047835E+03  0.80505173754E+02 0.  0.
          6    2    1    2  501    0 -0.16730608790E+03 -0.27525915491E+03  0.12318233045E+04  0.12846946928E+04  0.17115160192E+03 0.  0.
         24    2    5    5    0    0 -0.82620073424E+02 -0.23050764619E+03  0.10232275990E+04  0.10551109893E+04  0.79401692999E+02 0.  0.
          5    1    5    5  501    0 -0.84686014477E+02 -0.44751508719E+02  0.20859570553E+03  0.22958370357E+03  0.47000000000E+01 0. -1.
        -11    1    6    6    0    0 -0.62410598875E+02 -0.13336390518E+03  0.75255618165E+03  0.76682580851E+03  0.00000000000E+00 0.  1.
         12    1    6    6    0    0 -0.20209474549E+02 -0.97143741010E+02  0.27067141733E+03  0.28828518075E+03  0.00000000000E+00 0. -1.
         -5    1    3    3    0  503  0.14955383029E+03  0.19717205154E+03  0.19374862598E+03  0.31433069549E+03  0.47000000000E+01 0.  1.
         11    1    4    4    0    0  0.26307055574E+02  0.24893917160E+02  0.11526846958E+03  0.12082461820E+03  0.00000000000E+00 0. -1.
        -12    1    4    4    0    0 -0.85547979597E+01  0.53193186213E+02  0.24306441037E+02  0.59105860145E+02  0.00000000000E+00 0.  1.
</event>
<event>
12    1  0.8133495E-002  0.2154760E+03  0.7818608E-02  0.1139434E+00
         21   -1    0    0  503  502  0.00000000000E+00  0.00000000000E+00  0.67839084595E+02  0.67839084595E+02  0.00000000000E+00 0.  1.
         21   -1    0    0  501  503 -0.00000000000E+00 -0.00000000000E+00 -0.65159200840E+03  0.65159200840E+03  0.00000000000E+00 0. -1.
          6    2    1    2  501    0  0.12256764579E+02  0.13107730668E+03 -0.26914990612E+03  0.33811106840E+03  0.15667142050E+03 0.  0.
         24    2    3    3    0    0 -0.33485009410E+02  0.38987751089E+02 -0.91847851320E+02  0.13309666701E+03  0.81470266892E+02 0.  0.
         -6    2    1    2    0  502 -0.12256764579E+02 -0.13107730668E+03 -0.31460301769E+03  0.38132002460E+03  0.17058257185E+03 0.  0.
        -24    2    5    5    0    0 -0.73420820386E+02 -0.89219799912E+02 -0.18901795933E+03  0.23542009493E+03  0.79649498338E+02 0.  0.
          5    1    3    3  501    0  0.45741773989E+02  0.92089555596E+02 -0.17730205480E+03  0.20501440138E+03  0.47000000000E+01 0. -1.
        -11    1    4    4    0    0  0.69339564703E+01 -0.16773273156E+02  0.18226116560E+00  0.18150913581E+02  0.00000000000E+00 0.  1.
         12    1    4    4    0    0 -0.40418965881E+02  0.55761024245E+02 -0.92030112485E+02  0.11494575343E+03  0.00000000000E+00 0. -1.
         -5    1    5    5    0  502  0.61164055807E+02 -0.41857506773E+02 -0.12558505836E+03  0.14589992967E+03  0.47000000000E+01 0.  1.
         13    1    6    6    0    0  0.17016064509E+01 -0.58380939580E+02 -0.91037149470E+02  0.10816187940E+03  0.00000000000E+00 0. -1.
        -14    1    6    6    0    0 -0.75122426837E+02 -0.30838860332E+02 -0.97980809860E+02  0.12725821554E+03  0.00000000000E+00 0.  1.
</event>
<event>
12    1  0.8133495E-002  0.2587807E+03  0.7818608E-02  0.1107953E+00
         21   -1    0    0  503  502  0.00000000000E+00  0.00000000000E+00  0.21280525801E+03  0.21280525801E+03  0.00000000000E+00 0.  1.
         21   -1    0    0  501  503 -0.00000000000E+00 -0.00000000000E+00 -0.32128636013E+03  0.32128636013E+03  0.00000000000E+00 0. -1.
          6    2    1    2  501    0 -0.16081662365E+03  0.10692696178E+03 -0.14320323599E+02  0.25917667080E+03  0.17225595323E+03 0.  0.
         24    2    3    3    0    0 -0.10143463995E+03  0.11862114659E+03  0.38241260535E+02  0.17887857572E+03  0.78582365997E+02 0.  0.
         -6    2    1    2    0  502  0.16081662365E+03 -0.10692696178E+03 -0.94160778520E+02  0.27491494734E+03  0.17151272390E+03 0.  0.
        -24    2    5    5    0    0  0.11997015726E+03 -0.12664431322E+03 -0.28428503925E+02  0.19491476178E+03  0.82170334209E+02 0.  0.
          5    1    3    3  501    0 -0.59381983704E+02 -0.11694184808E+02 -0.52561584134E+02  0.80298095081E+02  0.47000000000E+01 0. -1.
        -11    1    4    4    0    0 -0.52519870102E+02  0.63564239070E+02 -0.20163013823E+02  0.84884017168E+02  0.00000000000E+00 0.  1.
         12    1    4    4    0    0 -0.48914769845E+02  0.55056907520E+02  0.58404274358E+02  0.93994558554E+02  0.00000000000E+00 0. -1.
         -5    1    5    5    0  502  0.40846466396E+02  0.19717351436E+02 -0.65732274595E+02  0.80000185551E+02  0.47000000000E+01 0.  1.
         13    1    6    6    0    0  0.12606585594E+03 -0.88421350419E+02 -0.25691881219E+02  0.15611216482E+03  0.00000000000E+00 0. -1.
        -14    1    6    6    0    0 -0.60956986837E+01 -0.38222962799E+02 -0.27366227060E+01  0.38802596967E+02  0.00000000000E+00 0.  1.
</event>
<event>
12    1  0.8133495E-002  0.2658530E+03  0.7818608E-02  0.1103792E+00
         21   -1    0    0  501  502  0.00000000000E+00  0.00000000000E+00  0.11883630563E+04  0.11883630563E+04  0.00000000000E+00 0. -1.
         21   -1    0    0  502  503 -0.00000000000E+00 -0.00000000000E+00 -0.59977642978E+02  0.59977642978E+02  0.00000000000E+00 0.  1.
         -6    2    1    2    0  503 -0.31286231492E+02 -0.19865607658E+03  0.63142250617E+03  0.68510742022E+03  0.17388137018E+03 0.  0.
        -24    2    3    3    0    0  0.52622611919E+02 -0.12766377636E+03  0.29492879392E+03  0.33108664530E+03  0.59734363062E+02 0.  0.
          6    2    1    2  501    0  0.31286231492E+02  0.19865607658E+03  0.49696290713E+03  0.56323327904E+03  0.17267463771E+03 0.  0.
         24    2    5    5    0    0  0.28990260706E+02  0.53594108826E+02  0.31654637055E+03  0.33167235262E+03  0.78052425135E+02 0.  0.
          5    1    5    5  501    0  0.22959707857E+01  0.14506196776E+03  0.18041653659E+03  0.23156092642E+03  0.47000000000E+01 0. -1.
        -11    1    6    6    0    0  0.48621773185E+02  0.13148830706E+02  0.12179388460E+03  0.13179802314E+03  0.00000000000E+00 0.  1.
         12    1    6    6    0    0 -0.19631512479E+02  0.40445278120E+02  0.19475248594E+03  0.19987432948E+03  0.00000000000E+00 0. -1.
         -5    1    3    3    0  503 -0.83908843410E+02 -0.70992300221E+02  0.33649371225E+03  0.35402077492E+03  0.47000000000E+01 0.  1.
         13    1    4    4    0    0  0.32498442808E+02 -0.37187111046E+02  0.55224134434E+02  0.74085997576E+02  0.00000000000E+00 0. -1.
        -14    1    4    4    0    0  0.20124169111E+02 -0.90476665314E+02  0.23970465949E+03  0.25700064772E+03  0.00000000000E+00 0.  1.
</event>
<event>
12    1  0.8133495E-002  0.2152603E+03  0.7818608E-02  0.1137641E+00
         21   -1    0    0  501  502  0.00000000000E+00  0.00000000000E+00  0.14332293992E+03  0.14332293992E+03  0.00000000000E+00 0.  1.
         21   -1    0    0  502  503 -0.00000000000E+00 -0.00000000000E+00 -0.32395046313E+03  0.32395046313E+03  0.00000000000E+00 0.  1.
         -6    2    1    2    0  503  0.38072585066E+02 -0.12457127890E+03 -0.10889541328E+03  0.24123683135E+03  0.17137523889E+03 0.  0.
        -24    2    3    3    0    0  0.44576989355E+02 -0.12001106037E+02 -0.85778276446E+02  0.12603768591E+03  0.79977815887E+02 0.  0.
          6    2    1    2  501    0 -0.38072585066E+02  0.12457127890E+03 -0.71732109930E+02  0.22603657170E+03  0.17023369493E+03 0.  0.
         24    2    5    5    0    0  0.24920673697E+01  0.76455994371E+02 -0.10672825548E+03  0.15387431123E+03  0.80216293006E+02 0.  0.
          5    1    5    5  501    0 -0.40564652436E+02  0.48115284534E+02  0.34996145552E+02  0.72162260473E+02  0.47000000000E+01 0. -1.
        -13    1    6    6    0    0  0.20549441473E+02  0.81080004252E+02 -0.58227879400E+02  0.10191532060E+03  0.00000000000E+00 0.  1.
         14    1    6    6    0    0 -0.18057374104E+02 -0.46240098811E+01 -0.48500376082E+02  0.51958990627E+02  0.00000000000E+00 0. -1.
         -5    1    3    3    0  503 -0.65044042889E+01 -0.11257017287E+03 -0.23117136833E+02  0.11519914544E+03  0.47000000000E+01 0.  1.
         11    1    4    4    0    0 -0.16463852518E+02  0.15560375471E+02 -0.36221200095E+02  0.42721880353E+02  0.00000000000E+00 0. -1.
        -12    1    4    4    0    0  0.61040841873E+02 -0.27561481508E+02 -0.49557076351E+02  0.83315805559E+02  0.00000000000E+00 0.  1.
</event>
<event>
12    1  0.8133495E-002  0.1782864E+03  0.7818608E-02  0.1169880E+00
         21   -1    0    0  503  502  0.00000000000E+00  0.00000000000E+00  0.30389878817E+02  0.30389878817E+02  0.00000000000E+00 0. -1.
         21   -1    0    0  501  503 -0.00000000000E+00 -0.00000000000E+00 -0.10936633904E+04  0.10936633904E+04  0.00000000000E+00 0. -1.
          6    2    1    2  501    0  0.32373710237E+02  0.22912156638E+02 -0.66276195710E+03  0.68632315094E+03  0.17381896244E+03 0.  0.
         24    2    3    3    0    0  0.70738637169E+02  0.37649748886E+02 -0.34697233090E+03  0.36783572221E+03  0.92151298119E+02 0.  0.
         -6    2    1    2    0  502 -0.32373710237E+02 -0.22912156638E+02 -0.40051155446E+03  0.43773011825E+03  0.17211951410E+03 0.  0.
        -24    2    5    5    0    0 -0.71557093578E+02  0.10278139059E+02 -0.34619525379E+03  0.36283496636E+03  0.81067880702E+02 0.  0.
          5    1    3    3  501    0 -0.38364926932E+02 -0.14737592248E+02 -0.31578962620E+03  0.31848742873E+03  0.47000000000E+01 0. -1.
        -11    1    4    4    0    0  0.67913640990E+02 -0.14097784738E+02 -0.17574006815E+03  0.18893274391E+03  0.00000000000E+00 0.  1.
         12    1    4    4    0    0  0.28249961789E+01  0.51747533624E+02 -0.17123226275E+03  0.17890297830E+03  0.00000000000E+00 0. -1.
         -5    1    5    5    0  502  0.39183383341E+02 -0.33190295698E+02 -0.54316300665E+02  0.74895151890E+02  0.47000000000E+01 0.  1.
         13    1    6    6    0    0 -0.37861984647E+01  0.21608437952E+02 -0.20685435665E+02  0.30152066898E+02  0.00000000000E+00 0. -1.
        -14    1    6    6    0    0 -0.67770895114E+02 -0.11330298893E+02 -0.32550981813E+03  0.33268289946E+03  0.00000000000E+00 0.  1.
</event>
<event>
12    1  0.8133495E-002  0.2149497E+03  0.7818608E-02  0.1138009E+00
         21   -1    0    0  503  502  0.00000000000E+00  0.00000000000E+00  0.28093766139E+03  0.28093766139E+03  0.00000000000E+00 0.  1.
         21   -1    0    0  501  503 -0.00000000000E+00 -0.00000000000E+00 -0.17159365669E+03  0.17159365669E+03  0.00000000000E+00 0.  1.
          6    2    1    2  501    0 -0.10070535518E+03 -0.77371974637E+02  0.10435141548E+03  0.23752365939E+03  0.17146509801E+03 0.  0.
         24    2    3    3    0    0 -0.56081595723E+02 -0.86706474231E+01  0.12298884392E+03  0.15337738195E+03  0.71958599618E+02 0.  0.
         -6    2    1    2    0  502  0.10070535518E+03  0.77371974637E+02  0.49925892166E+01  0.21500765870E+03  0.17342253698E+03 0.  0.
        -24    2    5    5    0    0  0.13291465388E+03  0.60965677386E+02  0.32141824861E+02  0.16955684453E+03  0.79582080818E+02 0.  0.
          5    1    3    3  501    0 -0.44623759455E+02 -0.68701327213E+02 -0.18637428433E+02  0.84146277442E+02  0.47000000000E+01 0. -1.
        -13    1    4    4    0    0 -0.51322863797E+02 -0.29485645606E+02  0.50487776397E+02  0.77797527021E+02  0.00000000000E+00 0.  1.
         14    1    4    4    0    0 -0.47587319267E+01  0.20814998183E+02  0.72501067520E+02  0.75579854925E+02  0.00000000000E+00 0. -1.
         -5    1    5    5    0  502 -0.32209298701E+02  0.16406297251E+02 -0.27149235645E+02  0.45450814166E+02  0.47000000000E+01 0.  1.
         13    1    6    6    0    0  0.64940401576E+02  0.20929187271E+01 -0.16889458006E+02  0.67133373648E+02  0.00000000000E+00 0. -1.
        -14    1    6    6    0    0  0.67974252303E+02  0.58872758659E+02  0.49031282867E+02  0.10242347088E+03  0.00000000000E+00 0.  1.
</event>
<event>
12    1  0.8133495E-002  0.1983234E+03  0.7818608E-02  0.1155957E+00
         21   -1    0    0  501  502  0.00000000000E+00  0.00000000000E+00  0.35263021408E+03  0.35263021408E+03  0.00000000000E+00 0. -1.
         21   -1    0    0  502  503 -0.00000000000E+00 -0.00000000000E+00 -0.99949058110E+02  0.99949058110E+02  0.00000000000E+00 0. -1.
         -6    2    1    2    0  503  0.79648302262E+02 -0.34930548196E+01  0.13296782267E+03  0.23877315820E+03  0.18159329758E+03 0.  0.
        -24    2    3    3    0    0  0.10365747949E+00 -0.22034626692E+02  0.30981854161E+01  0.85282594707E+02  0.82328529009E+02 0.  0.
          6    2    1    2  501    0 -0.79648302262E+02  0.34930548196E+01  0.11971333330E+03  0.21380611399E+03  0.15819519185E+03 0.  0.
         24    2    5    5    0    0 -0.60447403852E+02 -0.40607290853E+02  0.30684769738E+02  0.11250611341E+03  0.80082643296E+02 0.  0.
          5    1    5    5  501    0 -0.19200898410E+02  0.44100345673E+02  0.89028563558E+02  0.10130000058E+03  0.47000000000E+01 0. -1.
        -11    1    6    6    0    0 -0.58711669416E+02 -0.25159088200E+02  0.54567423340E+02  0.84009782375E+02  0.00000000000E+00 0.  1.
         12    1    6    6    0    0 -0.17357344358E+01 -0.15448202653E+02 -0.23882653602E+02  0.28496331033E+02  0.00000000000E+00 0. -1.
         -5    1    3    3    0  503  0.79544644782E+02  0.18541571872E+02  0.12986963725E+03  0.15349056349E+03  0.47000000000E+01 0.  1.
         13    1    4    4    0    0 -0.18625022389E+02 -0.56734274038E+01  0.37841268275E+02  0.42556325290E+02  0.00000000000E+00 0. -1.
        -14    1    4    4    0    0  0.18728679868E+02 -0.16361199288E+02 -0.34743082859E+02  0.42726269417E+02  0.00000000000E+00 0.  1.
</event>
<event>
12    1  0.8133495E-002  0.1763380E+03  0.7818608E-02  0.1171402E+00
         21   -1    0    0  503  502  0.00000000000E+00  0.00000000000E+00  0.19794518622E+03  0.19794518622E+03  0.00000000000E+00 0.  1.
         21   -1    0    0  501  503 -0.00000000000E+00 -0.00000000000E+00 -0.19841498534E+03  0.19841498534E+03  0.00000000000E+00 0.  1.
          6    2    1    2  501    0  0.17527414087E+02 -0.32898540831E+02 -0.90706290827E+02  0.19829960825E+03  0.17235306555E+03 0.  0.
         24    2    3    3    0    0 -0.38882078455E+01  0.37332652896E+02 -0.58669554327E+01  0.86001557225E+02  0.77155696787E+02 0.  0.
         -6    2    1    2    0  502 -0.17527414087E+02  0.32898540831E+02  0.90236491702E+02  0.19806056330E+03  0.17232480398E+03 0.  0.
        -24    2    5    5    0    0  0.10131285540E+02  0.70614784981E+02  0.10413838524E+03  0.14904147129E+03  0.79243082207E+02 0.  0.
          5    1    3    3  501    0  0.21415621933E+02 -0.70231193726E+02 -0.84839335394E+02  0.11229805103E+03  0.47000000000E+01 0. -1.
        -11    1    4    4    0    0 -0.39814577262E+02  0.19592423196E+02 -0.10692866970E+02  0.45644287850E+02  0.00000000000E+00 0.  1.
         12    1    4    4    0    0  0.35926369417E+02  0.17740229700E+02  0.48259115375E+01  0.40357269375E+02  0.00000000000E+00 0. -1.
         -5    1    5    5    0  502 -0.27658699627E+02 -0.37716244151E+02 -0.13901893543E+02  0.49019092015E+02  0.47000000000E+01 0.  1.
         11    1    6    6    0    0  0.25282478091E+02  0.36678506887E+01  0.15320341243E+01  0.25593045064E+02  0.00000000000E+00 0. -1.
        -12    1    6    6    0    0 -0.15151192551E+02  0.66946934293E+02  0.10260635112E+03  0.12344842622E+03  0.00000000000E+00 0.  1.
</event>
<event>
12    1  0.8133495E-002  0.1846163E+03  0.7818608E-02  0.1163888E+00
         21   -1    0    0  503  502  0.00000000000E+00  0.00000000000E+00  0.11702891488E+04  0.11702891488E+04  0.00000000000E+00 0. -1.
         21   -1    0    0  501  503 -0.00000000000E+00 -0.00000000000E+00 -0.15740924219E+03  0.15740924219E+03  0.00000000000E+00 0. -1.
          6    2    1    2  501    0  0.50419624745E+02 -0.40575375469E+02 -0.93090600851E+02  0.20675841678E+03  0.17290079031E+03 0.  0.
         24    2    3    3    0    0  0.45655943471E+02 -0.91646000960E+02 -0.48777194525E+02  0.13881233943E+03  0.80038716920E+02 0.  0.
         -6    2    1    2    0  502 -0.50419624745E+02  0.40575375469E+02  0.11059705075E+04  0.11209399743E+04  0.17072540165E+03 0.  0.
        -24    2    5    5    0    0  0.35655071069E+02  0.43185071372E+02  0.48019055673E+03  0.48924518992E+03  0.75110921995E+02 0.  0.
          5    1    3    3  501    0  0.47636812747E+01  0.51070625491E+02 -0.44313406326E+02  0.67946077352E+02  0.47000000000E+01 0. -1.
        -13    1    4    4    0    0  0.63056379961E+02 -0.81950538633E+02 -0.56038486949E+02  0.11761084072E+03  0.00000000000E+00 0.  1.
         14    1    4    4    0    0 -0.17400436490E+02 -0.96954623269E+01  0.72612924239E+01  0.21201498708E+02  0.00000000000E+00 0. -1.
         -5    1    5    5    0  502 -0.86074695814E+02 -0.26096959030E+01  0.62577995077E+03  0.63169478434E+03  0.47000000000E+01 0.  1.
         13    1    6    6    0    0  0.11344736516E+02  0.61773140599E+02  0.34017440690E+03  0.34592376480E+03  0.00000000000E+00 0. -1.
        -14    1    6    6    0    0  0.24310334553E+02 -0.18588069227E+02  0.14001614983E+03  0.14332142511E+03  0.00000000000E+00 0.  1.
</event>
<event>
12    1  0.8133495E-002  0.1740970E+03  0.7818608E-02  0.1173863E+00
         21   -1    0    0  501  502  0.00000000000E+00  0.00000000000E+00  0.74135931800E+02  0.74135931800E+02  0.00000000000E+00 0.  1.
         21   -1    0    0  502  503 -0.00000000000E+00 -0.00000000000E+00 -0.41178141372E+03  0.41178141372E+03  0.00000000000E+00 0.  1.
         -6    2    1    2    0  503  0.20434709523E+02  0.52241225264E+00 -0.14166222524E+03  0.22377386478E+03  0.17201368036E+03 0.  0.
        -24    2    3    3    0    0  0.79715363007E+02 -0.49504544881E+01 -0.80256055689E+02  0.13811783284E+03  0.79097757085E+02 0.  0.
          6    2    1    2  501    0 -0.20434709523E+02 -0.52241225264E+00 -0.19598325668E+03  0.26214348074E+03  0.17289279143E+03 0.  0.
         24    2    5    5    0    0  0.24330984335E+02  0.47165053057E+02 -0.15948228811E+03  0.18709368127E+03  0.82176069031E+02 0.  0.
          5    1    5    5  501    0 -0.44765693857E+02 -0.47687465310E+02 -0.36500968570E+02  0.75049799472E+02  0.47000000000E+01 0. -1.
        -11    1    6    6    0    0  0.16322327766E+02  0.55320189414E+02 -0.16471594366E+03  0.17452244508E+03  0.00000000000E+00 0.  1.
         12    1    6    6    0    0  0.80086565687E+01 -0.81551363569E+01  0.52336555467E+01  0.12571236193E+02  0.00000000000E+00 0. -1.
         -5    1    3    3    0  503 -0.59280653484E+02  0.54728667408E+01 -0.61406169547E+02  0.85656031932E+02  0.47000000000E+01 0.  1.
         13    1    4    4    0    0  0.28819310152E+02 -0.34233176972E+02 -0.62318059175E+02  0.76720294203E+02  0.00000000000E+00 0. -1.
        -14    1    4    4    0    0  0.50896052855E+02  0.29282722484E+02 -0.17937996515E+02  0.61397538642E+02  0.00000000000E+00 0.  1.
</event>
<event>
12    1  0.8133495E-002  0.1745945E+03  0.7818608E-02  0.1173675E+00
         21   -1    0    0  501  502  0.00000000000E+00  0.00000000000E+00  0.24668424159E+03  0.24668424159E+03  0.00000000000E+00 0. -1.
         21   -1    0    0  502  503 -0.00000000000E+00 -0.00000000000E+00 -0.14077114419E+03  0.14077114419E+03  0.00000000000E+00 0. -1.
         -6    2    1    2    0  503  0.13483805919E+02 -0.29005481804E+02 -0.17911687557E+02  0.17340906763E+03  0.16948966100E+03 0.  0.
        -24    2    3    3    0    0 -0.49127768245E+02 -0.45408642707E+02 -0.13210553006E+02  0.10834399579E+03  0.84192756624E+02 0.  0.
          6    2    1    2  501    0 -0.13483805919E+02  0.29005481804E+02  0.12382478495E+03  0.21404631816E+03  0.17163949997E+03 0.  0.
         24    2    5    5    0    0  0.55528741244E+02  0.37659502996E+01  0.69369229808E+02  0.12246431609E+03  0.84189044332E+02 0.  0.
          5    1    5    5  501    0 -0.69012547163E+02  0.25239531504E+02  0.54455555141E+02  0.91582002065E+02  0.47000000000E+01 0. -1.
        -13    1    6    6    0    0  0.62442109582E+02 -0.20231203091E+02  0.71910254881E+02  0.97362227710E+02  0.00000000000E+00 0.  1.
         14    1    6    6    0    0 -0.69133683378E+01  0.23997153391E+02 -0.25410250734E+01  0.25102088380E+02  0.00000000000E+00 0. -1.
         -5    1    3    3    0  503  0.62611574164E+02  0.16403160904E+02 -0.47011345506E+01  0.65065071836E+02  0.47000000000E+01 0.  1.
         13    1    4    4    0    0 -0.28337004719E+02 -0.53000940506E+02 -0.41047257473E+02  0.72780236858E+02  0.00000000000E+00 0. -1.
        -14    1    4    4    0    0 -0.20790763526E+02  0.75922977991E+01  0.27836704467E+02  0.35563758933E+02  0.00000000000E+00 0.  1.
</event>
<event>
12    1  0.8133495E-002  0.2193431E+03  0.7818608E-02  0.1134459E+00
         21   -1    0    0  501  502  0.00000000000E+00  0.00000000000E+00  0.35866958914E+03  0.35866958914E+03  0.00000000000E+00 0. -1.
         21   -1    0    0  502  503 -0.00000000000E+00 -0.00000000000E+00 -0.14494765278E+03  0.14494765278E+03  0.00000000000E+00 0.  1.
         -6    2    1    2    0  503  0.28265377676E+02 -0.13215031883E+03  0.37322622418E+02  0.22249580323E+03  0.17276795411E+03 0.  0.
        -24    2    3    3    0    0  0.59027328361E+02 -0.10989757490E+03  0.77527229644E+02  0.16699821171E+03  0.79474706137E+02 0.  0.
          6    2    1    2  501    0 -0.28265377676E+02  0.13215031883E+03  0.17639931393E+03  0.28112143869E+03  0.17219148351E+03 0.  0.
         24    2    5    5    0    0 -0.15435077857E+02  0.40456572987E+02  0.97983556388E+01  0.90463816432E+02  0.78820799184E+02 0.  0.
          5    1    5    5  501    0 -0.12830299820E+02  0.91693745845E+02  0.16660095829E+03  0.19065762226E+03  0.47000000000E+01 0. -1.
        -11    1    6    6    0    0 -0.45231796536E+02  0.34282046687E+02  0.16896622657E+02  0.59217142790E+02  0.00000000000E+00 0.  1.
         12    1    6    6    0    0  0.29796718679E+02  0.61745262993E+01 -0.70982670186E+01  0.31246673642E+02  0.00000000000E+00 0. -1.
         -5    1    3    3    0  503 -0.30761950685E+02 -0.22252743931E+02 -0.40204607226E+02  0.55497591520E+02  0.47000000000E+01 0.  1.
         11    1    4    4    0    0  0.14248809658E+02 -0.93022524356E+02  0.72669745292E+02  0.11889958156E+03  0.00000000000E+00 0. -1.
        -12    1    4    4    0    0  0.44778518703E+02 -0.16875050545E+02  0.48574843519E+01  0.48098630151E+02  0.00000000000E+00 0.  1.
</event>
<event>
12    1  0.8133495E-002  0.2282054E+03  0.7818608E-02  0.1128387E+00
         21   -1    0    0  501  502  0.00000000000E+00  0.00000000000E+00  0.49532254944E+02  0.49532254944E+02  0.00000000000E+00 0.  1.
         21   -1    0    0  502  503 -0.00000000000E+00 -0.00000000000E+00 -0.10791609569E+04  0.10791609569E+04  0.00000000000E+00 0. -1.
         -6    2    1    2    0  503  0.12168575002E+03 -0.87718632368E+02 -0.62060904040E+03  0.66031860621E+03  0.16841348063E+03 0.  0.
        -24    2    3    3    0    0  0.23325894030E+02 -0.93951870289E+02 -0.36748365927E+03  0.38864221213E+03  0.81409323543E+02 0.  0.
          6    2    1    2  501    0 -0.12168575002E+03  0.87718632368E+02 -0.40901966155E+03  0.46837460563E+03  0.17197589203E+03 0.  0.
         24    2    5    5    0    0 -0.31149679014E+02  0.23870480816E+02 -0.71338855481E+02  0.11295403307E+03  0.78289711507E+02 0.  0.
          5    1    5    5  501    0 -0.90536071009E+02  0.63848151552E+02 -0.33768080607E+03  0.35542057256E+03  0.47000000000E+01 0. -1.
        -13    1    6    6    0    0 -0.45281166914E+02  0.43003564651E+02 -0.60010963628E+02  0.86608350668E+02  0.00000000000E+00 0.  1.
         14    1    6    6    0    0  0.14131487901E+02 -0.19133083834E+02 -0.11327891853E+02  0.26345682400E+02  0.00000000000E+00 0. -1.
         -5    1    3    3    0  503  0.98359855993E+02  0.62332379212E+01 -0.25312538113E+03  0.27167639408E+03  0.47000000000E+01 0.  1.
         11    1    4    4    0    0  0.47453656506E+02 -0.60166611851E+02 -0.29805438050E+03  0.30774711117E+03  0.00000000000E+00 0. -1.
        -12    1    4    4    0    0 -0.24127762476E+02 -0.33785258438E+02 -0.69429278770E+02  0.80895100966E+02  0.00000000000E+00 0.  1.
</event>
<event>
12    1  0.8133495E-002  0.1878613E+03  0.7818608E-02  0.1160499E+00
         21   -1    0    0  501  502  0.00000000000E+00  0.00000000000E+00  0.13664431863E+02  0.13664431863E+02  0.00000000000E+00 0.  1.
         21   -1    0    0  502  503 -0.00000000000E+00 -0.00000000000E+00 -0.26527879428E+04  0.26527879428E+04  0.00000000000E+00 0. -1.
         -6    2    1    2    0  503 -0.72483037357E+02  0.22226613959E+02 -0.15461946898E+04  0.15575653719E+04  0.17188384360E+03 0.  0.
        -24    2    3    3    0    0 -0.66186741173E+02 -0.33013592220E+02 -0.13212922490E+04  0.13258450197E+04  0.81124761678E+02 0.  0.
          6    2    1    2  501    0  0.72483037357E+02 -0.22226613959E+02 -0.10929288212E+04  0.11088870029E+04  0.17143268039E+03 0.  0.
         24    2    5    5    0    0  0.12719568954E+02 -0.52470890127E+02 -0.38118800200E+03  0.39398598030E+03  0.83699928652E+02 0.  0.
          5    1    5    5  501    0  0.59763468403E+02  0.30244276168E+02 -0.71174081916E+03  0.71490102256E+03  0.47000000000E+01 0. -1.
        -11    1    6    6    0    0 -0.29426080890E+02 -0.17241162375E+02 -0.68621450305E+02  0.76629337453E+02  0.00000000000E+00 0.  1.
         12    1    6    6    0    0  0.42145649843E+02 -0.35229727752E+02 -0.31256655170E+03  0.31735664285E+03  0.00000000000E+00 0. -1.
         -5    1    3    3    0  503 -0.62962961839E+01  0.55240206179E+02 -0.22490244078E+03  0.23172035213E+03  0.47000000000E+01 0.  1.
         11    1    4    4    0    0 -0.23664040191E+02  0.16437095786E+02 -0.79574403294E+03  0.79626549019E+03  0.00000000000E+00 0. -1.
        -12    1    4    4    0    0 -0.42522700982E+02 -0.49450688006E+02 -0.52554821611E+03  0.52957952953E+03  0.00000000000E+00 0.  1.
</event>
<event>
12    1  0.8133495E-002  0.2072630E+03  0.7818608E-02  0.1143767E+00
         21   -1    0    0  501  502  0.00000000000E+00  0.00000000000E+00  0.83644034829E+02  0.83644034829E+02  0.00000000000E+00 0. -1.
         21   -1    0    0  502  503 -0.00000000000E+00 -0.00000000000E+00 -0.75721050912E+03  0.75721050912E+03  0.00000000000E+00 0.  1.
         -6    2    1    2    0  503  0.74300157277E+02 -0.88017401817E+02 -0.57530895900E+03  0.61148040960E+03  0.17222170774E+03 0.  0.
        -24    2    3    3    0    0  0.75503589671E+02 -0.11309423693E+03 -0.56011941979E+03  0.58176327632E+03  0.78890092939E+02 0.  0.
          6    2    1    2  501    0 -0.74300157277E+02  0.88017401817E+02 -0.98257515283E+02  0.22937413435E+03  0.17230896031E+03 0.  0.
         24    2    5    5    0    0 -0.10250763736E+03  0.46100470126E+02 -0.11154468698E+03  0.17692101217E+03  0.78903474520E+02 0.  0.
          5    1    5    5  501    0  0.28207480079E+02  0.41916931691E+02  0.13287171695E+02  0.52453122180E+02  0.47000000000E+01 0. -1.
        -11    1    6    6    0    0 -0.51114976113E+02  0.51508457493E+01 -0.96780574414E+02  0.10957076060E+03  0.00000000000E+00 0.  1.
         12    1    6    6    0    0 -0.51392661244E+02  0.40949624376E+02 -0.14764112564E+02  0.67350251567E+02  0.00000000000E+00 0. -1.
         -5    1    3    3    0  503 -0.12034323933E+01  0.25076835114E+02 -0.15189539211E+02  0.29717133279E+02  0.47000000000E+01 0.  1.
         11    1    4    4    0    0  0.30035071464E+02 -0.87603144387E+01 -0.49078785412E+02  0.58202884846E+02  0.00000000000E+00 0. -1.
        -12    1    4    4    0    0  0.45468518207E+02 -0.10433392249E+03 -0.51104063438E+03  0.52356039147E+03  0.00000000000E+00 0.  1.
</event>
<event>
12    1  0.8133495E-002  0.2907550E+03  0.7818608E-02  0.1090062E+00
         21   -1    0    0  501  502  0.00000000000E+00  0.00000000000E+00  0.91871137687E+02  0.91871137687E+02  0.00000000000E+00 0. -1.
         21   -1    0    0  502  503 -0.00000000000E+00 -0.00000000000E+00 -0.91917226090E+03  0.91917226090E+03  0.00000000000E+00 0.  1.
         -6    2    1    2    0  503 -0.22965861698E+03 -0.40045951288E+02 -0.39213694930E+03  0.48768280042E+03  0.17238436198E+03 0.  0.
        -24    2    3    3    0    0 -0.41269452068E+02 -0.29264105958E+02 -0.14081881486E+03  0.17337463899E+03  0.87574375561E+02 0.  0.
          6    2    1    2  501    0  0.22965861698E+03  0.40045951288E+02 -0.43516417391E+03  0.52336059816E+03  0.17375758655E+03 0.  0.
         24    2    5    5    0    0  0.47032052647E+02 -0.24983346548E+02 -0.17679745953E+03  0.20031768975E+03  0.77676595879E+02 0.  0.
          5    1    5    5  501    0  0.18262656434E+03  0.65029297836E+02 -0.25836671438E+03  0.32304290842E+03  0.47000000000E+01 0. -1.
        -11    1    6    6    0    0 -0.14954813897E+02  0.10089463975E+02 -0.14724767012E+02  0.23286530560E+02  0.00000000000E+00 0.  1.
         12    1    6    6    0    0  0.61986866544E+02 -0.35072810523E+02 -0.16207269252E+03  0.17703115919E+03  0.00000000000E+00 0. -1.
         -5    1    3    3    0  503 -0.18838916491E+03 -0.10781845330E+02 -0.25131813443E+03  0.31430816143E+03  0.47000000000E+01 0.  1.
         11    1    4    4    0    0 -0.20533844590E+02  0.18383682611E+02 -0.50745523310E+01  0.28024090375E+02  0.00000000000E+00 0. -1.
        -12    1    4    4    0    0 -0.20735607477E+02 -0.47647788569E+02 -0.13574426253E+03  0.14535054862E+03  0.00000000000E+00 0.  1.
</event>
<event>
12    1  0.8133495E-002  0.2146202E+03  0.7818608E-02  0.1138070E+00
         21   -1    0    0  501  502  0.00000000000E+00  0.00000000000E+00  0.59816565671E+03  0.59816565671E+03  0.00000000000E+00 0. -1.
         21   -1    0    0  502  503 -0.00000000000E+00 -0.00000000000E+00 -0.34867964717E+03  0.34867964717E+03  0.00000000000E+00 0. -1.
         -6    2    1    2    0  503 -0.93942105415E+02  0.87861562949E+02 -0.29334098197E+03  0.36313051689E+03  0.17108497065E+03 0.  0.
        -24    2    3    3    0    0 -0.10044752626E+03  0.83127473368E+02 -0.30902124830E+03  0.34489064692E+03  0.80346400499E+02 0.  0.
          6    2    1    2  501    0  0.93942105415E+02 -0.87861562949E+02  0.54282699151E+03  0.58371478699E+03  0.17180522818E+03 0.  0.
         24    2    5    5    0    0 -0.15866944827E+02 -0.45339012582E+02  0.28300530729E+03  0.29841565907E+03  0.81562954966E+02 0.  0.
          5    1    5    5  501    0  0.10980905024E+03 -0.42522550367E+02  0.25982168422E+03  0.28529912793E+03  0.47000000000E+01 0. -1.
        -11    1    6    6    0    0 -0.11006893807E+02 -0.67713887662E+02  0.24101555735E+03  0.25058894863E+03  0.00000000000E+00 0.  1.
         12    1    6    6    0    0 -0.48600510199E+01  0.22374875081E+02  0.41989749943E+02  0.47826710435E+02  0.00000000000E+00 0. -1.
         -5    1    3    3    0  503  0.65054208422E+01  0.47340895811E+01  0.15680266329E+02  0.18239869974E+02  0.47000000000E+01 0.  1.
         13    1    4    4    0    0 -0.90983798889E+02  0.29218563042E+02 -0.22689050787E+03  0.24619317344E+03  0.00000000000E+00 0. -1.
        -14    1    4    4    0    0 -0.94637273688E+01  0.53908910325E+02 -0.82130740428E+02  0.98697473481E+02  0.00000000000E+00 0.  1.
</event>
<event>
12    1  0.8133495E-002  0.2568432E+03  0.7818608E-02  0.1109281E+00
         21   -1    0    0  501  502  0.00000000000E+00  0.00000000000E+00  0.14940392720E+03  0.14940392720E+03  0.00000000000E+00 0.  1.
         21   -1    0    0  502  503 -0.00000000000E+00 -0.00000000000E+00 -0.44764429838E+03  0.44764429838E+03  0.00000000000E+00 0. -1.
         -6    2    1    2    0  503  0.16760356605E+03  0.90702371765E+02 -0.19015608834E+03  0.31838954549E+03  0.16998437912E+03 0.  0.
        -24    2    3    3    0    0  0.47885426374E+02  0.80533603065E+02 -0.14195029714E+03  0.18884524754E+03  0.82060742012E+02 0.  0.
          6    2    1    2  501    0 -0.16760356605E+03 -0.90702371765E+02 -0.10808428283E+03  0.27865868009E+03  0.17219341508E+03 0.  0.
         24    2    5    5    0    0 -0.98515444576E+02 -0.10038811539E+03 -0.12652154401E+03  0.20634682243E+03  0.82390797396E+02 0.  0.
          5    1    5    5  501    0 -0.69088121474E+02  0.96857436239E+01  0.18437261178E+02  0.72311857659E+02  0.47000000000E+01 0. -1.
        -13    1    6    6    0    0  0.12641801184E+02  0.57598379171E+00 -0.73053563471E+01  0.14612156784E+02  0.00000000000E+00 0.  1.
         14    1    6    6    0    0 -0.11115724576E+03 -0.10096409918E+03 -0.11921618767E+03  0.19173466565E+03  0.00000000000E+00 0. -1.
         -5    1    3    3    0  503  0.11971813968E+03  0.10168768700E+02 -0.48205791201E+02  0.12954429794E+03  0.47000000000E+01 0.  1.
         11    1    4    4    0    0  0.63699149835E+02  0.39045772616E+02 -0.11425829419E+03  0.13651780778E+03  0.00000000000E+00 0. -1.
        -12    1    4    4    0    0 -0.15813723461E+02  0.41487830449E+02 -0.27692002951E+02  0.52327439767E+02  0.00000000000E+00 0.  1.
</event>
<event>
12    1  0.8133495E-002  0.2694181E+03  0.7818608E-02  0.1101714E+00
         21   -1    0    0  503  502  0.00000000000E+00  0.00000000000E+00  0.99973897262E+02  0.99973897262E+02  0.00000000000E+00 0.  1.
         21   -1    0    0  501  503 -0.00000000000E+00 -0.00000000000E+00 -0.12950098353E+04  0.12950098353E+04  0.00000000000E+00 0. -1.
          6    2    1    2  501    0 -0.17043524601E+03  0.11824717283E+03 -0.10610397191E+04  0.10947106337E+04  0.17191718630E+03 0.  0.
         24    2    3    3    0    0 -0.17457386441E+03  0.14592418212E+03 -0.95482823922E+03  0.98477377239E+03  0.79451339230E+02 0.  0.
         -6    2    1    2    0  502  0.17043524601E+03 -0.11824717283E+03 -0.13399621897E+03  0.30027309895E+03  0.17081680330E+03 0.  0.
        -24    2    5    5    0    0  0.12088786120E+03 -0.12621192796E+03 -0.43949427217E+02  0.19707961383E+03  0.79784060369E+02 0.  0.
          5    1    3    3  501    0  0.41386184005E+01 -0.27677009287E+02 -0.10621147989E+03  0.10993686127E+03  0.47000000000E+01 0. -1.
        -11    1    4    4    0    0 -0.13588291599E+02  0.48085862499E+02 -0.14662907510E+03  0.15490957848E+03  0.00000000000E+00 0.  1.
         12    1    4    4    0    0 -0.16098557281E+03  0.97838319619E+02 -0.80819916412E+03  0.82986419390E+03  0.00000000000E+00 0. -1.
         -5    1    5    5    0  502  0.49547384807E+02  0.79647551342E+01 -0.90046791758E+02  0.10319348512E+03  0.47000000000E+01 0.  1.
         11    1    6    6    0    0  0.11041135990E+02 -0.35468407895E+02 -0.39937272305E+02  0.54542647183E+02  0.00000000000E+00 0. -1.
        -12    1    6    6    0    0  0.10984672521E+03 -0.90743520070E+02 -0.40121549123E+01  0.14253696665E+03  0.00000000000E+00 0.  1.
</event>
<event>
12    1  0.8133495E-002  0.5278510E+03  0.7818608E-02  0.1006779E+00
         21   -1    0    0  501  502  0.00000000000E+00  0.00000000000E+00  0.13339387081E+04  0.13339387081E+04  0.00000000000E+00 0.  1.
         21   -1    0    0  502  503 -0.00000000000E+00 -0.00000000000E+00 -0.28548181781E+03  0.28548181781E+03  0.00000000000E+00 0. -1.
         -6    2    1    2    0  503  0.29160652020E+03 -0.40451990361E+03  0.10449997689E+03  0.53809568152E+03  0.17307802364E+03 0.  0.
        -24    2    3    3    0    0  0.27766055497E+03 -0.41709806756E+03  0.93632623902E+02  0.51589456634E+03  0.79460390004E+02 0.  0.
          6    2    1    2  501    0 -0.29160652020E+03  0.40451990361E+03  0.94395691338E+03  0.10813248444E+04  0.17186637164E+03 0.  0.
         24    2    5    5    0    0 -0.19003655159E+03  0.15331754347E+03  0.46952232739E+03  0.53494644926E+03  0.78078982963E+02 0.  0.
          5    1    5    5  501    0 -0.10156996861E+03  0.25120236014E+03  0.47443458599E+03  0.54637839512E+03  0.47000000000E+01 0. -1.
        -11    1    6    6    0    0 -0.47071485653E+02  0.85311637505E+02  0.16136508212E+03  0.18850063656E+03  0.00000000000E+00 0.  1.
         12    1    6    6    0    0 -0.14296506594E+03  0.68005905960E+02  0.30815724527E+03  0.34644581270E+03  0.00000000000E+00 0. -1.
         -5    1    3    3    0  503  0.13945965226E+02  0.12578163946E+02  0.10867352986E+02  0.22201115180E+02  0.47000000000E+01 0.  1.
         13    1    4    4    0    0  0.19039185080E+03 -0.21728095353E+03  0.63349834374E+02  0.29575880567E+03  0.00000000000E+00 0. -1.
        -14    1    4    4    0    0  0.87268704174E+02 -0.19981711402E+03  0.30282789528E+02  0.22013576067E+03  0.00000000000E+00 0.  1.
</event>
<event>
12    1  0.8133495E-002  0.2250872E+03  0.7818608E-02  0.1130163E+00
         21   -1    0    0  501  502  0.00000000000E+00  0.00000000000E+00  0.34582946328E+03  0.34582946328E+03  0.00000000000E+00 0. -1.
         21   -1    0    0  502  503 -0.00000000000E+00 -0.00000000000E+00 -0.20181239403E+03  0.20181239403E+03  0.00000000000E+00 0.  1.
         -6    2    1    2    0  503  0.63974764377E+02  0.12975150875E+03 -0.71430378778E+02  0.23606228578E+03  0.17232202197E+03 0.  0.
        -24    2    3    3    0    0 -0.15377532374E+01  0.86558472332E+01 -0.54572084421E+02  0.97273448729E+02  0.80042008053E+02 0.  0.
          6    2    1    2  501    0 -0.63974764377E+02 -0.12975150875E+03  0.21544744803E+03  0.31157957153E+03  0.17244130025E+03 0.  0.
         24    2    5    5    0    0 -0.38017382327E+01 -0.13009654023E+03  0.11988118603E+03  0.19854898914E+03  0.90059088002E+02 0.  0.
          5    1    5    5  501    0 -0.60173026144E+02  0.34503148629E+00  0.95566262000E+02  0.11303058239E+03  0.47000000000E+01 0. -1.
        -11    1    6    6    0    0  0.13805007525E+02 -0.25154939828E+02 -0.10233213867E+02  0.30464206810E+02  0.00000000000E+00 0.  1.
         12    1    6    6    0    0 -0.17606745757E+02 -0.10494160040E+03  0.13011439990E+03  0.16808478233E+03  0.00000000000E+00 0. -1.
         -5    1    3    3    0  503  0.65512517614E+02  0.12109566151E+03 -0.16858294357E+02  0.13878883705E+03  0.47000000000E+01 0.  1.
         13    1    4    4    0    0 -0.28010576598E+02  0.30479661423E+02 -0.13035242235E+02  0.43399535734E+02  0.00000000000E+00 0. -1.
        -14    1    4    4    0    0  0.26472823361E+02 -0.21823814190E+02 -0.41536842186E+02  0.53873912994E+02  0.00000000000E+00 0.  1.
</event>
<event>
12    1  0.8133495E-002  0.1850346E+03  0.7818608E-02  0.1164447E+00
         21   -1    0    0  501  502  0.00000000000E+00  0.00000000000E+00  0.53259748816E+03  0.53259748816E+03  0.00000000000E+00 0. -1.
         21   -1    0    0  502  503 -0.00000000000E+00 -0.00000000000E+00 -0.79863247185E+02  0.79863247185E+02  0.00000000000E+00 0. -1.
         -6    2    1    2    0  503 -0.69607783399E+02 -0.48418130906E+01  0.85326035430E+02  0.20376047509E+03  0.17137418774E+03 0.  0.
        -24    2    3    3    0    0 -0.10670496239E+03 -0.49862700744E+01  0.29387128315E+02  0.13647397655E+03  0.79691474307E+02 0.  0.
          6    2    1    2  501    0  0.69607783399E+02  0.48418130906E+01  0.36740820554E+03  0.40870026025E+03  0.16485880797E+03 0.  0.
         24    2    5    5    0    0  0.10052419185E+02 -0.53233075724E+02  0.23445999313E+03  0.25180267805E+03  0.74150447140E+02 0.  0.
          5    1    5    5  501    0  0.59555364214E+02  0.58074888814E+02  0.13294821241E+03  0.15689758220E+03  0.47000000000E+01 0. -1.
        -11    1    6    6    0    0 -0.17176905474E+02  0.53069366946E+01  0.16222066691E+02  0.24214976904E+02  0.00000000000E+00 0.  1.
         12    1    6    6    0    0  0.27229324659E+02 -0.58540012418E+02  0.21823792644E+03  0.22758770114E+03  0.00000000000E+00 0. -1.
         -5    1    3    3    0  503  0.37097178989E+02  0.14445698371E+00  0.55938907115E+02  0.67286498542E+02  0.47000000000E+01 0.  1.
         13    1    4    4    0    0 -0.10923422130E+03 -0.24766967936E+02  0.31680195899E+02  0.11640082738E+03  0.00000000000E+00 0. -1.
        -14    1    4    4    0    0  0.25292589101E+01  0.19780697861E+02 -0.22930675837E+01  0.20073149166E+02  0.00000000000E+00 0.  1.
</event>
<event>
12    1  0.8133495E-002  0.2566258E+03  0.7818608E-02  0.1109347E+00
         21   -1    0    0  503  502  0.00000000000E+00  0.00000000000E+00  0.56871622527E+02  0.56871622527E+02  0.00000000000E+00 0. -1.
         21   -1    0    0  501  503 -0.00000000000E+00 -0.00000000000E+00 -0.11658189137E+04  0.11658189137E+04  0.00000000000E+00 0. -1.
          6    2    1    2  501    0 -0.16517318240E+03 -0.90965659643E+02 -0.48997364376E+03  0.55262696631E+03  0.17252669618E+03 0.  0.
         24    2    3    3    0    0 -0.10033463086E+03  0.19107473185E+02 -0.21297604368E+03  0.24755338046E+03  0.74106324368E+02 0.  0.
         -6    2    1    2    0  502  0.16517318240E+03  0.90965659643E+02 -0.61897364738E+03  0.67006356989E+03  0.17406860750E+03 0.  0.
        -24    2    5    5    0    0  0.18871905420E+02  0.47878423663E+02 -0.32962768070E+03  0.34294929018E+03  0.79443788217E+02 0.  0.
          5    1    3    3  501    0 -0.64838551541E+02 -0.11007313283E+03 -0.27699760008E+03  0.30507358585E+03  0.47000000000E+01 0. -1.
        -11    1    4    4    0    0 -0.25370692661E+02  0.30850545123E+02 -0.12575637305E+03  0.13194731351E+03  0.00000000000E+00 0.  1.
         12    1    4    4    0    0 -0.74963938201E+02 -0.11743071938E+02 -0.87219670635E+02  0.11560606695E+03  0.00000000000E+00 0. -1.
         -5    1    5    5    0  502  0.14630127698E+03  0.43087235980E+02 -0.28934596669E+03  0.32711427971E+03  0.47000000000E+01 0.  1.
         11    1    6    6    0    0  0.19764666457E+02  0.62683118187E+02 -0.16431206774E+03  0.17696968936E+03  0.00000000000E+00 0. -1.
        -12    1    6    6    0    0 -0.89276103684E+00 -0.14804694524E+02 -0.16531561296E+03  0.16597960082E+03  0.00000000000E+00 0.  1.
</event>
<event>
12    1  0.8133495E-002  0.3062568E+03  0.7818608E-02  0.1082507E+00
         21   -1    0    0  503  502  0.00000000000E+00  0.00000000000E+00  0.46743367182E+03  0.46743367182E+03  0.00000000000E+00 0.  1.
         21   -1    0    0  501  503 -0.00000000000E+00 -0.00000000000E+00 -0.20568025794E+03  0.20568025794E+03  0.00000000000E+00 0. -1.
          6    2    1    2  501    0 -0.22857562112E+03 -0.10142732803E+03  0.69778164767E+02  0.31410539180E+03  0.17680183099E+03 0.  0.
         24    2    3    3    0    0 -0.14417586519E+03 -0.88814239241E+02  0.11266306628E+03  0.21848314760E+03  0.79795175831E+02 0.  0.
         -6    2    1    2    0  502  0.22857562112E+03  0.10142732803E+03  0.19197524911E+03  0.35900853796E+03  0.17175073979E+03 0.  0.
        -24    2    5    5    0    0  0.24383248554E+03  0.10981616625E+03  0.15902936958E+03  0.32144971081E+03  0.80781834709E+02 0.  0.
          5    1    3    3  501    0 -0.84399755925E+02 -0.12613088785E+02 -0.42884901513E+02  0.95622244204E+02  0.47000000000E+01 0. -1.
        -11    1    4    4    0    0 -0.29076525237E+02 -0.34890064756E+02  0.71822791547E+02  0.84978081433E+02  0.00000000000E+00 0.  1.
         12    1    4    4    0    0 -0.11509933995E+03 -0.53924174485E+02  0.40840274733E+02  0.13350506617E+03  0.00000000000E+00 0. -1.
         -5    1    5    5    0  502 -0.15256864423E+02 -0.83888382214E+01  0.32945879526E+02  0.37558827145E+02  0.47000000000E+01 0.  1.
         13    1    6    6    0    0  0.20468453184E+03  0.63130663195E+02  0.14577508061E+03  0.25909768879E+03  0.00000000000E+00 0. -1.
        -14    1    6    6    0    0  0.39147953700E+02  0.46685503052E+02  0.13254288971E+02  0.62352022022E+02  0.00000000000E+00 0.  1.
</event>
<event>
12    1  0.8133495E-002  0.2131197E+03  0.7818608E-02  0.1140198E+00
         21   -1    0    0  503  502  0.00000000000E+00  0.00000000000E+00  0.46496625842E+03  0.46496625842E+03  0.00000000000E+00 0.  1.
         21   -1    0    0  501  503 -0.00000000000E+00 -0.00000000000E+00 -0.13631029002E+03  0.13631029002E+03  0.00000000000E+00 0.  1.
          6    2    1    2  501    0 -0.44826695426E+01 -0.11612473598E+03  0.70757804272E+00  0.21312086256E+03  0.17864756577E+03 0.  0.
         24    2    3    3    0    0  0.43314399496E+02 -0.77079323626E+02 -0.56739434357E+02  0.12867352235E+03  0.74297729490E+02 0.  0.
         -6    2    1    2    0  502  0.44826695426E+01  0.11612473598E+03  0.32794839036E+03  0.38815568588E+03  0.17207452197E+03 0.  0.
        -24    2    5    5    0    0 -0.10397467400E+02  0.15009522143E+03  0.24451780199E+03  0.29673268313E+03  0.74997646119E+02 0.  0.
          5    1    3    3  501    0 -0.47797069039E+02 -0.39045412357E+02  0.57447012400E+02  0.84447340210E+02  0.47000000000E+01 0. -1.
        -13    1    4    4    0    0 -0.11694209514E+02  0.74352026972E+01 -0.12092772626E+02  0.18392170212E+02  0.00000000000E+00 0.  1.
         14    1    4    4    0    0  0.55008609010E+02 -0.84514526323E+02 -0.44646661731E+02  0.11028135213E+03  0.00000000000E+00 0. -1.
         -5    1    5    5    0  502  0.14880136942E+02 -0.33970485444E+02  0.83430588361E+02  0.91423002746E+02  0.47000000000E+01 0.  1.
         13    1    6    6    0    0 -0.13724248425E+02  0.15430683167E+03  0.24639325354E+03  0.29104739938E+03  0.00000000000E+00 0. -1.
        -14    1    6    6    0    0  0.33267810259E+01 -0.42116102478E+01 -0.18754515430E+01  0.56852837540E+01  0.00000000000E+00 0.  1.
</event>
<event>
12    1  0.8133495E-002  0.2999345E+03  0.7818608E-02  0.1085302E+00
         21   -1    0    0  503  502  0.00000000000E+00  0.00000000000E+00  0.84331215103E+03  0.84331215103E+03  0.00000000000E+00 0.  1.
         21   -1    0    0  501  503 -0.00000000000E+00 -0.00000000000E+00 -0.12585453158E+03  0.12585453158E+03  0.00000000000E+00 0. -1.
          6    2    1    2  501    0 -0.98872702237E+01 -0.24559345089E+03  0.54842183655E+03  0.62508175558E+03  0.17189179482E+03 0.  0.
         24    2    3    3    0    0 -0.67218760874E+02 -0.10901366826E+03  0.30031047497E+03  0.33607955042E+03  0.79754254764E+02 0.  0.
         -6    2    1    2    0  502  0.98872702237E+01  0.24559345089E+03  0.16903578290E+03  0.34408492703E+03  0.17148597574E+03 0.  0.
        -24    2    5    5    0    0 -0.54179900908E+02  0.12880394110E+03  0.64534093718E+02  0.17471230511E+03  0.82666942602E+02 0.  0.
          5    1    3    3  501    0  0.57331490650E+02 -0.13657978263E+03  0.24811136157E+03  0.28900220516E+03  0.47000000000E+01 0. -1.
        -13    1    4    4    0    0 -0.64210886823E+02 -0.11418061033E+03  0.22367931874E+03  0.25921552306E+03  0.00000000000E+00 0.  1.
         14    1    4    4    0    0 -0.30078740513E+01  0.51669420772E+01  0.76631156236E+02  0.76864027365E+02  0.00000000000E+00 0. -1.
         -5    1    5    5    0  502  0.64067171132E+02  0.11678950978E+03  0.10450168918E+03  0.16937262192E+03  0.47000000000E+01 0.  1.
         11    1    6    6    0    0 -0.57886231815E+02  0.11789152494E+03  0.81228964939E+02  0.15442594417E+03  0.00000000000E+00 0. -1.
        -12    1    6    6    0    0  0.37063309074E+01  0.10912416162E+02 -0.16694871221E+02  0.20286360944E+02  0.00000000000E+00 0.  1.
</event>
<event>
12    1  0.8133495E-002  0.1878034E+03  0.7818608E-02  0.1160754E+00
         21   -1    0    0  503  502  0.00000000000E+00  0.00000000000E+00  0.21798808808E+03  0.21798808808E+03  0.00000000000E+00 0. -1.
         21   -1    0    0  501  503 -0.00000000000E+00 -0.00000000000E+00 -0.22690709237E+03  0.22690709237E+03  0.00000000000E+00 0. -1.
          6    2    1    2  501    0 -0.41727363310E+02 -0.61767923039E+02 -0.12464057096E+03  0.22540054541E+03  0.17237657839E+03 0.  0.
         24    2    3    3    0    0 -0.32515541989E+02 -0.39952910198E+02  0.28008384162E+01  0.95692583969E+02  0.80596094364E+02 0.  0.
         -6    2    1    2    0  502  0.41727363310E+02  0.61767923039E+02  0.11572156668E+03  0.21949463503E+03  0.17096772985E+03 0.  0.
        -24    2    5    5    0    0 -0.12091001019E+02  0.88198751685E+02  0.89909935955E+02  0.15404744012E+03  0.87872664230E+02 0.  0.
          5    1    3    3  501    0 -0.92118213214E+01 -0.21815012841E+02 -0.12744140938E+03  0.12970796144E+03  0.47000000000E+01 0. -1.
        -11    1    4    4    0    0 -0.44748948769E+01  0.20799898858E+02 -0.15500084977E+02  0.26323242789E+02  0.00000000000E+00 0.  1.
         12    1    4    4    0    0 -0.28040647112E+02 -0.60752809056E+02  0.18300923393E+02  0.69369341180E+02  0.00000000000E+00 0. -1.
         -5    1    5    5    0  502  0.53818364329E+02 -0.26430828646E+02  0.25811630720E+02  0.65447194916E+02  0.47000000000E+01 0.  1.
         13    1    6    6    0    0  0.43629407335E+01  0.38208330458E+02  0.93697736291E+02  0.10128266167E+03  0.00000000000E+00 0. -1.
        -14    1    6    6    0    0 -0.16453941753E+02  0.49990421226E+02 -0.37878003357E+01  0.52764778451E+02  0.00000000000E+00 0.  1.
</event>
<event>
12    1  0.8133495E-002  0.1790447E+03  0.7818608E-02  0.1168756E+00
         21   -1    0    0  501  502  0.00000000000E+00  0.00000000000E+00  0.11574532412E+03  0.11574532412E+03  0.00000000000E+00 0.  1.
         21   -1    0    0  502  503 -0.00000000000E+00 -0.00000000000E+00 -0.56114242725E+03  0.56114242725E+03  0.00000000000E+00 0.  1.
         -6    2    1    2    0  503 -0.51443163355E+02 -0.33234046239E+02 -0.46358459854E+03  0.49692166587E+03  0.16813554391E+03 0.  0.
        -24    2    3    3    0    0 -0.63009062845E+02 -0.55940670634E+02 -0.45264050984E+03  0.46879296345E+03  0.88226474493E+02 0.  0.
          6    2    1    2  501    0  0.51443163355E+02  0.33234046239E+02  0.18187495409E+02  0.17996608550E+03  0.16824418580E+03 0.  0.
         24    2    5    5    0    0 -0.24319378199E+02  0.39909576248E+01  0.45076731804E+02  0.94290873397E+02  0.79066409790E+02 0.  0.
          5    1    5    5  501    0  0.75762541554E+02  0.29243088614E+02 -0.26889236396E+02  0.85675212100E+02  0.47000000000E+01 0. -1.
        -11    1    6    6    0    0  0.21368582724E+02  0.23141712759E+02  0.27223913332E+02  0.41632879484E+02  0.00000000000E+00 0.  1.
         12    1    6    6    0    0 -0.45687960923E+02 -0.19150755134E+02  0.17852818473E+02  0.52657993913E+02  0.00000000000E+00 0. -1.
         -5    1    3    3    0  503  0.11565899491E+02  0.22706624396E+02 -0.10944088700E+02  0.28128702422E+02  0.47000000000E+01 0.  1.
         11    1    4    4    0    0  0.22053681667E+02 -0.13039718033E+02 -0.12416996260E+03  0.12678556201E+03  0.00000000000E+00 0. -1.
        -12    1    4    4    0    0 -0.85062744513E+02 -0.42900952602E+02 -0.32847054724E+03  0.34200740144E+03  0.00000000000E+00 0.  1.
</event>
<event>
12    1  0.8133495E-002  0.1737163E+03  0.7818608E-02  0.1174303E+00
         21   -1    0    0  501  502  0.00000000000E+00  0.00000000000E+00  0.14035886952E+03  0.14035886952E+03  0.00000000000E+00 0.  1.
         21   -1    0    0  502  503 -0.00000000000E+00 -0.00000000000E+00 -0.51618445847E+03  0.51618445847E+03  0.00000000000E+00 0.  1.
         -6    2    1    2    0  503 -0.24831793132E+02  0.88244764279E+01 -0.43897955297E+03  0.47170344883E+03  0.17060658363E+03 0.  0.
        -24    2    3    3    0    0 -0.32148866180E+02 -0.55316807243E+02 -0.20168834890E+03  0.22574237598E+03  0.78663406173E+02 0.  0.
          6    2    1    2  501    0  0.24831793132E+02 -0.88244764279E+01  0.63153964025E+02  0.18483987915E+03  0.17170576117E+03 0.  0.
         24    2    5    5    0    0 -0.18499590642E+02  0.49690564119E+02  0.59015910507E+02  0.11175888110E+03  0.78713294906E+02 0.  0.
          5    1    5    5  501    0  0.43331383774E+02 -0.58515040547E+02  0.41380535180E+01  0.73080998056E+02  0.47000000000E+01 0. -1.
        -11    1    6    6    0    0  0.21365129645E+02  0.49409750244E+02  0.24999688501E+02  0.59352983152E+02  0.00000000000E+00 0.  1.
         12    1    6    6    0    0 -0.39864720286E+02  0.28081387493E+00  0.34016222006E+02  0.52405897946E+02  0.00000000000E+00 0. -1.
         -5    1    3    3    0  503  0.73170730475E+01  0.64141283671E+02 -0.23729120407E+03  0.24596107285E+03  0.47000000000E+01 0.  1.
         13    1    4    4    0    0  0.55200380611E+01  0.11786899549E+02 -0.40186231489E+01  0.13621716235E+02  0.00000000000E+00 0. -1.
        -14    1    4    4    0    0 -0.37668904241E+02 -0.67103706793E+02 -0.19766972575E+03  0.21212065974E+03  0.00000000000E+00 0.  1.
</event>
<event>
12    1  0.8133495E-002  0.1805742E+03  0.7818608E-02  0.1167942E+00
         21   -1    0    0  501  502  0.00000000000E+00  0.00000000000E+00  0.16994177844E+03  0.16994177844E+03  0.00000000000E+00 0.  1.
         21   -1    0    0  502  503 -0.00000000000E+00 -0.00000000000E+00 -0.19835440309E+03  0.19835440309E+03  0.00000000000E+00 0.  1.
         -6    2    1    2    0  503 -0.27929162441E+02  0.33517253422E+02  0.26207204834E+02  0.17964211500E+03  0.17228182582E+03 0.  0.
        -24    2    3    3    0    0  0.67890144359E-01  0.80470891204E+02  0.43913115345E+02  0.12198738127E+03  0.80479752425E+02 0.  0.
          6    2    1    2  501    0  0.27929162441E+02 -0.33517253422E+02 -0.54619829487E+02  0.18865406652E+03  0.17522438943E+03 0.  0.
         24    2    5    5    0    0 -0.31078420897E+01  0.42166872982E+02 -0.55666029872E+02  0.10671160393E+03  0.80628504098E+02 0.  0.
          5    1    5    5  501    0  0.31037004531E+02 -0.75684126404E+02  0.10462003851E+01  0.81942462588E+02  0.47000000000E+01 0. -1.
        -13    1    6    6    0    0  0.27669586340E+02  0.17875508365E+02 -0.58778158184E+02  0.67379608837E+02  0.00000000000E+00 0.  1.
         14    1    6    6    0    0 -0.30777428430E+02  0.24291364617E+02  0.31121283115E+01  0.39331995098E+02  0.00000000000E+00 0. -1.
         -5    1    3    3    0  503 -0.27997052585E+02 -0.46953637783E+02 -0.17705910511E+02  0.57654733730E+02  0.47000000000E+01 0.  1.
         13    1    4    4    0    0 -0.17786475258E+02  0.91234547730E+02  0.35263683489E+02  0.99416441170E+02  0.00000000000E+00 0. -1.
        -14    1    4    4    0    0  0.17854365403E+02 -0.10763656526E+02  0.86494318562E+01  0.22570940104E+02  0.00000000000E+00 0.  1.
</event>
<event>
12    1  0.8133495E-002  0.2062047E+03  0.7818608E-02  0.1146102E+00
         21   -1    0    0  503  502  0.00000000000E+00  0.00000000000E+00  0.10223065244E+03  0.10223065244E+03  0.00000000000E+00 0. -1.
         21   -1    0    0  501  503 -0.00000000000E+00 -0.00000000000E+00 -0.46586586895E+03  0.46586586895E+03  0.00000000000E+00 0. -1.
          6    2    1    2  501    0  0.81997926433E+02  0.57209157942E+02 -0.29020933381E+03  0.35600822004E+03  0.18034369303E+03 0.  0.
         24    2    3    3    0    0 -0.23660098181E+02  0.19566631215E+01 -0.15135597285E+03  0.17292681138E+03  0.80196152022E+02 0.  0.
         -6    2    1    2    0  502 -0.81997926433E+02 -0.57209157942E+02 -0.73425882697E+02  0.21208830135E+03  0.17202772924E+03 0.  0.
        -24    2    5    5    0    0 -0.37947024550E+02 -0.68662571100E+02 -0.10652179353E+03  0.15561625567E+03  0.81945110835E+02 0.  0.
          5    1    3    3  501    0  0.10565802461E+03  0.55252494820E+02 -0.13885336095E+03  0.18308140866E+03  0.47000000000E+01 0. -1.
        -11    1    4    4    0    0  0.14724784756E+02 -0.22095252425E+02 -0.10423664148E+03  0.10756531454E+03  0.00000000000E+00 0.  1.
         12    1    4    4    0    0 -0.38384882938E+02  0.24051915547E+02 -0.47119331373E+02  0.65361496836E+02  0.00000000000E+00 0. -1.
         -5    1    5    5    0  502 -0.44050901883E+02  0.11453413158E+02  0.33095910829E+02  0.56472045680E+02  0.47000000000E+01 0.  1.
         13    1    6    6    0    0 -0.13002501184E+02 -0.69666888269E+02 -0.33391872437E+02  0.78342565078E+02  0.00000000000E+00 0. -1.
        -14    1    6    6    0    0 -0.24944523366E+02  0.10043171687E+01 -0.73129921089E+02  0.77273690590E+02  0.00000000000E+00 0.  1.
</event>
<event>
12    1  0.8133495E-002  0.2259360E+03  0.7818608E-02  0.1129730E+00
         21   -1    0    0  501  502  0.00000000000E+00  0.00000000000E+00  0.18936639361E+03  0.18936639361E+03  0.00000000000E+00 0. -1.
         21   -1    0    0  502  503 -0.00000000000E+00 -0.00000000000E+00 -0.37358345890E+03  0.37358345890E+03  0.00000000000E+00 0. -1.
         -6    2    1    2    0  503  0.73463118993E+02  0.12644353775E+03 -0.24139594945E+03  0.32989087166E+03  0.17079573971E+03 0.  0.
        -24    2    3    3    0    0  0.22757324910E+02  0.65223719431E+02 -0.44796519613E+02  0.11777682328E+03  0.84217709056E+02 0.  0.
          6    2    1    2  501    0 -0.73463118993E+02 -0.12644353775E+03  0.57178884171E+02  0.23305898084E+03  0.17222736619E+03 0.  0.
         24    2    5    5    0    0 -0.72839358419E+02 -0.19031227659E+02 -0.18597250018E+01  0.11039912266E+03  0.80726377016E+02 0.  0.
          5    1    5    5  501    0 -0.62376057379E+00 -0.10741231009E+03  0.59038609173E+02  0.12265985818E+03  0.47000000000E+01 0. -1.
        -13    1    6    6    0    0  0.12015499052E+02  0.11509606984E+02 -0.10701700012E+02  0.19783064817E+02  0.00000000000E+00 0.  1.
         14    1    6    6    0    0 -0.84854857472E+02 -0.30540834643E+02  0.88419750104E+01  0.90616057845E+02  0.00000000000E+00 0. -1.
         -5    1    3    3    0  503  0.50705794083E+02  0.61219818318E+02 -0.19659942984E+03  0.21211404839E+03  0.47000000000E+01 0.  1.
         11    1    4    4    0    0  0.29914172994E+02  0.55394927768E+02 -0.67326557439E+02  0.92175490804E+02  0.00000000000E+00 0. -1.
        -12    1    4    4    0    0 -0.71568480837E+01  0.98287916635E+01  0.22530037826E+02  0.25601332475E+02  0.00000000000E+00 0.  1.
</event>
<event>
12    1  0.8133495E-002  0.1839862E+03  0.7818608E-02  0.1164257E+00
         21   -1    0    0  501  502  0.00000000000E+00  0.00000000000E+00  0.36244771032E+03  0.36244771032E+03  0.00000000000E+00 0.  1.
         21   -1    0    0  502  503 -0.00000000000E+00 -0.00000000000E+00 -0.13967177107E+03  0.13967177107E+03  0.00000000000E+00 0. -1.
         -6    2    1    2    0  503  0.18876366074E+02  0.59346194919E+02 -0.34202058095E+02  0.18606787214E+03  0.17196855590E+03 0.  0.
        -24    2    3    3    0    0  0.57624325134E+02 -0.68931512645E+01 -0.20516293632E+01  0.10273243321E+03  0.84744706434E+02 0.  0.
          6    2    1    2  501    0 -0.18876366074E+02 -0.59346194919E+02  0.25697799734E+03  0.31605160925E+03  0.17312608280E+03 0.  0.
         24    2    5    5    0    0 -0.55856675822E+00 -0.80027838719E+02  0.26424323669E+03  0.28710086030E+03  0.78725147681E+02 0.  0.
          5    1    5    5  501    0 -0.18317799316E+02  0.20681643800E+02 -0.72652393543E+01  0.28950748953E+02  0.47000000000E+01 0. -1.
        -13    1    6    6    0    0  0.12390052412E+02 -0.22176116426E+02  0.19188125918E+03  0.19355544726E+03  0.00000000000E+00 0.  1.
         14    1    6    6    0    0 -0.12948619170E+02 -0.57851722293E+02  0.72361977509E+02  0.93545413034E+02  0.00000000000E+00 0. -1.
         -5    1    3    3    0  503 -0.38747959060E+02  0.66239346183E+02 -0.32150428732E+02  0.83335438930E+02  0.47000000000E+01 0.  1.
         13    1    4    4    0    0  0.49740640743E+02  0.30826151712E+02 -0.17708140654E+02  0.61138868294E+02  0.00000000000E+00 0. -1.
        -14    1    4    4    0    0  0.78836843917E+01 -0.37719302976E+02  0.15656511290E+02  0.41593564916E+02  0.00000000000E+00 0.  1.
</event>
<event>
12    1  0.8133495E-002  0.2587505E+03  0.7818608E-02  0.1107990E+00
         21   -1    0    0  501  502  0.00000000000E+00  0.00000000000E+00  0.84742948990E+02  0.84742948990E+02  0.00000000000E+00 0.  1.
         21   -1    0    0  502  503 -0.00000000000E+00 -0.00000000000E+00 -0.13375180936E+04  0.13375180936E+04  0.00000000000E+00 0. -1.
         -6    2    1    2    0  503  0.10080569171E+03 -0.16447041504E+03 -0.10825781256E+04  0.11130710684E+04  0.17245144304E+03 0.  0.
        -24    2    3    3    0    0 -0.11734525506E+02 -0.55939748949E+02 -0.52982548132E+03  0.53861325287E+03  0.78244750074E+02 0.  0.
          6    2    1    2  501    0 -0.10080569171E+03  0.16447041504E+03 -0.17019701901E+03  0.30918997427E+03  0.17151999884E+03 0.  0.
         24    2    5    5    0    0 -0.10084110726E+03  0.18512114478E+03 -0.17931079344E+03  0.28613341820E+03  0.72671901091E+02 0.  0.
          5    1    5    5  501    0  0.35415555785E-01 -0.20650729743E+02  0.91137744310E+01  0.23056556064E+02  0.47000000000E+01 0. -1.
        -13    1    6    6    0    0 -0.98031282407E+02  0.10916168217E+03 -0.12447097038E+03  0.19240433377E+03  0.00000000000E+00 0.  1.
         14    1    6    6    0    0 -0.28098248575E+01  0.75959462611E+02 -0.54839823060E+02  0.93729084436E+02  0.00000000000E+00 0. -1.
         -5    1    3    3    0  503  0.11254021722E+03 -0.10853066609E+03 -0.55275264433E+03  0.57445781550E+03  0.47000000000E+01 0.  1.
         11    1    4    4    0    0  0.25180065177E+02 -0.23757443987E+02 -0.96358679508E+02  0.10238870516E+03  0.00000000000E+00 0. -1.
        -12    1    4    4    0    0 -0.36914590683E+02 -0.32182304962E+02 -0.43346680181E+03  0.43622454771E+03  0.00000000000E+00 0.  1.
</event>
<event>
12    1  0.8133495E-002  0.1937939E+03  0.7818608E-02  0.1155341E+00
         21   -1    0    0  503  502  0.00000000000E+00  0.00000000000E+00  0.29243339933E+03  0.29243339933E+03  0.00000000000E+00 0. -1.
         21   -1    0    0  501  503 -0.00000000000E+00 -0.00000000000E+00 -0.13788420051E+03  0.13788420051E+03  0.00000000000E+00 0. -1.
          6    2    1    2  501    0  0.23908313786E+02  0.82658533634E+02  0.18452327006E+02  0.19350870746E+03  0.17234004421E+03 0.  0.
         24    2    3    3    0    0  0.29201305624E+02 -0.18088027736E+02  0.31157680745E+02  0.91717738289E+02  0.79129321050E+02 0.  0.
         -6    2    1    2    0  502 -0.23908313786E+02 -0.82658533634E+02  0.13609687181E+03  0.23680889239E+03  0.17364346330E+03 0.  0.
        -24    2    5    5    0    0 -0.30935529313E+02 -0.12713386458E+03  0.10638469309E+03  0.18265780389E+03  0.70186493741E+02 0.  0.
          5    1    3    3  501    0 -0.52929918389E+01  0.10074656137E+03 -0.12705353739E+02  0.10179096917E+03  0.47000000000E+01 0. -1.
        -11    1    4    4    0    0 -0.21936050448E+02 -0.19345059621E+02  0.27964714242E+02  0.40465378827E+02  0.00000000000E+00 0.  1.
         12    1    4    4    0    0  0.51137356073E+02  0.12570318851E+01  0.31929665033E+01  0.51252359461E+02  0.00000000000E+00 0. -1.
         -5    1    5    5    0  502  0.70272155278E+01  0.44475330945E+02  0.29712178728E+02  0.54151088498E+02  0.47000000000E+01 0.  1.
         11    1    6    6    0    0 -0.50288820617E+02 -0.62518356087E+02  0.67143677306E+02  0.10462209962E+03  0.00000000000E+00 0. -1.
        -12    1    6    6    0    0  0.19353291304E+02 -0.64615508492E+02  0.39241015779E+02  0.78035704273E+02  0.00000000000E+00 0.  1.
</event>
<event>
12    1  0.8133495E-002  0.1738595E+03  0.7818608E-02  0.1175818E+00
         21   -1    0    0  501  502  0.00000000000E+00  0.00000000000E+00  0.10969622806E+03  0.10969622806E+03  0.00000000000E+00 0.  1.
         21   -1    0    0  502  503 -0.00000000000E+00 -0.00000000000E+00 -0.31149473002E+03  0.31149473002E+03  0.00000000000E+00 0.  1.
         -6    2    1    2    0  503  0.15817980591E+02  0.88337365873E+01 -0.18512708458E+03  0.25396686070E+03  0.17291294189E+03 0.  0.
        -24    2    3    3    0    0  0.42006842040E+02  0.62103430859E+02 -0.68991405695E+02  0.12345593126E+03  0.69714718685E+02 0.  0.
          6    2    1    2  501    0 -0.15817980591E+02 -0.88337365873E+01 -0.16671417383E+02  0.16722409738E+03  0.16540169037E+03 0.  0.
         24    2    5    5    0    0  0.44753982499E+02 -0.53482553522E+01 -0.53662254113E+02  0.96009469013E+02  0.65625131153E+02 0.  0.
          5    1    5    5  501    0 -0.60571963089E+02 -0.34854812351E+01  0.36990836730E+02  0.71214628370E+02  0.47000000000E+01 0. -1.
        -11    1    6    6    0    0  0.17020682552E+02 -0.16168159961E+02 -0.60989637666E+02  0.65351732446E+02  0.00000000000E+00 0.  1.
         12    1    6    6    0    0  0.27733299946E+02  0.10819904609E+02  0.73273835532E+01  0.30657736567E+02  0.00000000000E+00 0. -1.
         -5    1    3    3    0  503 -0.26188861449E+02 -0.53269694272E+02 -0.11613567888E+03  0.13051092943E+03  0.47000000000E+01 0.  1.
         13    1    4    4    0    0 -0.40840388772E+01  0.16916953167E+02 -0.54625307939E+02  0.57330506237E+02  0.00000000000E+00 0. -1.
        -14    1    4    4    0    0  0.46090880917E+02  0.45186477693E+02 -0.14366097756E+02  0.66125425025E+02  0.00000000000E+00 0.  1.
</event>
<event>
12    1  0.8133495E-002  0.2205097E+03  0.7818608E-02  0.1133589E+00
         21   -1    0    0  503  502  0.00000000000E+00  0.00000000000E+00  0.10598614119E+04  0.10598614119E+04  0.00000000000E+00 0.  1.
         21   -1    0    0  501  503 -0.00000000000E+00 -0.00000000000E+00 -0.13028806728E+03  0.13028806728E+03  0.00000000000E+00 0. -1.
          6    2    1    2  501    0  0.94591183881E+02  0.99410056010E+02 -0.14292092231E+02  0.22097236494E+03  0.17261132889E+03 0.  0.
         24    2    3    3    0    0  0.62527615267E+02  0.24367346082E+02  0.47586857939E+02  0.11845126847E+03  0.85221615384E+02 0.  0.
         -6    2    1    2    0  502 -0.94591183881E+02 -0.99410056010E+02  0.94386543684E+03  0.96917711424E+03  0.17202460461E+03 0.  0.
        -24    2    5    5    0    0 -0.35343517838E+02 -0.65123821612E+02  0.26014589439E+03  0.28202332175E+03  0.79818489383E+02 0.  0.
          5    1    3    3  501    0  0.32063568614E+02  0.75042709928E+02 -0.61878950170E+02  0.10252109646E+03  0.47000000000E+01 0. -1.
        -13    1    4    4    0    0  0.73027231994E+02 -0.30384851348E+01  0.15031478823E+02  0.74620066740E+02  0.00000000000E+00 0.  1.
         14    1    4    4    0    0 -0.10499616728E+02  0.27405831217E+02  0.32555379116E+02  0.43831201734E+02  0.00000000000E+00 0. -1.
         -5    1    5    5    0  502 -0.59247666042E+02 -0.34286234398E+02  0.68371954245E+03  0.68715379249E+03  0.47000000000E+01 0.  1.
         13    1    6    6    0    0 -0.18048279176E+02 -0.48652223952E+02  0.25122418534E+03  0.25652752401E+03  0.00000000000E+00 0. -1.
        -14    1    6    6    0    0 -0.17295238662E+02 -0.16471597660E+02  0.89217090525E+01  0.25495797737E+02  0.00000000000E+00 0.  1.
</event>
<event>
12    1  0.8133495E-002  0.1985305E+03  0.7818608E-02  0.1151129E+00
         21   -1    0    0  501  502  0.00000000000E+00  0.00000000000E+00  0.62401334895E+03  0.62401334895E+03  0.00000000000E+00 0.  1.
         21   -1    0    0  502  503 -0.00000000000E+00 -0.00000000000E+00 -0.16942496536E+03  0.16942496536E+03  0.00000000000E+00 0.  1.
         -6    2    1    2    0  503 -0.65985315783E+02 -0.71634505557E+02 -0.87062918365E+02  0.21678167796E+03  0.17299936375E+03 0.  0.
        -24    2    3    3    0    0 -0.29492907752E+02  0.56940235725E+01  0.12634343863E+02  0.85354772961E+02  0.78889524719E+02 0.  0.
          6    2    1    2  501    0  0.65985315783E+02  0.71634505557E+02  0.54165130195E+03  0.57665663635E+03  0.17222421161E+03 0.  0.
         24    2    5    5    0    0  0.72105985657E+02  0.10354681086E+03  0.50828610489E+03  0.52984654978E+03  0.80382751201E+02 0.  0.
          5    1    5    5  501    0 -0.61206698738E+01 -0.31912305306E+02  0.33365197061E+02  0.46810086568E+02  0.47000000000E+01 0. -1.
        -11    1    6    6    0    0  0.15530515430E+02 -0.48695866326E+01  0.15782662811E+03  0.15866365155E+03  0.00000000000E+00 0.  1.
         12    1    6    6    0    0  0.56575470227E+02  0.10841639750E+03  0.35045947677E+03  0.37118289823E+03  0.00000000000E+00 0. -1.
         -5    1    3    3    0  503 -0.36492408032E+02 -0.77328529130E+02 -0.99697262228E+02  0.13142690500E+03  0.47000000000E+01 0.  1.
         13    1    4    4    0    0  0.60070614332E+00 -0.30112620257E+01  0.42180565075E+02  0.42292181510E+02  0.00000000000E+00 0. -1.
        -14    1    4    4    0    0 -0.30093613895E+02  0.87052855982E+01 -0.29546221212E+02  0.43062591451E+02  0.00000000000E+00 0.  1.
</event>
<event>
12    1  0.8133495E-002  0.1962780E+03  0.7818608E-02  0.1154050E+00
         21   -1    0    0  503  502  0.00000000000E+00  0.00000000000E+00  0.27459592971E+03  0.27459592971E+03  0.00000000000E+00 0. -1.
         21   -1    0    0  501  503 -0.00000000000E+00 -0.00000000000E+00 -0.35922191486E+03  0.35922191486E+03  0.00000000000E+00 0. -1.
          6    2    1    2  501    0  0.77051702505E+02  0.50967736378E+02 -0.29198233660E+03  0.35182201522E+03  0.17317728053E+03 0.  0.
         24    2    3    3    0    0  0.29921260681E+02  0.16701435844E+02 -0.27880488549E+03  0.29189545085E+03  0.79350931024E+02 0.  0.
         -6    2    1    2    0  502 -0.77051702505E+02 -0.50967736378E+02  0.20735635145E+03  0.28199582935E+03  0.16730306713E+03 0.  0.
        -24    2    5    5    0    0 -0.34979742618E+02 -0.43447894817E+02  0.34900092769E+02  0.10426049525E+03  0.80876031291E+02 0.  0.
          5    1    3    3  501    0  0.47130441824E+02  0.34266300534E+02 -0.13177451112E+02  0.59926564365E+02  0.47000000000E+01 0. -1.
        -11    1    4    4    0    0 -0.12349474866E+02 -0.21880096359E+02 -0.13119745450E+03  0.13358151149E+03  0.00000000000E+00 0.  1.
         12    1    4    4    0    0  0.42270735547E+02  0.38581532203E+02 -0.14760743099E+03  0.15831393936E+03  0.00000000000E+00 0. -1.
         -5    1    5    5    0  502 -0.42071959886E+02 -0.75198415610E+01  0.17245625868E+03  0.17773533409E+03  0.47000000000E+01 0.  1.
         13    1    6    6    0    0 -0.29157357445E+02 -0.66219305080E+02  0.35826253343E+02  0.80738270275E+02  0.00000000000E+00 0. -1.
        -14    1    6    6    0    0 -0.58223851738E+01  0.22771410263E+02 -0.92616057417E+00  0.23522224977E+02  0.00000000000E+00 0.  1.
</event>
<event>
12    1  0.8133495E-002  0.2760187E+03  0.7818608E-02  0.1097926E+00
         21   -1    0    0  501  502  0.00000000000E+00  0.00000000000E+00  0.34369038283E+03  0.34369038283E+03  0.00000000000E+00 0.  1.
         21   -1    0    0  502  503 -0.00000000000E+00 -0.00000000000E+00 -0.59172428697E+03  0.59172428697E+03  0.00000000000E+00 0. -1.
         -6    2    1    2    0  503  0.20299856863E+03  0.71683403089E+02 -0.49403318741E+03  0.56591088134E+03  0.17274086434E+03 0.  0.
        -24    2    3    3    0    0  0.22465186263E+03  0.52140003566E+02 -0.41663980358E+03  0.48306985608E+03  0.81121640566E+02 0.  0.
          6    2    1    2  501    0 -0.20299856863E+03 -0.71683403089E+02  0.24599928327E+03  0.36950378846E+03  0.17225119208E+03 0.  0.
         24    2    5    5    0    0 -0.20206049724E+03 -0.69787298778E+02  0.26515077648E+03  0.34967086427E+03  0.79158495645E+02 0.  0.
          5    1    5    5  501    0 -0.93807139572E+00 -0.18961043107E+01 -0.19151493217E+02  0.19832924191E+02  0.47000000000E+01 0. -1.
        -11    1    6    6    0    0 -0.33102940631E+02  0.15974175284E+02  0.60364450426E+02  0.70674223234E+02  0.00000000000E+00 0.  1.
         12    1    6    6    0    0 -0.16895755661E+03 -0.85761474063E+02  0.20478632606E+03  0.27899664103E+03  0.00000000000E+00 0. -1.
         -5    1    3    3    0  503 -0.21653293998E+02  0.19543399523E+02 -0.77393383831E+02  0.82841025264E+02  0.47000000000E+01 0.  1.
         13    1    4    4    0    0  0.12773801541E+03  0.12522319637E+02 -0.30016487930E+03  0.32645484195E+03  0.00000000000E+00 0. -1.
        -14    1    4    4    0    0  0.96913847221E+02  0.39617683928E+02 -0.11647492428E+03  0.15661501413E+03  0.00000000000E+00 0.  1.
</event>
<event>
12    1  0.8133495E-002  0.1924527E+03  0.7818608E-02  0.1157518E+00
         21   -1    0    0  501  502  0.00000000000E+00  0.00000000000E+00  0.14448476081E+03  0.14448476081E+03  0.00000000000E+00 0.  1.
         21   -1    0    0  502  503 -0.00000000000E+00 -0.00000000000E+00 -0.73525318868E+03  0.73525318868E+03  0.00000000000E+00 0.  1.
         -6    2    1    2    0  503  0.80696359273E+02 -0.26454737917E+02 -0.65161955774E+03  0.67789420096E+03  0.16649547774E+03 0.  0.
        -24    2    3    3    0    0  0.38873478101E+02 -0.34807874464E+02 -0.60425560885E+03  0.61398518802E+03  0.95552262479E+02 0.  0.
          6    2    1    2  501    0 -0.80696359273E+02  0.26454737917E+02  0.60851129865E+02  0.20184374853E+03  0.17270287565E+03 0.  0.
         24    2    5    5    0    0  0.15714903240E+02  0.10945343630E+02  0.61762280670E+02  0.10407569114E+03  0.81550054821E+02 0.  0.
          5    1    5    5  501    0 -0.96411262513E+02  0.15509394287E+02 -0.91115080501E+00  0.97768057393E+02  0.47000000000E+01 0. -1.
        -13    1    6    6    0    0 -0.65384162078E+01  0.36936845640E+02  0.58780286008E+02  0.69729502189E+02  0.00000000000E+00 0.  1.
         14    1    6    6    0    0  0.22253319448E+02 -0.25991502010E+02  0.29819946617E+01  0.34346188949E+02  0.00000000000E+00 0. -1.
         -5    1    3    3    0  503  0.41822881172E+02  0.83531365470E+01 -0.47363948889E+02  0.63909012933E+02  0.47000000000E+01 0.  1.
         13    1    4    4    0    0 -0.16904391973E+02  0.22102662359E+02 -0.20251497469E+03  0.20441771235E+03  0.00000000000E+00 0. -1.
        -14    1    4    4    0    0  0.55777870074E+02 -0.56910536823E+02 -0.40174063416E+03  0.40956747567E+03  0.00000000000E+00 0.  1.
</event>
<event>
12    1  0.8133495E-002  0.1985250E+03  0.7818608E-02  0.1151057E+00
         21   -1    0    0  503  502  0.00000000000E+00  0.00000000000E+00  0.59551613100E+02  0.59551613100E+02  0.00000000000E+00 0.  1.
         21   -1    0    0  501  503 -0.00000000000E+00 -0.00000000000E+00 -0.12372660465E+04  0.12372660465E+04  0.00000000000E+00 0. -1.
          6    2    1    2  501    0 -0.22371923625E+02  0.95559485086E+02 -0.10317130921E+04  0.10506398409E+04  0.17256897953E+03 0.  0.
         24    2    3    3    0    0 -0.63072214959E+02  0.10548302428E+03 -0.89670093486E+03  0.90919952504E+03  0.86408547295E+02 0.  0.
         -6    2    1    2    0  502  0.22371923625E+02 -0.95559485086E+02 -0.14600134126E+03  0.24617781867E+03  0.17220629663E+03 0.  0.
        -24    2    5    5    0    0 -0.23296061594E+02  0.86274451674E+01 -0.44592340719E+02  0.93710259170E+02  0.78587508722E+02 0.  0.
          5    1    3    3  501    0  0.40700291334E+02 -0.99235391971E+01 -0.13501215728E+03  0.14144031589E+03  0.47000000000E+01 0. -1.
        -11    1    4    4    0    0 -0.42111514649E+01  0.73733551332E+02 -0.30888837106E+03  0.31759470425E+03  0.00000000000E+00 0.  1.
         12    1    4    4    0    0 -0.58861063494E+02  0.31749472951E+02 -0.58781256379E+03  0.59160482079E+03  0.00000000000E+00 0. -1.
         -5    1    5    5    0  502  0.45667985219E+02 -0.10418693025E+03 -0.10140900054E+03  0.15246755950E+03  0.47000000000E+01 0.  1.
         11    1    6    6    0    0  0.24512648723E+02  0.16613882089E+02 -0.32063883395E+02  0.43646118313E+02  0.00000000000E+00 0. -1.
        -12    1    6    6    0    0 -0.47808710317E+02 -0.79864369215E+01 -0.12528457324E+02  0.50064140857E+02  0.00000000000E+00 0.  1.
</event>
<event>
12    1  0.8133495E-002  0.1947618E+03  0.7818608E-02  0.1154932E+00
         21   -1    0    0  501  502  0.00000000000E+00  0.00000000000E+00  0.12201139309E+03  0.12201139309E+03  0.00000000000E+00 0.  1.
         21   -1    0    0  502  503 -0.00000000000E+00 -0.00000000000E+00 -0.33679567459E+03  0.33679567459E+03  0.00000000000E+00 0. -1.
         -6    2    1    2    0  503 -0.58840722786E+02  0.71249130321E+02 -0.37072769079E+02  0.19515283482E+03  0.16784388431E+03 0.  0.
        -24    2    3    3    0    0 -0.72378740995E+02  0.85340719368E+02  0.13453972675E+02  0.14077551922E+03  0.84350559583E+02 0.  0.
          6    2    1    2  501    0  0.58840722786E+02 -0.71249130321E+02 -0.17771151242E+03  0.26365423286E+03  0.17144533715E+03 0.  0.
         24    2    5    5    0    0 -0.21310408627E+02 -0.61443243030E+02 -0.11502771886E+03  0.16132287273E+03  0.92543435907E+02 0.  0.
          5    1    5    5  501    0  0.80151131412E+02 -0.98058872910E+01 -0.62683793556E+02  0.10233136013E+03  0.47000000000E+01 0. -1.
        -11    1    6    6    0    0  0.13049896756E+02  0.19951472758E+02 -0.16550253206E+02  0.29021921917E+02  0.00000000000E+00 0.  1.
         12    1    6    6    0    0 -0.34360305382E+02 -0.81394715788E+02 -0.98477465655E+02  0.13230095081E+03  0.00000000000E+00 0. -1.
         -5    1    3    3    0  503  0.13538018209E+02 -0.14091589046E+02 -0.50526741755E+02  0.54377315594E+02  0.47000000000E+01 0.  1.
         13    1    4    4    0    0 -0.19642009974E+02  0.61231259370E+02 -0.27341972530E+02  0.69876026946E+02  0.00000000000E+00 0. -1.
        -14    1    4    4    0    0 -0.52736731021E+02  0.24109459997E+02  0.40795945206E+02  0.70899492279E+02  0.00000000000E+00 0.  1.
</event>
<event>
12    1  0.8133495E-002  0.2030807E+03  0.7818608E-02  0.1148694E+00
         21   -1    0    0  503  502  0.00000000000E+00  0.00000000000E+00  0.35845602969E+03  0.35845602969E+03  0.00000000000E+00 0. -1.
         21   -1    0    0  501  503 -0.00000000000E+00 -0.00000000000E+00 -0.15521035189E+03  0.15521035189E+03  0.00000000000E+00 0. -1.
          6    2    1    2  501    0 -0.19784838518E+02  0.94237759551E+02 -0.36780147219E+02  0.19925555408E+03  0.17052214355E+03 0.  0.
         24    2    3    3    0    0 -0.61124279742E+02  0.88369333591E+01  0.22178196045E+01  0.96565817826E+02  0.74200872525E+02 0.  0.
         -6    2    1    2    0  502  0.19784838518E+02 -0.94237759551E+02  0.24002582502E+03  0.31441082750E+03  0.17880038202E+03 0.  0.
        -24    2    5    5    0    0  0.51132847655E+02 -0.41848704039E+02  0.23007391736E+03  0.25237502106E+03  0.79957874337E+02 0.  0.
          5    1    3    3  501    0  0.41339441224E+02  0.85400826192E+02 -0.38997966823E+02  0.10268973625E+03  0.47000000000E+01 0. -1.
        -11    1    4    4    0    0 -0.70340478299E+02  0.27647972989E+02  0.24116949694E+01  0.75617521583E+02  0.00000000000E+00 0.  1.
         12    1    4    4    0    0  0.92161985572E+01 -0.18811039630E+02 -0.19387536492E+00  0.20948296243E+02  0.00000000000E+00 0. -1.
         -5    1    5    5    0  502 -0.31348009137E+02 -0.52389055512E+02  0.99519076635E+01  0.62035806438E+02  0.47000000000E+01 0.  1.
         11    1    6    6    0    0  0.39888263629E+02 -0.63068113800E+02  0.20248619529E+03  0.21579925819E+03  0.00000000000E+00 0. -1.
        -12    1    6    6    0    0  0.11244584027E+02  0.21219409761E+02  0.27587722067E+02  0.36575762868E+02  0.00000000000E+00 0.  1.
</event>
<event>
12    1  0.8133495E-002  0.2022132E+03  0.7818608E-02  0.1148718E+00
         21   -1    0    0  501  502  0.00000000000E+00  0.00000000000E+00  0.31663313754E+03  0.31663313754E+03  0.00000000000E+00 0.  1.
         21   -1    0    0  502  503 -0.00000000000E+00 -0.00000000000E+00 -0.13084951410E+03  0.13084951410E+03  0.00000000000E+00 0.  1.
         -6    2    1    2    0  503  0.35442258876E+02 -0.99265523290E+02  0.13222208213E+03  0.23829609059E+03  0.16790637260E+03 0.  0.
        -24    2    3    3    0    0  0.31672173970E+02  0.50181177899E+01  0.95444166148E+02  0.12755316106E+03  0.78306525493E+02 0.  0.
          6    2    1    2  501    0 -0.35442258876E+02  0.99265523290E+02  0.53561541317E+02  0.20918656105E+03  0.17256993014E+03 0.  0.
         24    2    5    5    0    0  0.39787624983E+02  0.45926741333E+02  0.60093921977E+02  0.11661592271E+03  0.79345278997E+02 0.  0.
          5    1    5    5  501    0 -0.75229883859E+02  0.53338781957E+02 -0.65323806604E+01  0.92570638343E+02  0.47000000000E+01 0. -1.
        -11    1    6    6    0    0  0.47843826074E+02  0.63993938203E+02  0.51410205157E+02  0.95011920380E+02  0.00000000000E+00 0.  1.
         12    1    6    6    0    0 -0.80562010909E+01 -0.18067196870E+02  0.86837168204E+01  0.21604002327E+02  0.00000000000E+00 0. -1.
         -5    1    3    3    0  503  0.37700849059E+01 -0.10428364108E+03  0.36777915981E+02  0.11074292953E+03  0.47000000000E+01 0.  1.
         11    1    4    4    0    0 -0.24358999264E+01 -0.29720413945E+02  0.61055458419E+02  0.67948551245E+02  0.00000000000E+00 0. -1.
        -12    1    4    4    0    0  0.34108073896E+02  0.34738531735E+02  0.34388707729E+02  0.59604609816E+02  0.00000000000E+00 0.  1.
</event>
<event>
12    1  0.8133495E-002  0.2182808E+03  0.7818608E-02  0.1135736E+00
         21   -1    0    0  503  502  0.00000000000E+00  0.00000000000E+00  0.31351232986E+03  0.31351232986E+03  0.00000000000E+00 0.  1.
         21   -1    0    0  501  503 -0.00000000000E+00 -0.00000000000E+00 -0.23519306158E+03  0.23519306158E+03  0.00000000000E+00 0. -1.
          6    2    1    2  501    0  0.43686068277E+02  0.12151757230E+03 -0.12621602367E+03  0.24957131632E+03  0.17227990120E+03 0.  0.
         24    2    3    3    0    0 -0.29552881284E+02  0.10215511101E+03 -0.29852549043E+02  0.12690568183E+03  0.62488702185E+02 0.  0.
         -6    2    1    2    0  502 -0.43686068277E+02 -0.12151757230E+03  0.20453529195E+03  0.29913407513E+03  0.17598726179E+03 0.  0.
        -24    2    5    5    0    0  0.35473578362E+02 -0.60304567848E+02  0.48843584226E+02  0.11399823467E+03  0.75596865821E+02 0.  0.
          5    1    3    3  501    0  0.73238949561E+02  0.19362461294E+02 -0.96363474629E+02  0.12266563448E+03  0.47000000000E+01 0. -1.
        -11    1    4    4    0    0 -0.74851711365E+01  0.50325920457E+02  0.16991430375E+02  0.53641725950E+02  0.00000000000E+00 0.  1.
         12    1    4    4    0    0 -0.22067710148E+02  0.51829190549E+02 -0.46843979417E+02  0.73263955884E+02  0.00000000000E+00 0. -1.
         -5    1    5    5    0  502 -0.79159646639E+02 -0.61213004451E+02  0.15569170772E+03  0.18513584046E+03  0.47000000000E+01 0.  1.
         13    1    6    6    0    0  0.14217671299E+02 -0.71076116896E+02  0.53019806880E+02  0.89805659575E+02  0.00000000000E+00 0. -1.
        -14    1    6    6    0    0  0.21255907062E+02  0.10771549047E+02 -0.41762226537E+01  0.24192575092E+02  0.00000000000E+00 0.  1.
</event>
<event>
12    1  0.8133495E-002  0.1765228E+03  0.7818608E-02  0.1171519E+00
         21   -1    0    0  503  502  0.00000000000E+00  0.00000000000E+00  0.56086359055E+02  0.56086359055E+02  0.00000000000E+00 0. -1.
         21   -1    0    0  501  503 -0.00000000000E+00 -0.00000000000E+00 -0.56438404655E+03  0.56438404655E+03  0.00000000000E+00 0. -1.
          6    2    1    2  501    0  0.30251473437E+02  0.19089305045E+01 -0.20677236260E+03  0.27107405613E+03  0.17264859777E+03 0.  0.
         24    2    3    3    0    0  0.77000104674E+01  0.49401432788E+02 -0.17314415904E+03  0.20848769716E+03  0.10482570454E+03 0.  0.
         -6    2    1    2    0  502 -0.30251473437E+02 -0.19089305045E+01 -0.30152532489E+03  0.34939634947E+03  0.17390081027E+03 0.  0.
        -24    2    5    5    0    0 -0.49640354344E+02 -0.27887764848E+02 -0.30106720268E+03  0.31663771072E+03  0.79850404582E+02 0.  0.
          5    1    3    3  501    0  0.22551462969E+02 -0.47492502284E+02 -0.33628203557E+02  0.62586358975E+02  0.47000000000E+01 0. -1.
        -13    1    4    4    0    0 -0.44204699350E+02  0.37082112736E+02 -0.12018540218E+03  0.13331792613E+03  0.00000000000E+00 0.  1.
         14    1    4    4    0    0  0.51904709818E+02  0.12319320052E+02 -0.52958756859E+02  0.75169771025E+02  0.00000000000E+00 0. -1.
         -5    1    5    5    0  502  0.19388880908E+02  0.25978834343E+02 -0.45812220551E+00  0.32758638748E+02  0.47000000000E+01 0.  1.
         13    1    6    6    0    0 -0.49236790965E+02 -0.25884818202E+01 -0.27819291155E+03  0.28252833107E+03  0.00000000000E+00 0. -1.
        -14    1    6    6    0    0 -0.40356337946E+00 -0.25299283028E+02 -0.22874291133E+02  0.34109379648E+02  0.00000000000E+00 0.  1.
</event>
<event>
12    1  0.8133495E-002  0.2983547E+03  0.7818608E-02  0.1086119E+00
         21   -1    0    0  503  502  0.00000000000E+00  0.00000000000E+00  0.14534851367E+04  0.14534851367E+04  0.00000000000E+00 0.  1.
         21   -1    0    0  501  503 -0.00000000000E+00 -0.00000000000E+00 -0.62017196190E+02  0.62017196190E+02  0.00000000000E+00 0. -1.
          6    2    1    2  501    0 -0.16233352011E+03 -0.18279819753E+03  0.60694837983E+03  0.67631491211E+03  0.17102096885E+03 0.  0.
         24    2    3    3    0    0 -0.15703498288E+03 -0.18652849230E+03  0.45008343443E+03  0.51924584866E+03  0.87110786437E+02 0.  0.
         -6    2    1    2    0  502  0.16233352011E+03  0.18279819753E+03  0.78451956070E+03  0.83918742080E+03  0.17028574028E+03 0.  0.
        -24    2    5    5    0    0  0.49700116158E+02  0.12900505837E+02  0.21373151745E+03  0.23307473355E+03  0.77499324337E+02 0.  0.
          5    1    3    3  501    0 -0.52985372287E+01  0.37302947781E+01  0.15686494540E+03  0.15706906344E+03  0.47000000000E+01 0. -1.
        -11    1    4    4    0    0 -0.22712113659E+01 -0.46045462663E+02  0.12000194734E+03  0.12855275336E+03  0.00000000000E+00 0.  1.
         12    1    4    4    0    0 -0.15476377152E+03 -0.14048302964E+03  0.33008148710E+03  0.39069309530E+03  0.00000000000E+00 0. -1.
         -5    1    5    5    0  502  0.11263340395E+03  0.16989769169E+03  0.57078804325E+03  0.60611268725E+03  0.47000000000E+01 0.  1.
         11    1    6    6    0    0  0.67566713625E+02  0.27911358596E+01  0.12628922717E+03  0.14325508762E+03  0.00000000000E+00 0. -1.
        -12    1    6    6    0    0 -0.17866597467E+02  0.10109369977E+02  0.87442290284E+02  0.89819645939E+02  0.00000000000E+00 0.  1.
</event>
<event>
12    1  0.8133495E-002  0.2590042E+03  0.7818608E-02  0.1107966E+00
         21   -1    0    0  503  502  0.00000000000E+00  0.00000000000E+00  0.95066493819E+03  0.95066493819E+03  0.00000000000E+00 0. -1.
         21   -1    0    0  501  503 -0.00000000000E+00 -0.00000000000E+00 -0.72785428888E+02  0.72785428888E+02  0.00000000000E+00 0. -1.
          6    2    1    2  501    0  0.19120440275E+03 -0.82236607092E+01  0.53485427060E+03  0.59362543629E+03  0.17232328807E+03 0.  0.
         24    2    3    3    0    0  0.16441427653E+03 -0.63480840682E+02  0.43659961611E+03  0.47766365841E+03  0.80507604086E+02 0.  0.
         -6    2    1    2    0  502 -0.19120440275E+03  0.82236607092E+01  0.34302523870E+03  0.42982493078E+03  0.17451763382E+03 0.  0.
        -24    2    5    5    0    0 -0.15086909277E+03  0.54130496408E+02  0.17236045341E+03  0.24848841010E+03  0.79666619490E+02 0.  0.
          5    1    3    3  501    0  0.26790126219E+02  0.55257179973E+02  0.98254654485E+02  0.11596177788E+03  0.47000000000E+01 0. -1.
        -13    1    4    4    0    0  0.69219088797E+02  0.93954340933E+01  0.11634571545E+03  0.13570512864E+03  0.00000000000E+00 0.  1.
         14    1    4    4    0    0  0.95195187730E+02 -0.72876274776E+02  0.32025390067E+03  0.34195852977E+03  0.00000000000E+00 0. -1.
         -5    1    5    5    0  502 -0.40335309977E+02 -0.45906835698E+02  0.17066478529E+03  0.18133652068E+03  0.47000000000E+01 0.  1.
         13    1    6    6    0    0 -0.82179946683E+02 -0.12330980282E+02  0.72846428045E+02  0.11050881770E+03  0.00000000000E+00 0. -1.
        -14    1    6    6    0    0 -0.68689146086E+02  0.66461476690E+02  0.99514025365E+02  0.13797959240E+03  0.00000000000E+00 0.  1.
</event>
<event>
12    1  0.8133495E-002  0.1951456E+03  0.7818608E-02  0.1153970E+00
         21   -1    0    0  501  502  0.00000000000E+00  0.00000000000E+00  0.95686143275E+02  0.95686143275E+02  0.00000000000E+00 0.  1.
         21   -1    0    0  502  503 -0.00000000000E+00 -0.00000000000E+00 -0.40739512939E+03  0.40739512939E+03  0.00000000000E+00 0.  1.
         -6    2    1    2    0  503 -0.84900794410E+02  0.36593281532E+02 -0.19549518524E+03  0.27622482993E+03  0.17185626573E+03 0.  0.
        -24    2    3    3    0    0 -0.12305568005E+03  0.27006607724E+02 -0.17628773804E+03  0.23219398119E+03  0.83454305254E+02 0.  0.
          6    2    1    2  501    0  0.84900794410E+02 -0.36593281532E+02 -0.11621380088E+03  0.22685644274E+03  0.17149631178E+03 0.  0.
         24    2    5    5    0    0  0.97259063591E+02  0.11994659943E+02 -0.34848663929E+02  0.13117002581E+03  0.79924645614E+02 0.  0.
          5    1    5    5  501    0 -0.12358269181E+02 -0.48587941475E+02 -0.81365136947E+02  0.95686416927E+02  0.47000000000E+01 0. -1.
        -11    1    6    6    0    0  0.12194179815E+02  0.26231532508E+02  0.13905324976E+02  0.32095940269E+02  0.00000000000E+00 0.  1.
         12    1    6    6    0    0  0.85064883776E+02 -0.14236872565E+02 -0.48753988905E+02  0.99074085544E+02  0.00000000000E+00 0. -1.
         -5    1    3    3    0  503  0.38154885636E+02  0.95866738078E+01 -0.19207447203E+02  0.44030848739E+02  0.47000000000E+01 0.  1.
         11    1    4    4    0    0 -0.47399262281E+02  0.51353099968E+02 -0.65000220528E+02  0.95440345818E+02  0.00000000000E+00 0. -1.
        -12    1    4    4    0    0 -0.75656417765E+02 -0.24346492244E+02 -0.11128751751E+03  0.13675363537E+03  0.00000000000E+00 0.  1.
</event>
<event>
12    1  0.8133495E-002  0.1926729E+03  0.7818608E-02  0.1156289E+00
         21   -1    0    0  501  502  0.00000000000E+00  0.00000000000E+00  0.16231959073E+03  0.16231959073E+03  0.00000000000E+00 0. -1.
         21   -1    0    0  502  503 -0.00000000000E+00 -0.00000000000E+00 -0.24289558311E+03  0.24289558311E+03  0.00000000000E+00 0. -1.
         -6    2    1    2    0  503 -0.69882039634E+02  0.53023508167E+02  0.10744829358E+02  0.19199622406E+03  0.17044678587E+03 0.  0.
        -24    2    3    3    0    0 -0.81940654525E+02  0.73150529709E+02 -0.35185883605E+02  0.14020599735E+03  0.79714518301E+02 0.  0.
          6    2    1    2  501    0  0.69882039634E+02 -0.53023508167E+02 -0.91320821735E+02  0.21321894978E+03  0.17154543474E+03 0.  0.
         24    2    5    5    0    0 -0.78284972502E+01  0.23233434524E+02 -0.32656897967E+02  0.89454678672E+02  0.79590129429E+02 0.  0.
          5    1    5    5  501    0  0.77710536885E+02 -0.76256942691E+02 -0.58663923769E+02  0.12376427111E+03  0.47000000000E+01 0. -1.
        -13    1    6    6    0    0 -0.40753100877E+01 -0.15335060677E+02 -0.45851347577E+02  0.48519257135E+02  0.00000000000E+00 0.  1.
         14    1    6    6    0    0 -0.37531871625E+01  0.38568495201E+02  0.13194449610E+02  0.40935421537E+02  0.00000000000E+00 0. -1.
         -5    1    3    3    0  503  0.12058614890E+02 -0.20127021542E+02  0.45930712963E+02  0.51790226709E+02  0.47000000000E+01 0.  1.
         11    1    4    4    0    0 -0.40048952884E+02 -0.11033587475E+02 -0.77902580051E+01  0.42265196078E+02  0.00000000000E+00 0. -1.
        -12    1    4    4    0    0 -0.41891701640E+02  0.84184117184E+02 -0.27395625600E+02  0.97940801275E+02  0.00000000000E+00 0.  1.
</event>
<event>
12    1  0.8133495E-002  0.1759772E+03  0.7818608E-02  0.1173594E+00
         21   -1    0    0  503  502  0.00000000000E+00  0.00000000000E+00  0.23142291312E+03  0.23142291312E+03  0.00000000000E+00 0. -1.
         21   -1    0    0  501  503 -0.00000000000E+00 -0.00000000000E+00 -0.13539395308E+03  0.13539395308E+03  0.00000000000E+00 0. -1.
          6    2    1    2  501    0  0.24003824328E+02 -0.30989632088E+02  0.53291918483E+01  0.16884101845E+03  0.16414124511E+03 0.  0.
         24    2    3    3    0    0  0.61102519612E+01 -0.37241717068E+02 -0.56844785673E+02  0.10367229912E+03  0.78053412971E+02 0.  0.
         -6    2    1    2    0  502 -0.24003824328E+02  0.30989632088E+02  0.90699768192E+02  0.19797584776E+03  0.17155596016E+03 0.  0.
        -24    2    5    5    0    0  0.12608786480E+02  0.70046396575E+02  0.96197754342E+02  0.14395518529E+03  0.80022548454E+02 0.  0.
          5    1    3    3  501    0  0.17893572366E+02  0.62520849794E+01  0.62173977521E+02  0.65168719333E+02  0.47000000000E+01 0. -1.
        -11    1    4    4    0    0 -0.31994287198E+02 -0.40801287956E+01 -0.37793412525E+02  0.49685248259E+02  0.00000000000E+00 0.  1.
         12    1    4    4    0    0  0.38104539160E+02 -0.33161588272E+02 -0.19051373149E+02  0.53987050856E+02  0.00000000000E+00 0. -1.
         -5    1    5    5    0  502 -0.36612610808E+02 -0.39056764487E+02 -0.54979861499E+01  0.54020662474E+02  0.47000000000E+01 0.  1.
         13    1    6    6    0    0 -0.27625515777E+02  0.59333895558E+02  0.59650852972E+02  0.88554528649E+02  0.00000000000E+00 0. -1.
        -14    1    6    6    0    0  0.40234302258E+02  0.10712501018E+02  0.36546901370E+02  0.55400656638E+02  0.00000000000E+00 0.  1.
</event>
<event>
12    1  0.8133495E-002  0.1771897E+03  0.7818608E-02  0.1170910E+00
         21   -1    0    0  503  502  0.00000000000E+00  0.00000000000E+00  0.10495449393E+04  0.10495449393E+04  0.00000000000E+00 0.  1.
         21   -1    0    0  501  503 -0.00000000000E+00 -0.00000000000E+00 -0.32059751387E+02  0.32059751387E+02  0.00000000000E+00 0.  1.
          6    2    1    2  501    0 -0.39333642476E+02 -0.21774704336E+00  0.65832870811E+03  0.68175718703E+03  0.17276860624E+03 0.  0.
         24    2    3    3    0    0 -0.52084034380E+02 -0.51641298309E+02  0.55575945290E+03  0.56621716698E+03  0.79710352955E+02 0.  0.
         -6    2    1    2    0  502  0.39333642476E+02  0.21774704336E+00  0.35915647982E+03  0.39984750367E+03  0.17128183311E+03 0.  0.
        -24    2    5    5    0    0 -0.40698919282E+02  0.94426953538E+01  0.22274518911E+03  0.24135321088E+03  0.83008352638E+02 0.  0.
          5    1    3    3  501    0  0.12750391904E+02  0.51423551266E+02  0.10256925521E+03  0.11554002005E+03  0.47000000000E+01 0. -1.
        -11    1    4    4    0    0 -0.68945827780E+02 -0.48649085756E+02  0.36209657425E+03  0.37179858767E+03  0.00000000000E+00 0.  1.
         12    1    4    4    0    0  0.16861793400E+02 -0.29922125532E+01  0.19366287865E+03  0.19441857931E+03  0.00000000000E+00 0. -1.
         -5    1    5    5    0  502  0.80032561758E+02 -0.92249483104E+01  0.13641129071E+03  0.15849429279E+03  0.47000000000E+01 0.  1.
         13    1    6    6    0    0 -0.12262555665E+02 -0.94154579682E+01 -0.54608085611E+00  0.15469949078E+02  0.00000000000E+00 0. -1.
        -14    1    6    6    0    0 -0.28436363617E+02  0.18858153322E+02  0.22329126996E+03  0.22588326181E+03  0.00000000000E+00 0.  1.
</event>
<event>
12    1  0.8133495E-002  0.1981718E+03  0.7818608E-02  0.1151411E+00
         21   -1    0    0  501  502  0.00000000000E+00  0.00000000000E+00  0.87957995101E+03  0.87957995101E+03  0.00000000000E+00 0.  1.
         21   -1    0    0  502  503 -0.00000000000E+00 -0.00000000000E+00 -0.46749676720E+02  0.46749676720E+02  0.00000000000E+00 0.  1.
         -6    2    1    2    0  503 -0.31663078070E+02  0.92205644232E+02  0.31475445037E+03  0.37164535991E+03  0.17188798148E+03 0.  0.
        -24    2    3    3    0    0 -0.36021640222E+02  0.89635084153E+02  0.11186699350E+03  0.16864039692E+03  0.81199460376E+02 0.  0.
          6    2    1    2  501    0  0.31663078070E+02 -0.92205644232E+02  0.51807582392E+03  0.55468426781E+03  0.17253302956E+03 0.  0.
         24    2    5    5    0    0  0.62976472832E+02 -0.10667250793E+03  0.30398275744E+03  0.33777933483E+03  0.79651127677E+02 0.  0.
          5    1    5    5  501    0 -0.31313394762E+02  0.14466863697E+02  0.21409306648E+03  0.21690493299E+03  0.47000000000E+01 0. -1.
        -13    1    6    6    0    0 -0.95917502650E+01 -0.60281393709E+02  0.13236656949E+03  0.14576267293E+03  0.00000000000E+00 0.  1.
         14    1    6    6    0    0  0.72568223097E+02 -0.46391114220E+02  0.17161618795E+03  0.19201666190E+03  0.00000000000E+00 0. -1.
         -5    1    3    3    0  503  0.43585621519E+01  0.25705600796E+01  0.20288745687E+03  0.20300496299E+03  0.47000000000E+01 0.  1.
         11    1    4    4    0    0 -0.11864229705E+02  0.63514800976E+01 -0.11597718243E+02  0.17765368399E+02  0.00000000000E+00 0. -1.
        -12    1    4    4    0    0 -0.24157410517E+02  0.83283604055E+02  0.12346471174E+03  0.15087502852E+03  0.00000000000E+00 0.  1.
</event>
<event>
12    1  0.8133495E-002  0.2387294E+03  0.7818608E-02  0.1120645E+00
         21   -1    0    0  501  502  0.00000000000E+00  0.00000000000E+00  0.36208001084E+03  0.36208001084E+03  0.00000000000E+00 0.  1.
         21   -1    0    0  502  503 -0.00000000000E+00 -0.00000000000E+00 -0.23746012855E+03  0.23746012855E+03  0.00000000000E+00 0. -1.
         -6    2    1    2    0  503 -0.11893335962E+03 -0.11567303204E+03 -0.11176218460E+03  0.26359536143E+03  0.17165760772E+03 0.  0.
        -24    2    3    3    0    0 -0.12002188041E+02 -0.36141981731E+02 -0.29695791117E+01  0.91498341039E+02  0.83143446234E+02 0.  0.
          6    2    1    2  501    0  0.11893335962E+03  0.11567303204E+03  0.23638206689E+03  0.33594477797E+03  0.17163046910E+03 0.  0.
         24    2    5    5    0    0  0.10888487110E+03  0.34563426433E+02  0.20639435046E+03  0.24876052836E+03  0.78946988332E+02 0.  0.
          5    1    5    5  501    0  0.10048488515E+02  0.81109605604E+02  0.29987716431E+02  0.87184249606E+02  0.47000000000E+01 0. -1.
        -11    1    6    6    0    0  0.60814001904E+02 -0.16795066842E+02  0.13240384002E+03  0.14666694907E+03  0.00000000000E+00 0.  1.
         12    1    6    6    0    0  0.48070869199E+02  0.51358493275E+02  0.73990510440E+02  0.10209357929E+03  0.00000000000E+00 0. -1.
         -5    1    3    3    0  503 -0.10693117158E+03 -0.79531050306E+02 -0.10879260549E+03  0.17209702039E+03  0.47000000000E+01 0.  1.
         11    1    4    4    0    0 -0.27964379469E+02  0.11421378385E+02 -0.22494697671E+02  0.37662525494E+02  0.00000000000E+00 0. -1.
        -12    1    4    4    0    0  0.15962191428E+02 -0.47563360116E+02  0.19525118559E+02  0.53835815545E+02  0.00000000000E+00 0.  1.
</event>
<event>
12    1  0.8133495E-002  0.2040467E+03  0.7818608E-02  0.1146604E+00
         21   -1    0    0  501  502  0.00000000000E+00  0.00000000000E+00  0.72368484335E+03  0.72368484335E+03  0.00000000000E+00 0. -1.
         21   -1    0    0  502  503 -0.00000000000E+00 -0.00000000000E+00 -0.59522198818E+02  0.59522198818E+02  0.00000000000E+00 0. -1.
         -6    2    1    2    0  503  0.57779017662E+02 -0.95358379286E+02  0.25401049573E+03  0.32510243157E+03  0.16952469936E+03 0.  0.
        -24    2    3    3    0    0 -0.38512825448E+01 -0.57959266623E+02  0.22748170003E+03  0.24814234755E+03  0.80328026462E+02 0.  0.
          6    2    1    2  501    0 -0.57779017662E+02  0.95358379286E+02  0.41015214880E+03  0.45810461060E+03  0.17089006319E+03 0.  0.
         24    2    5    5    0    0  0.19374885551E+01  0.85080035451E+02  0.13495297628E+03  0.17627420055E+03  0.74952796340E+02 0.  0.
          5    1    5    5  501    0 -0.59716506217E+02  0.10278343835E+02  0.27519917253E+03  0.28183041005E+03  0.47000000000E+01 0. -1.
        -13    1    6    6    0    0  0.28040467283E+01  0.17934446260E+02 -0.68286593024E+01  0.19394267931E+02  0.00000000000E+00 0.  1.
         14    1    6    6    0    0 -0.86655817317E+00  0.67145589191E+02  0.14178163558E+03  0.15687993262E+03  0.00000000000E+00 0. -1.
         -5    1    3    3    0  503  0.61630300207E+02 -0.37399112664E+02  0.26528795700E+02  0.76960084024E+02  0.47000000000E+01 0.  1.
         13    1    4    4    0    0  0.35736967012E+01 -0.77285812409E+02  0.19289466260E+03  0.20783218944E+03  0.00000000000E+00 0. -1.
        -14    1    4    4    0    0 -0.74249792459E+01  0.19326545786E+02  0.34587037429E+02  0.40310158111E+02  0.00000000000E+00 0.  1.
</event>
<event>
12    1  0.8133495E-002  0.1878021E+03  0.7818608E-02  0.1161916E+00
         21   -1    0    0  501  502  0.00000000000E+00  0.00000000000E+00  0.10141306866E+03  0.10141306866E+03  0.00000000000E+00 0.  1.
         21   -1    0    0  502  503 -0.00000000000E+00 -0.00000000000E+00 -0.94510288378E+03  0.94510288378E+03  0.00000000000E+00 0.  1.
         -6    2    1    2    0  503 -0.20283370401E+02  0.72982278906E+02 -0.84432779135E+03  0.86496187313E+03  0.17184817300E+03 0.  0.
        -24    2    3    3    0    0 -0.56574135445E+02  0.10294562494E+03 -0.57278074094E+03  0.58932676593E+03  0.73687348653E+02 0.  0.
          6    2    1    2  501    0  0.20283370401E+02 -0.72982278906E+02  0.63797623142E+00  0.18155407931E+03  0.16499590464E+03 0.  0.
         24    2    5    5    0    0 -0.40929678380E+01 -0.92857099256E+02 -0.39929932739E+02  0.13000740543E+03  0.81659859593E+02 0.  0.
          5    1    5    5  501    0  0.24376338239E+02  0.19874820350E+02  0.40567908970E+02  0.51546673880E+02  0.47000000000E+01 0. -1.
        -13    1    6    6    0    0 -0.48979486848E+01 -0.19913998448E+02  0.25009410713E+02  0.32342353961E+02  0.00000000000E+00 0.  1.
         14    1    6    6    0    0  0.80498084686E+00 -0.72943100808E+02 -0.64939343451E+02  0.97665051465E+02  0.00000000000E+00 0. -1.
         -5    1    3    3    0  503  0.36290765044E+02 -0.29963346034E+02 -0.27154705041E+03  0.27563510720E+03  0.47000000000E+01 0.  1.
         13    1    4    4    0    0  0.75377636195E+01  0.34346344449E+02 -0.75867634649E+02  0.83620495362E+02  0.00000000000E+00 0. -1.
        -14    1    4    4    0    0 -0.64111899064E+02  0.68599280491E+02 -0.49691310629E+03  0.50570627057E+03  0.00000000000E+00 0.  1.
</event>
<event>
12    1  0.8133495E-002  0.1863882E+03  0.7818608E-02  0.1161845E+00
         21   -1    0    0  503  502  0.00000000000E+00  0.00000000000E+00  0.57082438511E+02  0.57082438511E+02  0.00000000000E+00 0.  1.
         21   -1    0    0  501  503 -0.00000000000E+00 -0.00000000000E+00 -0.68308393841E+03  0.68308393841E+03  0.00000000000E+00 0.  1.
          6    2    1    2  501    0 -0.69277648652E+02  0.13109272415E+02 -0.18954184667E+03  0.26557436306E+03  0.17214059676E+03 0.  0.
         24    2    3    3    0    0 -0.34141568905E+02 -0.58361077444E+02 -0.87188000478E+02  0.13580165854E+03  0.79175002036E+02 0.  0.
         -6    2    1    2    0  502  0.69277648652E+02 -0.13109272415E+02 -0.43645965323E+03  0.47459201386E+03  0.17253783670E+03 0.  0.
        -24    2    5    5    0    0  0.45749471457E+02  0.53603600057E+02 -0.32311285642E+03  0.34089919871E+03  0.82728384594E+02 0.  0.
          5    1    3    3  501    0 -0.35136079747E+02  0.71470349859E+02 -0.10235384619E+03  0.12977270452E+03  0.47000000000E+01 0. -1.
        -11    1    4    4    0    0  0.14111144488E+02 -0.48781816089E+02 -0.25275654601E+02  0.56724321902E+02  0.00000000000E+00 0.  1.
         12    1    4    4    0    0 -0.48252713394E+02 -0.95792613548E+01 -0.61912345877E+02  0.79077336639E+02  0.00000000000E+00 0. -1.
         -5    1    5    5    0  502  0.23528177195E+02 -0.66712872472E+02 -0.11334679681E+03  0.13369281515E+03  0.47000000000E+01 0.  1.
         13    1    6    6    0    0  0.26849746137E+02 -0.19364348347E+02 -0.89417112429E+02  0.95348344766E+02  0.00000000000E+00 0. -1.
        -14    1    6    6    0    0  0.18899725320E+02  0.72967948404E+02 -0.23369574399E+03  0.24555085394E+03  0.00000000000E+00 0.  1.
</event>
<event>
12    1  0.8133495E-002  0.2953676E+03  0.7818608E-02  0.1087786E+00
         21   -1    0    0  503  502  0.00000000000E+00  0.00000000000E+00  0.28343588935E+03  0.28343588935E+03  0.00000000000E+00 0.  1.
         21   -1    0    0  501  503 -0.00000000000E+00 -0.00000000000E+00 -0.59050852274E+03  0.59050852274E+03  0.00000000000E+00 0. -1.
          6    2    1    2  501    0  0.15578660659E+03 -0.18047794198E+03 -0.45699979449E+03  0.54414226668E+03  0.17435664569E+03 0.  0.
         24    2    3    3    0    0  0.17296681513E+03 -0.13821373593E+03 -0.30446235980E+03  0.38485892901E+03  0.79990691757E+02 0.  0.
         -6    2    1    2    0  502 -0.15578660659E+03  0.18047794198E+03  0.14992716110E+03  0.32980214541E+03  0.17160870359E+03 0.  0.
        -24    2    5    5    0    0 -0.16568829621E+03  0.17421088899E+03  0.17054718435E+03  0.30562375073E+03  0.80730970372E+02 0.  0.
          5    1    3    3  501    0 -0.17180208545E+02 -0.42264206046E+02 -0.15253743469E+03  0.15928333767E+03  0.47000000000E+01 0. -1.
        -13    1    4    4    0    0  0.15765070477E+02 -0.10055743549E+02  0.38718275919E+00  0.18703083594E+02  0.00000000000E+00 0.  1.
         14    1    4    4    0    0  0.15720174465E+03 -0.12815799238E+03 -0.30484954256E+03  0.36615584542E+03  0.00000000000E+00 0. -1.
         -5    1    5    5    0  502  0.99016896270E+01  0.62670529843E+01 -0.20620023243E+02  0.24178394676E+02  0.47000000000E+01 0.  1.
         13    1    6    6    0    0 -0.11943203178E+03  0.80061762530E+02  0.68464021377E+02  0.15925205888E+03  0.00000000000E+00 0. -1.
        -14    1    6    6    0    0 -0.46256264428E+02  0.94149126462E+02  0.10208316297E+03  0.14637169185E+03  0.00000000000E+00 0.  1.
</event>
<event>
12    1  0.8133495E-002  0.2726640E+03  0.7818608E-02  0.1100563E+00
         21   -1    0    0  503  502  0.00000000000E+00  0.00000000000E+00  0.30351129194E+03  0.30351129194E+03  0.00000000000E+00 0. -1.
         21   -1    0    0  501  503 -0.00000000000E+00 -0.00000000000E+00 -0.49394917179E+03  0.49394917179E+03  0.00000000000E+00 0. -1.
          6    2    1    2  501    0  0.92974876799E+02 -0.18119272088E+03 -0.38161266049E+03  0.46901371206E+03  0.18130226044E+03 0.  0.
         24    2    3    3    0    0  0.11557259592E+02 -0.13177636113E+03 -0.13734231088E+03  0.20679071784E+03  0.80005693684E+02 0.  0.
         -6    2    1    2    0  502 -0.92974876799E+02  0.18119272088E+03  0.19117478065E+03  0.32844675166E+03  0.17278409100E+03 0.  0.
        -24    2    5    5    0    0 -0.10723220426E+03  0.72332719284E+02  0.13577617430E+03  0.20538226889E+03  0.83761201978E+02 0.  0.
          5    1    3    3  501    0  0.81417617207E+02 -0.49416359745E+02 -0.24427034961E+03  0.26222299423E+03  0.47000000000E+01 0. -1.
        -13    1    4    4    0    0  0.58285940534E+01 -0.26724159386E+02  0.69444094273E+01  0.28220170549E+02  0.00000000000E+00 0.  1.
         14    1    4    4    0    0  0.57286655386E+01 -0.10505220175E+03 -0.14428672031E+03  0.17857054729E+03  0.00000000000E+00 0. -1.
         -5    1    5    5    0  502  0.14257327464E+02  0.10886000159E+03  0.55398606345E+02  0.12306448277E+03  0.47000000000E+01 0.  1.
         13    1    6    6    0    0  0.98136066288E+00  0.41591828449E+02  0.36324505224E+02  0.55229638260E+02  0.00000000000E+00 0. -1.
        -14    1    6    6    0    0 -0.10821356493E+03  0.30740890835E+02  0.99451669078E+02  0.15015263063E+03  0.00000000000E+00 0.  1.
</event>
<event>
12    1  0.8133495E-002  0.1752460E+03  0.7818608E-02  0.1172497E+00
         21   -1    0    0  503  502  0.00000000000E+00  0.00000000000E+00  0.95380733282E+02  0.95380733282E+02  0.00000000000E+00 0.  1.
         21   -1    0    0  501  503 -0.00000000000E+00 -0.00000000000E+00 -0.44154253953E+03  0.44154253953E+03  0.00000000000E+00 0.  1.
          6    2    1    2  501    0 -0.25298967575E+02 -0.28163301743E+02 -0.31284646261E+03  0.35858621163E+03  0.17110801466E+03 0.  0.
         24    2    3    3    0    0  0.40160883122E+02 -0.15100459551E+02 -0.25710674369E+03  0.27149639498E+03  0.75930852915E+02 0.  0.
         -6    2    1    2    0  502  0.25298967575E+02  0.28163301743E+02 -0.33315343642E+02  0.17833706118E+03  0.17105842845E+03 0.  0.
        -24    2    5    5    0    0 -0.39510782700E+02  0.21741309573E+02 -0.60699252633E+02  0.10753088782E+03  0.76450677395E+02 0.  0.
          5    1    3    3  501    0 -0.65459850697E+02 -0.13062842192E+02 -0.55739718919E+02  0.87089816653E+02  0.47000000000E+01 0. -1.
        -11    1    4    4    0    0 -0.18898679138E+02  0.98608594807E+01 -0.90528892224E+02  0.93004714666E+02  0.00000000000E+00 0.  1.
         12    1    4    4    0    0  0.59059562260E+02 -0.24961319031E+02 -0.16657785146E+03  0.17849168031E+03  0.00000000000E+00 0. -1.
         -5    1    5    5    0  502  0.64809750275E+02  0.64219921696E+01  0.27383908991E+02  0.70806173359E+02  0.47000000000E+01 0.  1.
         13    1    6    6    0    0  0.24549521566E+01 -0.16939318324E+02 -0.45286983067E+02  0.48413615138E+02  0.00000000000E+00 0. -1.
        -14    1    6    6    0    0 -0.41965734856E+02  0.38680627897E+02 -0.15412269566E+02  0.59117272685E+02  0.00000000000E+00 0.  1.
</event>
<event>
12    1  0.8133495E-002  0.1788382E+03  0.7818608E-02  0.1169274E+00
         21   -1    0    0  503  502  0.00000000000E+00  0.00000000000E+00  0.69529187964E+02  0.69529187964E+02  0.00000000000E+00 0. -1.
         21   -1    0    0  501  503 -0.00000000000E+00 -0.00000000000E+00 -0.76030891742E+03  0.76030891742E+03  0.00000000000E+00 0. -1.
          6    2    1    2  501    0 -0.33028433896E+02 -0.32445324752E+02 -0.60851978123E+03  0.63425501309E+03  0.17274119641E+03 0.  0.
         24    2    3    3    0    0 -0.49030038638E+02  0.41742079539E+02 -0.37114699569E+03  0.38500062171E+03  0.79555266391E+02 0.  0.
         -6    2    1    2    0  502  0.33028433896E+02  0.32445324752E+02 -0.82259948231E+02  0.19558309230E+03  0.17129644003E+03 0.  0.
        -24    2    5    5    0    0  0.79142988523E+02  0.23096593575E+02 -0.19383842863E+02  0.11691006293E+03  0.80592581445E+02 0.  0.
          5    1    3    3  501    0  0.16001604742E+02 -0.74187404290E+02 -0.23737278553E+03  0.24925439138E+03  0.47000000000E+01 0. -1.
        -13    1    4    4    0    0 -0.67755188957E+02  0.37018285712E+02 -0.23176164600E+03  0.24428380967E+03  0.00000000000E+00 0.  1.
         14    1    4    4    0    0  0.18725150319E+02  0.47237938269E+01 -0.13938534969E+03  0.14071681204E+03  0.00000000000E+00 0. -1.
         -5    1    5    5    0  502 -0.46114554628E+02  0.93487311769E+01 -0.62876105368E+02  0.78673029364E+02  0.47000000000E+01 0.  1.
         11    1    6    6    0    0 -0.86950839938E+01  0.22062600410E+02  0.77867174476E+01  0.24959883636E+02  0.00000000000E+00 0. -1.
        -12    1    6    6    0    0  0.87838072517E+02  0.10339931653E+01 -0.27170560311E+02  0.91950179298E+02  0.00000000000E+00 0.  1.
</event>
<event>
12    1  0.8133495E-002  0.1882565E+03  0.7818608E-02  0.1160411E+00
         21   -1    0    0  501  502  0.00000000000E+00  0.00000000000E+00  0.38398227482E+03  0.38398227482E+03  0.00000000000E+00 0. -1.
         21   -1    0    0  502  503 -0.00000000000E+00 -0.00000000000E+00 -0.10769389803E+03  0.10769389803E+03  0.00000000000E+00 0. -1.
         -6    2    1    2    0  503  0.51174559077E+02  0.51233451742E+02  0.42351552507E+02  0.19139805589E+03  0.17203447249E+03 0.  0.
        -24    2    3    3    0    0 -0.12876647978E+01 -0.31550584367E+02  0.26052774181E+02  0.91933380036E+02  0.82315866441E+02 0.  0.
          6    2    1    2  501    0 -0.51174559077E+02 -0.51233451742E+02  0.23393682429E+03  0.30027811695E+03  0.17377228689E+03 0.  0.
         24    2    5    5    0    0  0.37549112225E+02 -0.81586983600E+01  0.13035207238E+03  0.15717250890E+03  0.78962235234E+02 0.  0.
          5    1    5    5  501    0 -0.88723671302E+02 -0.43074753382E+02  0.10358475191E+03  0.14310560805E+03  0.47000000000E+01 0. -1.
        -11    1    6    6    0    0  0.28745159558E+02 -0.40739898200E+02  0.10018104027E+03  0.11190292371E+03  0.00000000000E+00 0.  1.
         12    1    6    6    0    0  0.88039526673E+01  0.32581199840E+02  0.30171032106E+02  0.45269585197E+02  0.00000000000E+00 0. -1.
         -5    1    3    3    0  503  0.52462223875E+02  0.82784036109E+02  0.16298778326E+02  0.99464675857E+02  0.47000000000E+01 0.  1.
         11    1    4    4    0    0  0.76707442953E+00 -0.57895983526E+02  0.49434585729E+01  0.58111712195E+02  0.00000000000E+00 0. -1.
        -12    1    4    4    0    0 -0.20547392273E+01  0.26345399159E+02  0.21109315608E+02  0.33821667841E+02  0.00000000000E+00 0.  1.
</event>
<event>
12    1  0.8133495E-002  0.1710982E+03  0.7818608E-02  0.1182030E+00
         21   -1    0    0  503  502  0.00000000000E+00  0.00000000000E+00  0.47636304447E+02  0.47636304447E+02  0.00000000000E+00 0.  1.
         21   -1    0    0  501  503 -0.00000000000E+00 -0.00000000000E+00 -0.74687084339E+03  0.74687084339E+03  0.00000000000E+00 0.  1.
          6    2    1    2  501    0  0.12105296093E+02 -0.70677615327E+00 -0.53946404694E+03  0.56041058177E+03  0.15129945307E+03 0.  0.
         24    2    3    3    0    0  0.19075927564E+01 -0.50513418384E+02 -0.41522922565E+03  0.42609351069E+03  0.81148787250E+02 0.  0.
         -6    2    1    2    0  502 -0.12105296093E+02  0.70677615327E+00 -0.15977049201E+03  0.23409656607E+03  0.17066796537E+03 0.  0.
        -24    2    5    5    0    0 -0.40715767326E+02  0.45831471811E+02 -0.49567962899E+02  0.11153439962E+03  0.78896399380E+02 0.  0.
          5    1    3    3  501    0  0.10197703337E+02  0.49806642230E+02 -0.12423482129E+03  0.13431707108E+03  0.47000000000E+01 0. -1.
        -13    1    4    4    0    0  0.20638161234E+02  0.16097332995E+02 -0.10102040181E+03  0.10435602240E+03  0.00000000000E+00 0.  1.
         14    1    4    4    0    0 -0.18730568478E+02 -0.66610751379E+02 -0.31420882384E+03  0.32173748829E+03  0.00000000000E+00 0. -1.
         -5    1    5    5    0  502  0.28610471233E+02 -0.45124695657E+02 -0.11020252911E+03  0.12256216645E+03  0.47000000000E+01 0.  1.
         11    1    6    6    0    0  0.11264887079E+01  0.54593947509E+02 -0.40101816840E+02  0.67748976341E+02  0.00000000000E+00 0. -1.
        -12    1    6    6    0    0 -0.41842256034E+02 -0.87624756983E+01 -0.94661460589E+01  0.43785423278E+02  0.00000000000E+00 0.  1.
</event>
<event>
12    1  0.8133495E-002  0.1951526E+03  0.7818608E-02  0.1155222E+00
         21   -1    0    0  503  502  0.00000000000E+00  0.00000000000E+00  0.97710404472E+03  0.97710404472E+03  0.00000000000E+00 0. -1.
         21   -1    0    0  501  503 -0.00000000000E+00 -0.00000000000E+00 -0.10357921783E+03  0.10357921783E+03  0.00000000000E+00 0. -1.
          6    2    1    2  501    0 -0.72591672925E+02 -0.21404841725E+02  0.86280109524E+01  0.19534319408E+03  0.17987996740E+03 0.  0.
         24    2    3    3    0    0  0.19042679630E+02 -0.16080488263E+01 -0.37629603602E+02  0.90697962553E+02  0.80280283231E+02 0.  0.
         -6    2    1    2    0  502  0.72591672925E+02  0.21404841725E+02  0.86489681594E+03  0.88534006846E+03  0.17335748147E+03 0.  0.
        -24    2    5    5    0    0  0.97304628354E+02 -0.29140517041E+02  0.67572924180E+03  0.68792673415E+03  0.79472151764E+02 0.  0.
          5    1    3    3  501    0 -0.91634352555E+02 -0.19796792898E+02  0.46257614554E+02  0.10464523153E+03  0.47000000000E+01 0. -1.
        -11    1    4    4    0    0  0.83815124062E+01 -0.41177743606E+00 -0.62788742481E+02  0.63347024344E+02  0.00000000000E+00 0.  1.
         12    1    4    4    0    0  0.10661167224E+02 -0.11962713902E+01  0.25159138879E+02  0.27350938210E+02  0.00000000000E+00 0. -1.
         -5    1    5    5    0  502 -0.24712955429E+02  0.50545358766E+02  0.18916757414E+03  0.19741333431E+03  0.47000000000E+01 0.  1.
         11    1    6    6    0    0  0.41023855022E+01 -0.22899683263E+02  0.29460883845E+03  0.29552595952E+03  0.00000000000E+00 0. -1.
        -12    1    6    6    0    0  0.93202242852E+02 -0.62408337782E+01  0.38112040336E+03  0.39240077463E+03  0.00000000000E+00 0.  1.
</event>
<event>
12    1  0.8133495E-002  0.1950196E+03  0.7818608E-02  0.1154768E+00
         21   -1    0    0  501  502  0.00000000000E+00  0.00000000000E+00  0.81914698255E+02  0.81914698255E+02  0.00000000000E+00 0.  1.
         21   -1    0    0  502  503 -0.00000000000E+00 -0.00000000000E+00 -0.46538949297E+03  0.46538949297E+03  0.00000000000E+00 0.  1.
         -6    2    1    2    0  503 -0.25014749897E+02  0.82013852192E+02 -0.22864828731E+03  0.29829840805E+03  0.17131809972E+03 0.  0.
        -24    2    3    3    0    0  0.53561826463E+01  0.10895955478E+03 -0.11373552556E+03  0.17633326038E+03  0.79099783012E+02 0.  0.
          6    2    1    2  501    0  0.25014749897E+02 -0.82013852192E+02 -0.15482650741E+03  0.24900578317E+03  0.17515885075E+03 0.  0.
         24    2    5    5    0    0 -0.43825500920E+02 -0.83982256297E+02 -0.11595151718E+03  0.16978325095E+03  0.80049385147E+02 0.  0.
          5    1    5    5  501    0  0.68840250817E+02  0.19684041058E+01 -0.38874990224E+02  0.79222532225E+02  0.47000000000E+01 0. -1.
        -11    1    6    6    0    0  0.17635107689E+02 -0.41964039798E+02 -0.23962958425E+02  0.51441238669E+02  0.00000000000E+00 0.  1.
         12    1    6    6    0    0 -0.61460608609E+02 -0.42018216500E+02 -0.91988558756E+02  0.11834201228E+03  0.00000000000E+00 0. -1.
         -5    1    3    3    0  503 -0.30370932543E+02 -0.26945702592E+02 -0.11491276175E+03  0.12196514767E+03  0.47000000000E+01 0.  1.
         11    1    4    4    0    0  0.40904247931E+02  0.75622943751E+02 -0.70522776143E+02  0.11120004081E+03  0.00000000000E+00 0. -1.
        -12    1    4    4    0    0 -0.35548065285E+02  0.33336611033E+02 -0.43212749415E+02  0.65133219578E+02  0.00000000000E+00 0.  1.
</event>
<event>
12    1  0.8133495E-002  0.1969117E+03  0.7818608E-02  0.1152677E+00
         21   -1    0    0  503  502  0.00000000000E+00  0.00000000000E+00  0.15149212815E+03  0.15149212815E+03  0.00000000000E+00 0.  1.
         21   -1    0    0  501  503 -0.00000000000E+00 -0.00000000000E+00 -0.42830886896E+03  0.42830886896E+03  0.00000000000E+00 0.  1.
          6    2    1    2  501    0  0.10489109786E+02 -0.93910074896E+02 -0.32358378260E+03  0.37878843460E+03  0.17275731601E+03 0.  0.
         24    2    3    3    0    0  0.22699999509E+02  0.64723357621E+01 -0.94938945397E+02  0.12873586857E+03  0.83679982055E+02 0.  0.
         -6    2    1    2    0  502 -0.10489109786E+02  0.93910074896E+02  0.46767041789E+02  0.20101256250E+03  0.17114254438E+03 0.  0.
        -24    2    5    5    0    0  0.23924531890E+02 -0.24081284695E+01  0.49125428050E+02  0.98596025662E+02  0.82034665150E+02 0.  0.
          5    1    3    3  501    0 -0.12210889723E+02 -0.10038241066E+03 -0.22864483720E+03  0.25005256603E+03  0.47000000000E+01 0. -1.
        -11    1    4    4    0    0  0.33989629355E+02 -0.13644276444E+02 -0.98778810786E+02  0.10535043732E+03  0.00000000000E+00 0.  1.
         12    1    4    4    0    0 -0.11289629846E+02  0.20116612206E+02  0.38398653893E+01  0.23385431254E+02  0.00000000000E+00 0. -1.
         -5    1    5    5    0  502 -0.34413641675E+02  0.96318203365E+02 -0.23583862606E+01  0.10241653684E+03  0.47000000000E+01 0.  1.
         13    1    6    6    0    0  0.47321783850E+02 -0.24485607750E+02  0.29244964719E+02  0.60779636187E+02  0.00000000000E+00 0. -1.
        -14    1    6    6    0    0 -0.23397251960E+02  0.22077479281E+02  0.19880463331E+02  0.37816389475E+02  0.00000000000E+00 0.  1.
</event>
<event>
12    1  0.8133495E-002  0.2248070E+03  0.7818608E-02  0.1130753E+00
         21   -1    0    0  503  502  0.00000000000E+00  0.00000000000E+00  0.17231608859E+04  0.17231608859E+04  0.00000000000E+00 0. -1.
         21   -1    0    0  501  503 -0.00000000000E+00 -0.00000000000E+00 -0.42560013327E+02  0.42560013327E+02  0.00000000000E+00 0. -1.
          6    2    1    2  501    0  0.14271257725E+03 -0.15859263962E+02  0.34555133057E+03  0.41224251018E+03  0.17297331927E+03 0.  0.
         24    2    3    3    0    0  0.39027909738E+02 -0.13091916089E+01  0.27664822180E+03  0.28681546652E+03  0.64838117565E+02 0.  0.
         -6    2    1    2    0  502 -0.14271257725E+03  0.15859263962E+02  0.13350495420E+04  0.13534783891E+04  0.17008255075E+03 0.  0.
        -24    2    5    5    0    0 -0.58674188719E+02  0.61219673938E+02  0.93175850778E+03  0.93900792470E+03  0.79821406411E+02 0.  0.
          5    1    3    3  501    0  0.10368466751E+03 -0.14550072354E+02  0.68903108767E+02  0.12542704365E+03  0.47000000000E+01 0. -1.
        -11    1    4    4    0    0  0.44655909352E+01  0.14642777102E+02  0.20597121544E+03  0.20653932801E+03  0.00000000000E+00 0.  1.
         12    1    4    4    0    0  0.34562318803E+02 -0.15951968711E+02  0.70677006362E+02  0.80276138516E+02  0.00000000000E+00 0. -1.
         -5    1    5    5    0  502 -0.84038388527E+02 -0.45360409975E+02  0.40329103426E+03  0.41447046439E+03  0.47000000000E+01 0.  1.
         13    1    6    6    0    0 -0.17423815585E+02 -0.12455204560E+02  0.40130999644E+03  0.40188112012E+03  0.00000000000E+00 0. -1.
        -14    1    6    6    0    0 -0.41250373134E+02  0.73674878498E+02  0.53044851135E+03  0.53712680458E+03  0.00000000000E+00 0.  1.
</event>
<event>
12    1  0.8133495E-002  0.2220437E+03  0.7818608E-02  0.1132517E+00
         21   -1    0    0  501  502  0.00000000000E+00  0.00000000000E+00  0.10369434770E+03  0.10369434770E+03  0.00000000000E+00 0. -1.
         21   -1    0    0  502  503 -0.00000000000E+00 -0.00000000000E+00 -0.14275023656E+04  0.14275023656E+04  0.00000000000E+00 0. -1.
         -6    2    1    2    0  503  0.28997497561E+02 -0.13429510770E+03 -0.12872980341E+04  0.13061713950E+04  0.17341122705E+03 0.  0.
        -24    2    3    3    0    0  0.40800077618E+02 -0.16516700730E+03 -0.10935740018E+04  0.11095919816E+04  0.79658530998E+02 0.  0.
          6    2    1    2  501    0 -0.28997497561E+02  0.13429510770E+03 -0.36509983836E+02  0.22502531834E+03  0.17443446953E+03 0.  0.
         24    2    5    5    0    0 -0.82880478590E+02  0.92845904961E+02 -0.36913507262E+02  0.15688087702E+03  0.88087835465E+02 0.  0.
          5    1    5    5  501    0  0.53882981029E+02  0.41449202738E+02  0.40352342618E+00  0.68144441324E+02  0.47000000000E+01 0. -1.
        -11    1    6    6    0    0 -0.56696050911E+02  0.20116512029E+02  0.17144697359E+02  0.62554431439E+02  0.00000000000E+00 0.  1.
         12    1    6    6    0    0 -0.26184427679E+02  0.72729392932E+02 -0.54058204621E+02  0.94326445581E+02  0.00000000000E+00 0. -1.
         -5    1    3    3    0  503 -0.11802580057E+02  0.30871899602E+02 -0.19372403228E+03  0.19657941338E+03  0.47000000000E+01 0.  1.
         13    1    4    4    0    0  0.26875058776E+02 -0.54270268106E+02 -0.19755111990E+03  0.20662520601E+03  0.00000000000E+00 0. -1.
        -14    1    4    4    0    0  0.13925018841E+02 -0.11089673919E+03 -0.89602288190E+03  0.90296677558E+03  0.00000000000E+00 0.  1.
</event>
<event>
12    1  0.8133495E-002  0.2016909E+03  0.7818608E-02  0.1148726E+00
         21   -1    0    0  501  502  0.00000000000E+00  0.00000000000E+00  0.18977986905E+03  0.18977986905E+03  0.00000000000E+00 0. -1.
         21   -1    0    0  502  503 -0.00000000000E+00 -0.00000000000E+00 -0.21423612533E+03  0.21423612533E+03  0.00000000000E+00 0.  1.
         -6    2    1    2    0  503  0.10428644873E+03  0.11578053174E+02  0.70447459055E+01  0.19987993996E+03  0.16997837289E+03 0.  0.
        -24    2    3    3    0    0  0.10436682336E+03  0.25236559661E+02 -0.48742580070E+02  0.14225288903E+03  0.79565869332E+02 0.  0.
          6    2    1    2  501    0 -0.10428644873E+03 -0.11578053174E+02 -0.31501002181E+02  0.20413605442E+03  0.17224836972E+03 0.  0.
         24    2    5    5    0    0  0.14047379750E+00 -0.46218720559E+02 -0.25162133116E+02  0.93830890232E+02  0.77684703486E+02 0.  0.
          5    1    5    5  501    0 -0.10442692252E+03  0.34640667386E+02 -0.63388690646E+01  0.11030516418E+03  0.47000000000E+01 0. -1.
        -13    1    6    6    0    0  0.27325897426E+02  0.45003721430E+01 -0.23403626057E+02  0.36258622867E+02  0.00000000000E+00 0.  1.
         14    1    6    6    0    0 -0.27185423629E+02 -0.50719092702E+02 -0.17585070589E+01  0.57572267365E+02  0.00000000000E+00 0. -1.
         -5    1    3    3    0  503 -0.80374636750E-01 -0.13658506487E+02  0.55787325975E+02  0.57627050931E+02  0.47000000000E+01 0.  1.
         11    1    4    4    0    0  0.29070888529E+02  0.16717159784E+02  0.20750732163E+02  0.39435680246E+02  0.00000000000E+00 0. -1.
        -12    1    4    4    0    0  0.75295934834E+02  0.85193998769E+01 -0.69493312233E+02  0.10281720878E+03  0.00000000000E+00 0.  1.
</event>
<event>
12    1  0.8133495E-002  0.2309855E+03  0.7818608E-02  0.1126401E+00
         21   -1    0    0  501  502  0.00000000000E+00  0.00000000000E+00  0.26482392427E+03  0.26482392427E+03  0.00000000000E+00 0.  1.
         21   -1    0    0  502  503 -0.00000000000E+00 -0.00000000000E+00 -0.20515600056E+03  0.20515600056E+03  0.00000000000E+00 0. -1.
         -6    2    1    2    0  503 -0.15095437267E+03 -0.15356983324E+02  0.69593163679E+02  0.23878130278E+03  0.17073442114E+03 0.  0.
        -24    2    3    3    0    0 -0.56904799883E+02  0.25686786097E+02 -0.19670985571E+02  0.10269275994E+03  0.79125773561E+02 0.  0.
          6    2    1    2  501    0  0.15095437267E+03  0.15356983324E+02 -0.99252399651E+01  0.23119862205E+03  0.17415864287E+03 0.  0.
         24    2    5    5    0    0  0.16395617156E+03  0.52355310379E+02 -0.16658653392E+02  0.19113177996E+03  0.81431823381E+02 0.  0.
          5    1    5    5  501    0 -0.13001798888E+02 -0.36998327055E+02  0.67334134271E+01  0.40066842096E+02  0.47000000000E+01 0. -1.
        -11    1    6    6    0    0 -0.88974827780E+01  0.66620565416E+01 -0.42865083509E+01  0.11913116762E+02  0.00000000000E+00 0.  1.
         12    1    6    6    0    0  0.17285365434E+03  0.45693253838E+02 -0.12372145041E+02  0.17921866320E+03  0.00000000000E+00 0. -1.
         -5    1    3    3    0  503 -0.94049572790E+02 -0.41043769422E+02  0.89264149250E+02  0.13608854284E+03  0.47000000000E+01 0.  1.
         11    1    4    4    0    0  0.37584543740E+01 -0.17069259281E+02  0.12819890995E+02  0.21675682154E+02  0.00000000000E+00 0. -1.
        -12    1    4    4    0    0 -0.60663254257E+02  0.42756045379E+02 -0.32490876566E+02  0.81017077789E+02  0.00000000000E+00 0.  1.
</event>
<event>
12    1  0.8133495E-002  0.1795281E+03  0.7818608E-02  0.1168938E+00
         21   -1    0    0  501  502  0.00000000000E+00  0.00000000000E+00  0.41841745039E+02  0.41841745039E+02  0.00000000000E+00 0.  1.
         21   -1    0    0  502  503 -0.00000000000E+00 -0.00000000000E+00 -0.77430764940E+03  0.77430764940E+03  0.00000000000E+00 0.  1.
         -6    2    1    2    0  503 -0.36477731304E+02  0.31950707909E+02 -0.42737953977E+03  0.46355540219E+03  0.17285504699E+03 0.  0.
        -24    2    3    3    0    0  0.56153900645E+01  0.26780750179E+02 -0.90203962297E+02  0.12369069474E+03  0.80086777715E+02 0.  0.
          6    2    1    2  501    0  0.36477731304E+02 -0.31950707909E+02 -0.30508636459E+03  0.35259399225E+03  0.16998047209E+03 0.  0.
         24    2    5    5    0    0 -0.12559271376E+02 -0.57681313100E+02 -0.10539171977E+03  0.14530980847E+03  0.80762965908E+02 0.  0.
          5    1    5    5  501    0  0.49037002680E+02  0.25730605191E+02 -0.19969464482E+03  0.20728418378E+03  0.47000000000E+01 0. -1.
        -13    1    6    6    0    0  0.22497233611E+02 -0.45394311821E+02 -0.24457665645E+02  0.56257857003E+02  0.00000000000E+00 0.  1.
         14    1    6    6    0    0 -0.35056504987E+02 -0.12287001279E+02 -0.80934054127E+02  0.89051951465E+02  0.00000000000E+00 0. -1.
         -5    1    3    3    0  503 -0.42093121369E+02  0.51699577306E+01 -0.33717557747E+03  0.33986470745E+03  0.47000000000E+01 0.  1.
         11    1    4    4    0    0  0.27058781211E+02  0.47000958931E+02 -0.49430298915E+02  0.73379985227E+02  0.00000000000E+00 0. -1.
        -12    1    4    4    0    0 -0.21443391146E+02 -0.20220208752E+02 -0.40773663382E+02  0.50310709510E+02  0.00000000000E+00 0.  1.
</event>
<event>
12    1  0.8133495E-002  0.3286680E+03  0.7818608E-02  0.1071751E+00
         21   -1    0    0  501  502  0.00000000000E+00  0.00000000000E+00  0.40295742491E+03  0.40295742491E+03  0.00000000000E+00 0. -1.
         21   -1    0    0  502  503 -0.00000000000E+00 -0.00000000000E+00 -0.42628823330E+03  0.42628823330E+03  0.00000000000E+00 0.  1.
         -6    2    1    2    0  503 -0.74340360353E+02  0.26977151744E+03 -0.26439370318E+03  0.42165026456E+03  0.17199347233E+03 0.  0.
        -24    2    3    3    0    0  0.16124490111E+02  0.11692513023E+03 -0.70292569096E+02  0.15850914747E+03  0.79073505678E+02 0.  0.
          6    2    1    2  501    0  0.74340360353E+02 -0.26977151744E+03  0.24106289479E+03  0.40759539365E+03  0.17239351753E+03 0.  0.
         24    2    5    5    0    0  0.83004788120E+02 -0.14307540219E+03  0.20569514861E+03  0.27568654104E+03  0.79575179472E+02 0.  0.
          5    1    5    5  501    0 -0.86644277671E+01 -0.12669611525E+03  0.35367746181E+02  0.13190885261E+03  0.47000000000E+01 0. -1.
        -13    1    6    6    0    0  0.21660485968E+02 -0.63688022400E+02  0.30640021382E+02  0.73919900973E+02  0.00000000000E+00 0.  1.
         14    1    6    6    0    0  0.61344302152E+02 -0.79387379788E+02  0.17505512723E+03  0.20176664007E+03  0.00000000000E+00 0. -1.
         -5    1    3    3    0  503 -0.90464850465E+02  0.15284638721E+03 -0.19410113409E+03  0.26314111709E+03  0.47000000000E+01 0.  1.
         11    1    4    4    0    0 -0.40416548661E+01  0.11753668980E+03 -0.72588005867E+02  0.13820357094E+03  0.00000000000E+00 0. -1.
        -12    1    4    4    0    0  0.20166144978E+02 -0.61155957054E+00  0.22954367714E+01  0.20305576533E+02  0.00000000000E+00 0.  1.
</event>
<event>
12    1  0.8133495E-002  0.1860705E+03  0.7818608E-02  0.1162299E+00
         21   -1    0    0  501  502  0.00000000000E+00  0.00000000000E+00  0.10464413567E+03  0.10464413567E+03  0.00000000000E+00 0. -1.
         21   -1    0    0  502  503 -0.00000000000E+00 -0.00000000000E+00 -0.32925843356E+03  0.32925843356E+03  0.00000000000E+00 0. -1.
         -6    2    1    2    0  503  0.66408868781E+02  0.14192022948E+01 -0.11889193074E+03  0.22081102964E+03  0.17381043590E+03 0.  0.
        -24    2    3    3    0    0  0.68933075867E+02  0.35056589497E+02 -0.14140366370E+03  0.17998562628E+03  0.80119261992E+02 0.  0.
          6    2    1    2  501    0 -0.66408868781E+02 -0.14192022948E+01 -0.10572236715E+03  0.21309153958E+03  0.17268072660E+03 0.  0.
         24    2    5    5    0    0  0.20254467644E+01 -0.39550095773E+02  0.85147218544E+01  0.74493476519E+02  0.62517717852E+02 0.  0.
          5    1    5    5  501    0 -0.68434315545E+02  0.38130893478E+02 -0.11423708900E+03  0.13859806306E+03  0.47000000000E+01 0. -1.
        -11    1    6    6    0    0  0.18172047682E+02 -0.21164606225E+01 -0.18157533787E+02  0.25775933655E+02  0.00000000000E+00 0.  1.
         12    1    6    6    0    0 -0.16146600918E+02 -0.37433635150E+02  0.26672255641E+02  0.48717542865E+02  0.00000000000E+00 0. -1.
         -5    1    3    3    0  503 -0.25242070866E+01 -0.33637387203E+02  0.22511732961E+02  0.40825403368E+02  0.47000000000E+01 0.  1.
         13    1    4    4    0    0  0.59797834623E+02  0.13800323823E+02 -0.34081830848E+02  0.70198298820E+02  0.00000000000E+00 0. -1.
        -14    1    4    4    0    0  0.91352412440E+01  0.21256265675E+02 -0.10732183285E+03  0.10978732746E+03  0.00000000000E+00 0.  1.
</event>
<event>
12    1  0.8133495E-002  0.2081854E+03  0.7818608E-02  0.1143032E+00
         21   -1    0    0  501  502  0.00000000000E+00  0.00000000000E+00  0.14984402740E+03  0.14984402740E+03  0.00000000000E+00 0.  1.
         21   -1    0    0  502  503 -0.00000000000E+00 -0.00000000000E+00 -0.30229403447E+03  0.30229403447E+03  0.00000000000E+00 0.  1.
         -6    2    1    2    0  503 -0.15931521584E+02  0.11595089575E+03 -0.12344612832E+03  0.24194197577E+03  0.17204228969E+03 0.  0.
        -24    2    3    3    0    0 -0.28076112268E+02  0.14865556938E+03 -0.88749039905E+02  0.19251460780E+03  0.79364574868E+02 0.  0.
          6    2    1    2  501    0  0.15931521584E+02 -0.11595089575E+03 -0.29003878751E+02  0.21019608610E+03  0.17217068863E+03 0.  0.
         24    2    5    5    0    0 -0.26691605272E+02 -0.40766634218E+01 -0.24319747414E+02  0.90293601191E+02  0.82658474006E+02 0.  0.
          5    1    5    5  501    0  0.42623126856E+02 -0.11187423232E+03 -0.46841313362E+01  0.11990248491E+03  0.47000000000E+01 0. -1.
        -11    1    6    6    0    0 -0.38205010321E+02 -0.35868251602E+02 -0.20482256667E+02  0.56264350390E+02  0.00000000000E+00 0.  1.
         12    1    6    6    0    0  0.11513405049E+02  0.31791588180E+02 -0.38374907471E+01  0.34029250801E+02  0.00000000000E+00 0. -1.
         -5    1    3    3    0  503  0.12144590684E+02 -0.32704673635E+02 -0.34697088415E+02  0.49427367975E+02  0.47000000000E+01 0.  1.
         11    1    4    4    0    0 -0.52095905389E+02  0.62368940513E+02 -0.41416999937E+02  0.91209845865E+02  0.00000000000E+00 0. -1.
        -12    1    4    4    0    0  0.24019793121E+02  0.86286628868E+02 -0.47332039968E+02  0.10130476193E+03  0.00000000000E+00 0.  1.
</event>
<event>
12    1  0.8133495E-002  0.1834716E+03  0.7818608E-02  0.1166727E+00
         21   -1    0    0  503  502  0.00000000000E+00  0.00000000000E+00  0.27865639250E+03  0.27865639250E+03  0.00000000000E+00 0.  1.
         21   -1    0    0  501  503 -0.00000000000E+00 -0.00000000000E+00 -0.13606254399E+03  0.13606254399E+03  0.00000000000E+00 0.  1.
          6    2    1    2  501    0  0.20492678512E+02  0.58793249432E+01 -0.91115359642E+01  0.18369767451E+03  0.18222870026E+03 0.  0.
         24    2    3    3    0    0  0.86825289562E+02  0.60597517067E+01 -0.31929869176E+02  0.11339252411E+03  0.65291626417E+02 0.  0.
         -6    2    1    2    0  502 -0.20492678512E+02 -0.58793249432E+01  0.15170538448E+03  0.23102126198E+03  0.17292132163E+03 0.  0.
        -24    2    5    5    0    0  0.53672205569E+02 -0.16493410195E+01  0.62477689716E+02  0.11482317978E+03  0.79984216735E+02 0.  0.
          5    1    3    3  501    0 -0.66332611049E+02 -0.18042676350E+00  0.22818333212E+02  0.70305150402E+02  0.47000000000E+01 0. -1.
        -13    1    4    4    0    0  0.42406733806E+02 -0.23736352695E+01 -0.49197614147E+02  0.64995157160E+02  0.00000000000E+00 0.  1.
         14    1    4    4    0    0  0.44418555755E+02  0.84333869762E+01  0.17267744971E+02  0.48397366950E+02  0.00000000000E+00 0. -1.
         -5    1    5    5    0  502 -0.74164884081E+02 -0.42299839237E+01  0.89227694761E+02  0.11619808220E+03  0.47000000000E+01 0.  1.
         13    1    6    6    0    0  0.46426138452E+01 -0.72004199744E+00 -0.19084400800E+02  0.19654177105E+02  0.00000000000E+00 0. -1.
        -14    1    6    6    0    0  0.49029591724E+02 -0.92929902201E+00  0.81562090516E+02  0.95169002677E+02  0.00000000000E+00 0.  1.
</event>
<event>
12    1  0.8133495E-002  0.1890261E+03  0.7818608E-02  0.1159426E+00
         21   -1    0    0  503  502  0.00000000000E+00  0.00000000000E+00  0.46983899427E+03  0.46983899427E+03  0.00000000000E+00 0.  1.
         21   -1    0    0  501  503 -0.00000000000E+00 -0.00000000000E+00 -0.22282630640E+03  0.22282630640E+03  0.00000000000E+00 0.  1.
          6    2    1    2  501    0  0.77423829938E+02  0.75625024608E+01 -0.15776191760E+03  0.24592895394E+03  0.17187375266E+03 0.  0.
         24    2    3    3    0    0  0.26587092218E+01  0.20493854473E+02 -0.14845612210E+03  0.16934089370E+03  0.78803878621E+02 0.  0.
         -6    2    1    2    0  502 -0.77423829938E+02 -0.75625024608E+01  0.40477460547E+03  0.44673634673E+03  0.17227664198E+03 0.  0.
        -24    2    5    5    0    0 -0.66006019637E+01  0.51735269937E+02  0.23080214690E+03  0.24970675055E+03  0.79772953771E+02 0.  0.
          5    1    3    3  501    0  0.74765120716E+02 -0.12931352012E+02 -0.93057955054E+01  0.76588060235E+02  0.47000000000E+01 0. -1.
        -11    1    4    4    0    0 -0.29262440607E+02  0.35152125180E+02 -0.94034590405E+02  0.10456799954E+03  0.00000000000E+00 0.  1.
         12    1    4    4    0    0  0.31921149829E+02 -0.14658270707E+02 -0.54421531692E+02  0.64772894163E+02  0.00000000000E+00 0. -1.
         -5    1    5    5    0  502 -0.70823227974E+02 -0.59297772398E+02  0.17397245857E+03  0.19702959618E+03  0.47000000000E+01 0.  1.
         11    1    6    6    0    0 -0.31815141019E+02  0.33203037172E+02  0.20202965123E+03  0.20719706767E+03  0.00000000000E+00 0. -1.
        -12    1    6    6    0    0  0.25214539055E+02  0.18532232766E+02  0.28772495666E+02  0.42509682872E+02  0.00000000000E+00 0.  1.
</event>
<event>
12    1  0.8133495E-002  0.2080774E+03  0.7818608E-02  0.1143183E+00
         21   -1    0    0  503  502  0.00000000000E+00  0.00000000000E+00  0.11157507056E+04  0.11157507056E+04  0.00000000000E+00 0. -1.
         21   -1    0    0  501  503 -0.00000000000E+00 -0.00000000000E+00 -0.10107574471E+03  0.10107574471E+03  0.00000000000E+00 0. -1.
          6    2    1    2  501    0  0.83460019153E+02 -0.82173416606E+02  0.29286507346E+02  0.20970848011E+03  0.17146982803E+03 0.  0.
         24    2    3    3    0    0  0.52017527885E+02  0.58643914323E+01 -0.31157798648E+02  0.98286354709E+02  0.77130958839E+02 0.  0.
         -6    2    1    2    0  502 -0.83460019153E+02  0.82173416606E+02  0.98538845352E+03  0.10071179702E+04  0.17198301170E+03 0.  0.
        -24    2    5    5    0    0 -0.99877850128E+02  0.10553178938E+03  0.92936101437E+03  0.94405988036E+03  0.80153722044E+02 0.  0.
          5    1    3    3  501    0  0.31442491269E+02 -0.88037808039E+02  0.60444305993E+02  0.11142212540E+03  0.47000000000E+01 0. -1.
        -11    1    4    4    0    0 -0.14722184942E+02 -0.57323172034E+01 -0.25905889278E+02  0.30343323636E+02  0.00000000000E+00 0.  1.
         12    1    4    4    0    0  0.66739712827E+02  0.11596708636E+02 -0.52519093696E+01  0.67943031073E+02  0.00000000000E+00 0. -1.
         -5    1    5    5    0  502  0.16417830974E+02 -0.23358372775E+02  0.56027439143E+02  0.63058089803E+02  0.47000000000E+01 0.  1.
         11    1    6    6    0    0 -0.61661278314E+02  0.11107329426E+03  0.73530883169E+03  0.74620269893E+03  0.00000000000E+00 0. -1.
        -12    1    6    6    0    0 -0.38216571814E+02 -0.55415048742E+01  0.19405218269E+03  0.19785718143E+03  0.00000000000E+00 0.  1.
</event>
<event>
12    1  0.8133495E-002  0.2118698E+03  0.7818608E-02  0.1140291E+00
         21   -1    0    0  501  502  0.00000000000E+00  0.00000000000E+00  0.30947241361E+03  0.30947241361E+03  0.00000000000E+00 0. -1.
         21   -1    0    0  502  503 -0.00000000000E+00 -0.00000000000E+00 -0.15170832215E+03  0.15170832215E+03  0.00000000000E+00 0. -1.
         -6    2    1    2    0  503 -0.11544014779E+03  0.41142697380E+02  0.27957204510E+02  0.21270814787E+03  0.17159254535E+03 0.  0.
        -24    2    3    3    0    0 -0.14890200365E+03  0.31589957051E+02  0.37248070552E+02  0.17638514087E+03  0.80960280908E+02 0.  0.
          6    2    1    2  501    0  0.11544014779E+03 -0.41142697380E+02  0.12980688695E+03  0.24847258788E+03  0.17282838239E+03 0.  0.
         24    2    5    5    0    0  0.62367452455E+02  0.44158449134E+02  0.72805078055E+02  0.13286855333E+03  0.80708149021E+02 0.  0.
          5    1    5    5  501    0  0.53072695330E+02 -0.85301146514E+02  0.57001808895E+02  0.11560403455E+03  0.47000000000E+01 0. -1.
        -11    1    6    6    0    0  0.66996974786E+02  0.50748191891E+02  0.29889710149E+02  0.89204082774E+02  0.00000000000E+00 0.  1.
         12    1    6    6    0    0 -0.46295223309E+01 -0.65897427577E+01  0.42915367906E+02  0.43664470559E+02  0.00000000000E+00 0. -1.
         -5    1    3    3    0  503  0.33461855863E+02  0.95527403295E+01 -0.92908660421E+01  0.36323006998E+02  0.47000000000E+01 0.  1.
         13    1    4    4    0    0 -0.10889542726E+03  0.48156181750E+02 -0.30486675874E+00  0.11906857211E+03  0.00000000000E+00 0. -1.
        -14    1    4    4    0    0 -0.40006576384E+02 -0.16566224699E+02  0.37552937310E+02  0.57316568768E+02  0.00000000000E+00 0.  1.
</event>
<event>
12    1  0.8133495E-002  0.1817910E+03  0.7818608E-02  0.1166341E+00
         21   -1    0    0  503  502  0.00000000000E+00  0.00000000000E+00  0.18278380040E+03  0.18278380040E+03  0.00000000000E+00 0. -1.
         21   -1    0    0  501  503 -0.00000000000E+00 -0.00000000000E+00 -0.26313120164E+03  0.26313120164E+03  0.00000000000E+00 0. -1.
          6    2    1    2  501    0  0.40184614131E+02  0.44923921982E+02 -0.16561731670E+03  0.24511923668E+03  0.17035663362E+03 0.  0.
         24    2    3    3    0    0 -0.14552658328E+02 -0.28887800044E+02 -0.72662975123E+02  0.11432573943E+03  0.82122968079E+02 0.  0.
         -6    2    1    2    0  502 -0.40184614131E+02 -0.44923921982E+02  0.85269915460E+02  0.20079576536E+03  0.17150807248E+03 0.  0.
        -24    2    5    5    0    0 -0.79953553276E+02 -0.42147404234E+02  0.17835697865E+02  0.12231811711E+03  0.80465118474E+02 0.  0.
          5    1    3    3  501    0  0.54737272459E+02  0.73811722026E+02 -0.92954341579E+02  0.13079349725E+03  0.47000000000E+01 0. -1.
        -11    1    4    4    0    0 -0.84429961299E+01  0.48803804050E+01  0.16288316824E+02  0.18984508461E+02  0.00000000000E+00 0.  1.
         12    1    4    4    0    0 -0.61096621983E+01 -0.33768180449E+02 -0.88951291947E+02  0.95341230966E+02  0.00000000000E+00 0. -1.
         -5    1    5    5    0  502  0.39768939145E+02 -0.27765177479E+01  0.67434217595E+02  0.78477648246E+02  0.47000000000E+01 0.  1.
         11    1    6    6    0    0 -0.76481038852E+02 -0.14884684348E+01 -0.28888852279E+01  0.76550052254E+02  0.00000000000E+00 0. -1.
        -12    1    6    6    0    0 -0.34725144237E+01 -0.40658935799E+02  0.20724583093E+02  0.45768064861E+02  0.00000000000E+00 0.  1.
</event>
<event>
12    1  0.8133495E-002  0.2038811E+03  0.7818608E-02  0.1146912E+00
         21   -1    0    0  501  502  0.00000000000E+00  0.00000000000E+00  0.29511618524E+02  0.29511618524E+02  0.00000000000E+00 0.  1.
         21   -1    0    0  502  503 -0.00000000000E+00 -0.00000000000E+00 -0.15778145661E+04  0.15778145661E+04  0.00000000000E+00 0. -1.
         -6    2    1    2    0  503  0.90095029294E+02  0.60838582486E+02 -0.10510537010E+04  0.10706453102E+04  0.17247913052E+03 0.  0.
        -24    2    3    3    0    0  0.44320739857E+02  0.98253986462E+02 -0.55792713340E+03  0.57396523239E+03  0.80840756882E+02 0.  0.
          6    2    1    2  501    0 -0.90095029294E+02 -0.60838582486E+02 -0.49724924658E+03  0.53668087442E+03  0.17015022868E+03 0.  0.
         24    2    5    5    0    0 -0.59104210264E+01 -0.21370136208E+02 -0.37141176122E+03  0.38014982560E+03  0.77945992438E+02 0.  0.
          5    1    5    5  501    0 -0.84184608268E+02 -0.39468446278E+02 -0.12583748536E+03  0.15653104881E+03  0.47000000000E+01 0. -1.
        -13    1    6    6    0    0  0.29390696532E+02 -0.47928477231E+01 -0.67904909359E+02  0.74147563325E+02  0.00000000000E+00 0.  1.
         14    1    6    6    0    0 -0.35301117559E+02 -0.16577288485E+02 -0.30350685186E+03  0.30600226228E+03  0.00000000000E+00 0. -1.
         -5    1    3    3    0  503  0.45774289436E+02 -0.37415403975E+02 -0.49312656763E+03  0.49668007785E+03  0.47000000000E+01 0.  1.
         11    1    4    4    0    0  0.24619468845E+01 -0.13393297348E+02 -0.93003408561E+02  0.93995082852E+02  0.00000000000E+00 0. -1.
        -12    1    4    4    0    0  0.41858792973E+02  0.11164728381E+03 -0.46492372484E+03  0.47997014954E+03  0.00000000000E+00 0.  1.
</event>
<event>
12    1  0.8133495E-002  0.2077205E+03  0.7818608E-02  0.1143597E+00
         21   -1    0    0  501  502  0.00000000000E+00  0.00000000000E+00  0.23485894996E+02  0.23485894996E+02  0.00000000000E+00 0. -1.
         21   -1    0    0  502  503 -0.00000000000E+00 -0.00000000000E+00 -0.20015827271E+04  0.20015827271E+04  0.00000000000E+00 0.  1.
         -6    2    1    2    0  503 -0.10641866042E+03  0.43201093647E+02 -0.12850588519E+04  0.13015705446E+04  0.17180909162E+03 0.  0.
        -24    2    3    3    0    0 -0.52577876427E+02 -0.36047563142E+02 -0.80158668934E+03  0.80867440789E+03  0.85727577500E+02 0.  0.
          6    2    1    2  501    0  0.10641866042E+03 -0.43201093647E+02 -0.69303798018E+03  0.72349807746E+03  0.17307963585E+03 0.  0.
         24    2    5    5    0    0  0.10109273924E+03 -0.43001137741E+02 -0.70044450810E+03  0.71323396159E+03  0.77532801175E+02 0.  0.
          5    1    5    5  501    0  0.53259211859E+01 -0.19995590599E+00  0.74065279231E+01  0.10264115876E+02  0.47000000000E+01 0. -1.
        -11    1    6    6    0    0 -0.12259661678E+02 -0.10756923609E+01 -0.41044159255E+02  0.42849497400E+02  0.00000000000E+00 0.  1.
         12    1    6    6    0    0  0.11335240092E+03 -0.41925445380E+02 -0.65940034885E+03  0.67038446419E+03  0.00000000000E+00 0. -1.
         -5    1    3    3    0  503 -0.53840783997E+02  0.79248656788E+02 -0.48347216255E+03  0.49289613671E+03  0.47000000000E+01 0.  1.
         13    1    4    4    0    0 -0.61367039283E+02  0.78423894676E+01 -0.44015458749E+03  0.44448113286E+03  0.00000000000E+00 0. -1.
        -14    1    4    4    0    0  0.87891628561E+01 -0.43889952609E+02 -0.36143210185E+03  0.36419327502E+03  0.00000000000E+00 0.  1.
</event>
<event>
12    1  0.8133495E-002  0.2039610E+03  0.7818608E-02  0.1146816E+00
         21   -1    0    0  503  502  0.00000000000E+00  0.00000000000E+00  0.16223721793E+03  0.16223721793E+03  0.00000000000E+00 0.  1.
         21   -1    0    0  501  503 -0.00000000000E+00 -0.00000000000E+00 -0.33256642638E+03  0.33256642638E+03  0.00000000000E+00 0. -1.
          6    2    1    2  501    0  0.30704550564E+02 -0.10572821215E+03 -0.20502225735E+03  0.28791310680E+03  0.16952464950E+03 0.  0.
         24    2    3    3    0    0  0.31676564710E+02 -0.20653721613E+02 -0.17800822870E+03  0.19852372546E+03  0.79339518012E+02 0.  0.
         -6    2    1    2    0  502 -0.30704550564E+02  0.10572821215E+03  0.34693048902E+02  0.20689053752E+03  0.17169409601E+03 0.  0.
        -24    2    5    5    0    0 -0.40291024544E+01  0.12730425224E+03  0.61655359736E+02  0.16300248398E+03  0.80906242615E+02 0.  0.
          5    1    3    3  501    0 -0.97201414640E+00 -0.85074490537E+02 -0.27014028652E+02  0.89389381336E+02  0.47000000000E+01 0. -1.
        -13    1    4    4    0    0  0.56896294668E+02 -0.25258348715E+02 -0.12682356608E+03  0.14127770327E+03  0.00000000000E+00 0.  1.
         14    1    4    4    0    0 -0.25219729958E+02  0.46046271016E+01 -0.51184662616E+02  0.57246022194E+02  0.00000000000E+00 0. -1.
         -5    1    5    5    0  502 -0.26675448109E+02 -0.21576040092E+02 -0.26962310835E+02  0.43888053539E+02  0.47000000000E+01 0.  1.
         11    1    6    6    0    0  0.60045768671E+01 -0.53738482256E+01 -0.92208949682E+01  0.12245737712E+02  0.00000000000E+00 0. -1.
        -12    1    6    6    0    0 -0.10033679322E+02  0.13267810047E+03  0.70876254704E+02  0.15075674627E+03  0.00000000000E+00 0.  1.
</event>
<event>
12    1  0.8133495E-002  0.1818848E+03  0.7818608E-02  0.1166441E+00
         21   -1    0    0  503  502  0.00000000000E+00  0.00000000000E+00  0.44810395024E+02  0.44810395024E+02  0.00000000000E+00 0. -1.
         21   -1    0    0  501  503 -0.00000000000E+00 -0.00000000000E+00 -0.14931405947E+04  0.14931405947E+04  0.00000000000E+00 0. -1.
          6    2    1    2  501    0  0.54127371783E+02 -0.28973884752E+02 -0.12718295738E+04  0.12845056565E+04  0.16921896558E+03 0.  0.
         24    2    3    3    0    0  0.97455122840E+02 -0.35274377125E+02 -0.10645484075E+04  0.10725986908E+04  0.80391895289E+02 0.  0.
         -6    2    1    2    0  502 -0.54127371783E+02  0.28973884752E+02 -0.17650062589E+03  0.25344533328E+03  0.17120983514E+03 0.  0.
        -24    2    5    5    0    0 -0.83850341326E+02  0.45094287441E+02 -0.72050329976E+02  0.14355776975E+03  0.79707017923E+02 0.  0.
          5    1    3    3  501    0 -0.43327751057E+02  0.63004923721E+01 -0.20728116625E+03  0.21190696567E+03  0.47000000000E+01 0. -1.
        -13    1    4    4    0    0  0.57518367963E+02 -0.11781686349E+02 -0.25277707848E+03  0.25950611205E+03  0.00000000000E+00 0.  1.
         14    1    4    4    0    0  0.39936754877E+02 -0.23492690775E+02 -0.81177132906E+03  0.81309257874E+03  0.00000000000E+00 0. -1.
         -5    1    5    5    0  502  0.29722969543E+02 -0.16120402689E+02 -0.10445029592E+03  0.10988756353E+03  0.47000000000E+01 0.  1.
         11    1    6    6    0    0 -0.65223124650E+02 -0.95139197820E+01 -0.31625042633E+02  0.73107550774E+02  0.00000000000E+00 0. -1.
        -12    1    6    6    0    0 -0.18627216676E+02  0.54608207223E+02 -0.40425287343E+02  0.70450218978E+02  0.00000000000E+00 0.  1.
</event>
<event>
12    1  0.8133495E-002  0.2729581E+03  0.7818608E-02  0.1099720E+00
         21   -1    0    0  503  502  0.00000000000E+00  0.00000000000E+00  0.30675369887E+03  0.30675369887E+03  0.00000000000E+00 0. -1.
         21   -1    0    0  501  503 -0.00000000000E+00 -0.00000000000E+00 -0.29088689578E+03  0.29088689578E+03  0.00000000000E+00 0. -1.
          6    2    1    2  501    0 -0.16156869423E+03  0.13517313519E+03  0.13029205507E+03  0.30246016654E+03  0.17357970302E+03 0.  0.
         24    2    3    3    0    0 -0.62153247411E+01  0.33224068582E+02  0.50230576796E+02  0.10007387280E+03  0.79681868553E+02 0.  0.
         -6    2    1    2    0  502  0.16156869423E+03 -0.13517313519E+03 -0.11442525198E+03  0.29518042811E+03  0.17222696483E+03 0.  0.
        -24    2    5    5    0    0  0.17690941412E+03 -0.10248779667E+03 -0.68029287339E+02  0.23620293600E+03  0.96763390633E+02 0.  0.
          5    1    3    3  501    0 -0.15535336949E+03  0.10194906661E+03  0.80061478274E+02  0.20238629375E+03  0.47000000000E+01 0. -1.
        -13    1    4    4    0    0  0.79588062060E+01  0.13627036110E+02  0.68162639501E+02  0.69965592494E+02  0.00000000000E+00 0.  1.
         14    1    4    4    0    0 -0.14174130947E+02  0.19597032472E+02 -0.17932062705E+02  0.30108280301E+02  0.00000000000E+00 0. -1.
         -5    1    5    5    0  502 -0.15340719888E+02 -0.32685338519E+02 -0.46395964644E+02  0.58977492114E+02  0.47000000000E+01 0.  1.
         11    1    6    6    0    0  0.69763895886E+02 -0.44587460578E+02  0.20911143035E+02  0.85395074290E+02  0.00000000000E+00 0. -1.
        -12    1    6    6    0    0  0.10714551823E+03 -0.57900336092E+02 -0.88940430374E+02  0.15080786171E+03  0.00000000000E+00 0.  1.
</event>
<event>
12    1  0.8133495E-002  0.1761190E+03  0.7818608E-02  0.1171688E+00
         21   -1    0    0  503  502  0.00000000000E+00  0.00000000000E+00  0.11894746989E+04  0.11894746989E+04  0.00000000000E+00 0.  1.
         21   -1    0    0  501  503 -0.00000000000E+00 -0.00000000000E+00 -0.26316474084E+02  0.26316474084E+02  0.00000000000E+00 0.  1.
          6    2    1    2  501    0  0.92621702348E+00  0.33184770325E+02  0.51892303764E+03  0.54799545366E+03  0.17296187840E+03 0.  0.
         24    2    3    3    0    0 -0.59170937994E+02  0.43736522331E+02  0.25651011520E+03  0.27854111731E+03  0.79835027069E+02 0.  0.
         -6    2    1    2    0  502 -0.92621702348E+00 -0.33184770325E+02  0.64423518720E+03  0.66779571934E+03  0.17265589909E+03 0.  0.
        -24    2    5    5    0    0  0.29621669390E+02  0.36143662433E+02  0.25499878352E+03  0.27122709616E+03  0.79724215008E+02 0.  0.
          5    1    3    3  501    0  0.60097155018E+02 -0.10551752006E+02  0.26241292244E+03  0.26945433635E+03  0.47000000000E+01 0. -1.
        -13    1    4    4    0    0  0.17170117405E+01  0.44723096124E+02  0.77979601417E+02  0.89910631704E+02  0.00000000000E+00 0.  1.
         14    1    4    4    0    0 -0.60887949735E+02 -0.98657379272E+00  0.17853051378E+03  0.18863048561E+03  0.00000000000E+00 0. -1.
         -5    1    5    5    0  502 -0.30547886413E+02 -0.69328432757E+02  0.38923640367E+03  0.39656862319E+03  0.47000000000E+01 0.  1.
         13    1    6    6    0    0 -0.22889634231E+02 -0.73801910527E+01  0.59742826288E+02  0.64401924413E+02  0.00000000000E+00 0. -1.
        -14    1    6    6    0    0  0.52511303621E+02  0.43523853485E+02  0.19525595724E+03  0.20682517174E+03  0.00000000000E+00 0.  1.
</event>
<event>
12    1  0.8133495E-002  0.1788531E+03  0.7818608E-02  0.1169797E+00
         21   -1    0    0  503  502  0.00000000000E+00  0.00000000000E+00  0.37189313635E+02  0.37189313635E+02  0.00000000000E+00 0. -1.
         21   -1    0    0  501  503 -0.00000000000E+00 -0.00000000000E+00 -0.15014160535E+04  0.15014160535E+04  0.00000000000E+00 0. -1.
          6    2    1    2  501    0 -0.24262495061E+02 -0.41258492190E+02 -0.12456478360E+04  0.12584224115E+04  0.17232963347E+03 0.  0.
         24    2    3    3    0    0 -0.47642972910E+02 -0.66156749037E+02 -0.11670615181E+04  0.11726059253E+04  0.79533016721E+02 0.  0.
         -6    2    1    2    0  502  0.24262495061E+02  0.41258492190E+02 -0.21857890392E+03  0.28018295570E+03  0.16862627192E+03 0.  0.
        -24    2    5    5    0    0 -0.23898546918E+02  0.97377259609E+01 -0.38834195315E+02  0.91388636557E+02  0.78599136855E+02 0.  0.
          5    1    3    3  501    0  0.23380477849E+02  0.24898256847E+02 -0.78586317901E+02  0.85816486176E+02  0.47000000000E+01 0. -1.
        -13    1    4    4    0    0 -0.75924869982E+01 -0.29953277099E+02 -0.11259450960E+03  0.11675773319E+03  0.00000000000E+00 0.  1.
         14    1    4    4    0    0 -0.40050485911E+02 -0.36203471937E+02 -0.10544670085E+04  0.10558481921E+04  0.00000000000E+00 0. -1.
         -5    1    5    5    0  502  0.48161041978E+02  0.31520766229E+02 -0.17974470861E+03  0.18879431914E+03  0.47000000000E+01 0.  1.
         13    1    6    6    0    0 -0.18647779403E+02  0.39838701054E+02 -0.41811713884E+02  0.60688394247E+02  0.00000000000E+00 0. -1.
        -14    1    6    6    0    0 -0.52507675142E+01 -0.30100975093E+02  0.29775185694E+01  0.30700242310E+02  0.00000000000E+00 0.  1.
</event>
<event>
12    1  0.8133495E-002  0.1858612E+03  0.7818608E-02  0.1162277E+00
         21   -1    0    0  503  502  0.00000000000E+00  0.00000000000E+00  0.56936407064E+02  0.56936407064E+02  0.00000000000E+00 0.  1.
         21   -1    0    0  501  503 -0.00000000000E+00 -0.00000000000E+00 -0.88187606039E+03  0.88187606039E+03  0.00000000000E+00 0. -1.
          6    2    1    2  501    0 -0.55278201010E+02  0.43306176264E+02 -0.67476967518E+03  0.69986599862E+03  0.17195114734E+03 0.  0.
         24    2    3    3    0    0 -0.44665904864E+02  0.94240284089E+02 -0.51988871354E+03  0.53641231573E+03  0.81102551161E+02 0.  0.
         -6    2    1    2    0  502  0.55278201010E+02 -0.43306176264E+02 -0.15016997815E+03  0.23894646884E+03  0.17208511912E+03 0.  0.
        -24    2    5    5    0    0  0.57971806902E+02 -0.63926071543E+02 -0.17179219508E+03  0.20858126080E+03  0.80909276655E+02 0.  0.
          5    1    3    3  501    0 -0.10612296147E+02 -0.50934107825E+02 -0.15488096164E+03  0.16345368288E+03  0.47000000000E+01 0. -1.
        -13    1    4    4    0    0  0.18231278175E+02  0.55356817529E+01 -0.39301312774E+02  0.43676268867E+02  0.00000000000E+00 0.  1.
         14    1    4    4    0    0 -0.62897183038E+02  0.88704602336E+02 -0.48058740076E+03  0.49273604687E+03  0.00000000000E+00 0. -1.
         -5    1    5    5    0  502 -0.26936058920E+01  0.20619895279E+02  0.21622216931E+02  0.30365208035E+02  0.47000000000E+01 0.  1.
         11    1    6    6    0    0  0.44824169680E+02 -0.46275338384E+01 -0.12195270026E+03  0.13001185084E+03  0.00000000000E+00 0. -1.
        -12    1    6    6    0    0  0.13147637222E+02 -0.59298537704E+02 -0.49839494817E+02  0.78569409963E+02  0.00000000000E+00 0.  1.
</event>
<event>
12    1  0.8133495E-002  0.2011983E+03  0.7818608E-02  0.1148871E+00
         21   -1    0    0  503  502  0.00000000000E+00  0.00000000000E+00  0.47920987839E+02  0.47920987839E+02  0.00000000000E+00 0.  1.
         21   -1    0    0  501  503 -0.00000000000E+00 -0.00000000000E+00 -0.88623444518E+03  0.88623444518E+03  0.00000000000E+00 0.  1.
          6    2    1    2  501    0 -0.85109517935E+02  0.58111602614E+02 -0.31541104469E+03  0.37411878252E+03  0.17280089098E+03 0.  0.
         24    2    3    3    0    0 -0.55063810087E+02 -0.21787152405E+02 -0.24177074970E+03  0.26128466242E+03  0.79434729267E+02 0.  0.
         -6    2    1    2    0  502  0.85109517935E+02 -0.58111602614E+02 -0.52290241265E+03  0.56003665049E+03  0.17202769643E+03 0.  0.
        -24    2    5    5    0    0  0.19156184065E+02 -0.16035941250E+02 -0.43349912235E+03  0.44114492729E+03  0.77866854334E+02 0.  0.
          5    1    3    3  501    0 -0.30045707848E+02  0.79898755020E+02 -0.73640294988E+02  0.11283412010E+03  0.47000000000E+01 0. -1.
        -11    1    4    4    0    0 -0.53987161058E+02  0.17487147756E+02 -0.17314963594E+03  0.18221199280E+03  0.00000000000E+00 0.  1.
         12    1    4    4    0    0 -0.10766490288E+01 -0.39274300161E+02 -0.68621113761E+02  0.79072669616E+02  0.00000000000E+00 0. -1.
         -5    1    5    5    0  502  0.65953333870E+02 -0.42075661365E+02 -0.89403290306E+02  0.11889172320E+03  0.47000000000E+01 0.  1.
         11    1    6    6    0    0 -0.25115769656E+02  0.10382097274E+02 -0.97628585912E+02  0.10134066615E+03  0.00000000000E+00 0. -1.
        -12    1    6    6    0    0  0.44271953721E+02 -0.26418038524E+02 -0.33587053643E+03  0.33980426114E+03  0.00000000000E+00 0.  1.
</event>
<event>
12    1  0.8133495E-002  0.1908520E+03  0.7818608E-02  0.1158049E+00
         21   -1    0    0  503  502  0.00000000000E+00  0.00000000000E+00  0.13210276028E+03  0.13210276028E+03  0.00000000000E+00 0. -1.
         21   -1    0    0  501  503 -0.00000000000E+00 -0.00000000000E+00 -0.30819813397E+03  0.30819813397E+03  0.00000000000E+00 0. -1.
          6    2    1    2  501    0  0.68542159776E+02 -0.41278341812E+02 -0.13816897455E+02  0.18978386268E+03  0.17153739740E+03 0.  0.
         24    2    3    3    0    0  0.90302495416E+02 -0.30041547489E+02 -0.56929237611E+02  0.13997882651E+03  0.85417202731E+02 0.  0.
         -6    2    1    2    0  502 -0.68542159776E+02  0.41278341812E+02 -0.16227847623E+03  0.25051703157E+03  0.17327016502E+03 0.  0.
        -24    2    5    5    0    0 -0.10737327491E+03  0.51037390735E+02 -0.99155350857E+02  0.17561901093E+03  0.82924170041E+02 0.  0.
          5    1    3    3  501    0 -0.21760335641E+02 -0.11236794322E+02  0.43112340157E+02  0.49805036167E+02  0.47000000000E+01 0. -1.
        -11    1    4    4    0    0 -0.10838924495E+02 -0.20437015253E+02 -0.23619885170E+02  0.33061349823E+02  0.00000000000E+00 0.  1.
         12    1    4    4    0    0  0.10114141991E+03 -0.96045322360E+01 -0.33309352442E+02  0.10691747669E+03  0.00000000000E+00 0. -1.
         -5    1    5    5    0  502  0.38831115137E+02 -0.97590489232E+01 -0.63123125376E+02  0.74898020640E+02  0.47000000000E+01 0.  1.
         13    1    6    6    0    0  0.19634293921E+01 -0.43631218216E+01 -0.38617732220E+02  0.38912994344E+02  0.00000000000E+00 0. -1.
        -14    1    6    6    0    0 -0.10933670430E+03  0.55400512557E+02 -0.60537618636E+02  0.13670601658E+03  0.00000000000E+00 0.  1.
</event>
<event>
12    1  0.8133495E-002  0.2082411E+03  0.7818608E-02  0.1147234E+00
         21   -1    0    0  503  502  0.00000000000E+00  0.00000000000E+00  0.46429068099E+02  0.46429068099E+02  0.00000000000E+00 0. -1.
         21   -1    0    0  501  503 -0.00000000000E+00 -0.00000000000E+00 -0.10648413071E+04  0.10648413071E+04  0.00000000000E+00 0.  1.
          6    2    1    2  501    0 -0.15605640484E+02 -0.77724274747E+02 -0.74045210276E+03  0.76395755028E+03  0.17052044819E+03 0.  0.
         24    2    3    3    0    0 -0.62469797039E+02 -0.92935456931E+02 -0.52689489983E+03  0.54473985447E+03  0.81140611821E+02 0.  0.
         -6    2    1    2    0  502  0.15605640484E+02  0.77724274747E+02 -0.27796013623E+03  0.34731282490E+03  0.19256106073E+03 0.  0.
        -24    2    5    5    0    0  0.59992042316E+02  0.11239013792E+03 -0.22276724376E+03  0.26831776103E+03  0.78349140065E+02 0.  0.
          5    1    3    3  501    0  0.46864156555E+02  0.15211182184E+02 -0.21355720293E+03  0.21921769581E+03  0.47000000000E+01 0. -1.
        -11    1    4    4    0    0 -0.16569972584E+02 -0.64339575446E+02 -0.41700056994E+03  0.42226013344E+03  0.00000000000E+00 0.  1.
         12    1    4    4    0    0 -0.45899824455E+02 -0.28595881485E+02 -0.10989432989E+03  0.12247972104E+03  0.00000000000E+00 0. -1.
         -5    1    5    5    0  502 -0.44386401832E+02 -0.34665863173E+02 -0.55192892467E+02  0.78995063871E+02  0.47000000000E+01 0.  1.
         11    1    6    6    0    0  0.26726130451E+02  0.87344084926E+02 -0.86385813233E+02  0.12572105611E+03  0.00000000000E+00 0. -1.
        -12    1    6    6    0    0  0.33265911865E+02  0.25046052995E+02 -0.13638143053E+03  0.14259670492E+03  0.00000000000E+00 0.  1.
</event>
<event>
12    1  0.8133495E-002  0.1759545E+03  0.7818608E-02  0.1172020E+00
         21   -1    0    0  503  502  0.00000000000E+00  0.00000000000E+00  0.37834650418E+03  0.37834650418E+03  0.00000000000E+00 0.  1.
         21   -1    0    0  501  503 -0.00000000000E+00 -0.00000000000E+00 -0.28229912336E+03  0.28229912336E+03  0.00000000000E+00 0.  1.
          6    2    1    2  501    0 -0.14143503176E+02  0.29586982667E+02 -0.23068861121E+03  0.28954401914E+03  0.17188099213E+03 0.  0.
         24    2    3    3    0    0 -0.25694192412E+02  0.67342523518E+02 -0.22490404961E+03  0.24936379466E+03  0.80032890481E+02 0.  0.
         -6    2    1    2    0  502  0.14143503176E+02 -0.29586982667E+02  0.32673599203E+03  0.37110160840E+03  0.17287153337E+03 0.  0.
        -24    2    5    5    0    0  0.22779687127E+02 -0.21480027228E+02  0.54896737706E+02  0.98963818690E+02  0.76156942453E+02 0.  0.
          5    1    3    3  501    0  0.11550689236E+02 -0.37755540851E+02 -0.57845615956E+01  0.40180224484E+02  0.47000000000E+01 0. -1.
        -13    1    4    4    0    0 -0.13553718563E+02  0.63415570432E+02 -0.75966490208E+02  0.99880656258E+02  0.00000000000E+00 0.  1.
         14    1    4    4    0    0 -0.12140473849E+02  0.39269530864E+01 -0.14893755940E+03  0.14948313840E+03  0.00000000000E+00 0. -1.
         -5    1    5    5    0  502 -0.86361839512E+01 -0.81069554393E+01  0.27183925432E+03  0.27213778971E+03  0.47000000000E+01 0.  1.
         13    1    6    6    0    0  0.28170604174E+02  0.18908036332E+02  0.46074342529E+01  0.34239235211E+02  0.00000000000E+00 0. -1.
        -14    1    6    6    0    0 -0.53909170465E+01 -0.40388063560E+02  0.50289303453E+02  0.64724583479E+02  0.00000000000E+00 0.  1.
</event>
<event>
12    1  0.8133495E-002  0.1887872E+03  0.7818608E-02  0.1159902E+00
         21   -1    0    0  501  502  0.00000000000E+00  0.00000000000E+00  0.32772782989E+03  0.32772782989E+03  0.00000000000E+00 0. -1.
         21   -1    0    0  502  503 -0.00000000000E+00 -0.00000000000E+00 -0.15710068752E+03  0.15710068752E+03  0.00000000000E+00 0. -1.
         -6    2    1    2    0  503  0.23758608844E+02 -0.72307120861E+02 -0.50595021952E+02  0.19400237669E+03  0.17112648741E+03 0.  0.
        -24    2    3    3    0    0  0.47312527340E+02  0.11111227149E+02  0.64613302693E+01  0.90122998606E+02  0.75620575750E+02 0.  0.
          6    2    1    2  501    0 -0.23758608844E+02  0.72307120861E+02  0.22122216432E+03  0.29082614073E+03  0.17276517856E+03 0.  0.
         24    2    5    5    0    0  0.42384082733E+02  0.29640006954E+02  0.63115827784E+02  0.11414834951E+03  0.79820407773E+02 0.  0.
          5    1    5    5  501    0 -0.66142691576E+02  0.42667113907E+02  0.15810633653E+03  0.17667779122E+03  0.47000000000E+01 0. -1.
        -13    1    6    6    0    0 -0.20179140353E+02 -0.11984161020E+01  0.31820714324E+02  0.37698697147E+02  0.00000000000E+00 0.  1.
         14    1    6    6    0    0  0.62563223086E+02  0.30838423056E+02  0.31295113460E+02  0.76449652360E+02  0.00000000000E+00 0. -1.
         -5    1    3    3    0  503 -0.23553918497E+02 -0.83418348011E+02 -0.57056352222E+02  0.10387937808E+03  0.47000000000E+01 0.  1.
         11    1    4    4    0    0  0.13183582721E+02  0.54137726169E+01 -0.34010732485E+02  0.36876085902E+02  0.00000000000E+00 0. -1.
        -12    1    4    4    0    0  0.34128944619E+02  0.56974545326E+01  0.40472062754E+02  0.53246912704E+02  0.00000000000E+00 0.  1.
</event>
<event>
12    1  0.8133495E-002  0.1951692E+03  0.7818608E-02  0.1156287E+00
         21   -1    0    0  501  502  0.00000000000E+00  0.00000000000E+00  0.22579333237E+03  0.22579333237E+03  0.00000000000E+00 0. -1.
         21   -1    0    0  502  503 -0.00000000000E+00 -0.00000000000E+00 -0.25390508972E+03  0.25390508972E+03  0.00000000000E+00 0.  1.
         -6    2    1    2    0  503  0.40370619580E+02  0.54257014994E+02 -0.15997735091E+03  0.24415747058E+03  0.17159984567E+03 0.  0.
        -24    2    3    3    0    0  0.89889843234E+02  0.19180980770E+02 -0.87142593245E+02  0.14923922359E+03  0.78933011848E+02 0.  0.
          6    2    1    2  501    0 -0.40370619580E+02 -0.54257014994E+02  0.13186559356E+03  0.23554095151E+03  0.18307756409E+03 0.  0.
         24    2    5    5    0    0 -0.63424118074E+02  0.30133114369E+02  0.65405778168E+02  0.12557661734E+03  0.80999676979E+02 0.  0.
          5    1    5    5  501    0  0.23053498494E+02 -0.84390129363E+02  0.66459815393E+02  0.10996433417E+03  0.47000000000E+01 0. -1.
        -13    1    6    6    0    0 -0.28397891428E+01  0.28899197429E+01 -0.18284250351E+02  0.18727782821E+02  0.00000000000E+00 0.  1.
         14    1    6    6    0    0 -0.60584328931E+02  0.27243194626E+02  0.83690028518E+02  0.10684883452E+03  0.00000000000E+00 0. -1.
         -5    1    3    3    0  503 -0.49519223655E+02  0.35076034224E+02 -0.72834757661E+02  0.94918246991E+02  0.47000000000E+01 0.  1.
         13    1    4    4    0    0  0.81130987010E+02  0.34833712277E+02 -0.36546211771E+02  0.95557575100E+02  0.00000000000E+00 0. -1.
        -14    1    4    4    0    0  0.87588562245E+01 -0.15652731507E+02 -0.50596381474E+02  0.53681648487E+02  0.00000000000E+00 0.  1.
</event>
<event>
12    1  0.8133495E-002  0.2298592E+03  0.7818608E-02  0.1126837E+00
         21   -1    0    0  503  502  0.00000000000E+00  0.00000000000E+00  0.14072972194E+04  0.14072972194E+04  0.00000000000E+00 0. -1.
         21   -1    0    0  501  503 -0.00000000000E+00 -0.00000000000E+00 -0.39770478924E+02  0.39770478924E+02  0.00000000000E+00 0. -1.
          6    2    1    2  501    0 -0.12519157507E+03 -0.87315037303E+02  0.85922177155E+03  0.88943651338E+03  0.17186742688E+03 0.  0.
         24    2    3    3    0    0 -0.75483907331E+02 -0.36489408911E+02  0.21898552777E+03  0.24524816003E+03  0.71851940824E+02 0.  0.
         -6    2    1    2    0  502  0.12519157507E+03  0.87315037303E+02  0.50830496890E+03  0.55763118491E+03  0.17111911283E+03 0.  0.
        -24    2    5    5    0    0  0.18092801123E+01  0.63694515051E+02  0.20506841660E+03  0.22936967875E+03  0.80604772196E+02 0.  0.
          5    1    3    3  501    0 -0.49707667740E+02 -0.50825628391E+02  0.64023624379E+03  0.64418835335E+03  0.47000000000E+01 0. -1.
        -13    1    4    4    0    0  0.58304950548E+01 -0.13622054157E+01 -0.26651271713E+01  0.65538674855E+01  0.00000000000E+00 0.  1.
         14    1    4    4    0    0 -0.81314402386E+02 -0.35127203496E+02  0.22165065494E+03  0.23869429255E+03  0.00000000000E+00 0. -1.
         -5    1    5    5    0  502  0.12338229496E+03  0.23620522252E+02  0.30323655229E+03  0.32826150616E+03  0.47000000000E+01 0.  1.
         11    1    6    6    0    0  0.18669233114E+02 -0.30683320204E+00  0.12071550774E+03  0.12215100581E+03  0.00000000000E+00 0. -1.
        -12    1    6    6    0    0 -0.16859953002E+02  0.64001348253E+02  0.84352908858E+02  0.10721867294E+03  0.00000000000E+00 0.  1.
</event>
<event>
12    1  0.8133495E-002  0.2426172E+03  0.7818608E-02  0.1118216E+00
         21   -1    0    0  503  502  0.00000000000E+00  0.00000000000E+00  0.16394465163E+03  0.16394465163E+03  0.00000000000E+00 0. -1.
         21   -1    0    0  501  503 -0.00000000000E+00 -0.00000000000E+00 -0.83699822962E+03  0.83699822962E+03  0.00000000000E+00 0. -1.
          6    2    1    2  501    0  0.14504471438E+03 -0.88747993764E+02 -0.71498768705E+03  0.75472842735E+03  0.17173651577E+03 0.  0.
         24    2    3    3    0    0  0.14230680922E+03 -0.96652815553E+02 -0.43549300714E+03  0.47506908381E+03  0.80271292608E+02 0.  0.
         -6    2    1    2    0  502 -0.14504471438E+03  0.88747993764E+02  0.41934109061E+02  0.24621445390E+03  0.17305754025E+03 0.  0.
        -24    2    5    5    0    0 -0.14894198651E+03  0.22390245769E+02  0.48446248400E+01  0.16995005008E+03  0.78578054712E+02 0.  0.
          5    1    3    3  501    0  0.27379051587E+01  0.79048217896E+01 -0.27949467991E+03  0.27965934354E+03  0.47000000000E+01 0. -1.
        -11    1    4    4    0    0 -0.20694718335E+01 -0.29224595071E+02 -0.88848675958E+02  0.93554512933E+02  0.00000000000E+00 0.  1.
         12    1    4    4    0    0  0.14437628106E+03 -0.67428220483E+02 -0.34664433118E+03  0.38151457088E+03  0.00000000000E+00 0. -1.
         -5    1    5    5    0  502  0.38972721278E+01  0.66357747995E+02  0.37089484221E+02  0.76264403812E+02  0.47000000000E+01 0.  1.
         11    1    6    6    0    0 -0.11341970321E+03  0.50243937125E+02  0.10319424156E+02  0.12447880466E+03  0.00000000000E+00 0. -1.
        -12    1    6    6    0    0 -0.35522283297E+02 -0.27853691356E+02 -0.54747993164E+01  0.45471245423E+02  0.00000000000E+00 0.  1.
</event>
<event>
12    1  0.8133495E-002  0.2768999E+03  0.7818608E-02  0.1097775E+00
         21   -1    0    0  501  502  0.00000000000E+00  0.00000000000E+00  0.36338437710E+02  0.36338437710E+02  0.00000000000E+00 0.  1.
         21   -1    0    0  502  503 -0.00000000000E+00 -0.00000000000E+00 -0.21995169456E+04  0.21995169456E+04  0.00000000000E+00 0. -1.
         -6    2    1    2    0  503 -0.77882971837E+02 -0.19924163422E+03 -0.13268488654E+04  0.13548781802E+04  0.17147590346E+03 0.  0.
        -24    2    3    3    0    0 -0.11368256515E+03 -0.15768800374E+03 -0.88586644155E+03  0.91047306859E+03  0.80078862448E+02 0.  0.
          6    2    1    2  501    0  0.77882971837E+02  0.19924163422E+03 -0.83632964242E+03  0.88097720304E+03  0.17581403635E+03 0.  0.
         24    2    5    5    0    0  0.76703821058E+02  0.82681952654E+02 -0.27570213193E+03  0.30834045493E+03  0.79639118140E+02 0.  0.
          5    1    5    5  501    0  0.11791507785E+01  0.11655968156E+03 -0.56062751049E+03  0.57263674811E+03  0.47000000000E+01 0. -1.
        -13    1    6    6    0    0  0.14382413656E+02  0.66910517919E+02 -0.99390246425E+02  0.12067432335E+03  0.00000000000E+00 0.  1.
         14    1    6    6    0    0  0.62321407403E+02  0.15771434735E+02 -0.17631188551E+03  0.18766613159E+03  0.00000000000E+00 0. -1.
         -5    1    3    3    0  503  0.35799593310E+02 -0.41553630475E+02 -0.44098242388E+03  0.44440511165E+03  0.47000000000E+01 0.  1.
         13    1    4    4    0    0 -0.47410887251E+02 -0.64601776161E+02 -0.54750613083E+03  0.55333908682E+03  0.00000000000E+00 0. -1.
        -14    1    4    4    0    0 -0.66271677896E+02 -0.93086227580E+02 -0.33836031073E+03  0.35713398177E+03  0.00000000000E+00 0.  1.
</event>
<event>
12    1  0.8133495E-002  0.1871715E+03  0.7818608E-02  0.1161372E+00
         21   -1    0    0  501  502  0.00000000000E+00  0.00000000000E+00  0.55803650078E+03  0.55803650078E+03  0.00000000000E+00 0. -1.
         21   -1    0    0  502  503 -0.00000000000E+00 -0.00000000000E+00 -0.97871002281E+02  0.97871002281E+02  0.00000000000E+00 0. -1.
         -6    2    1    2    0  503  0.43071736631E+02  0.56439957893E+02  0.31788113384E+02  0.18842449356E+03  0.17161777961E+03 0.  0.
        -24    2    3    3    0    0 -0.10835315590E+01  0.92226168000E+02 -0.72763149708E+00  0.12277615613E+03  0.81034652844E+02 0.  0.
          6    2    1    2  501    0 -0.43071736631E+02 -0.56439957893E+02  0.42837738511E+03  0.46748300949E+03  0.17318353486E+03 0.  0.
         24    2    5    5    0    0 -0.57550060013E+02 -0.13168859891E+02  0.40281587505E+03  0.41497119590E+03  0.80343238384E+02 0.  0.
          5    1    5    5  501    0  0.14478323382E+02 -0.43271098001E+02  0.25561510056E+02  0.52511813590E+02  0.47000000000E+01 0. -1.
        -11    1    6    6    0    0 -0.38147104642E+01  0.21815974857E+02  0.33689857680E+02  0.40317431532E+02  0.00000000000E+00 0.  1.
         12    1    6    6    0    0 -0.53735349549E+02 -0.34984834748E+02  0.36912601737E+03  0.37465376437E+03  0.00000000000E+00 0. -1.
         -5    1    3    3    0  503  0.44155268190E+02 -0.35786210108E+02  0.32515744881E+02  0.65648337435E+02  0.47000000000E+01 0.  1.
         13    1    4    4    0    0  0.29950763612E+02  0.53036034669E+02 -0.26628022391E+02  0.66474963639E+02  0.00000000000E+00 0. -1.
        -14    1    4    4    0    0 -0.31034295171E+02  0.39190133332E+02  0.25900390894E+02  0.56301192490E+02  0.00000000000E+00 0.  1.
</event>
<event>
12    1  0.8133495E-002  0.1882262E+03  0.7818608E-02  0.1160464E+00
         21   -1    0    0  501  502  0.00000000000E+00  0.00000000000E+00  0.13229545150E+04  0.13229545150E+04  0.00000000000E+00 0.  1.
         21   -1    0    0  502  503 -0.00000000000E+00 -0.00000000000E+00 -0.26550603103E+02  0.26550603103E+02  0.00000000000E+00 0.  1.
         -6    2    1    2    0  503  0.21031514711E+02 -0.70139605379E+02  0.62982636024E+03  0.65686181952E+03  0.17153517723E+03 0.  0.
        -24    2    3    3    0    0 -0.32641170797E+02  0.92462148166E+00  0.42407039123E+03  0.43261086568E+03  0.79057975165E+02 0.  0.
          6    2    1    2  501    0 -0.21031514711E+02  0.70139605379E+02  0.66657755169E+03  0.69264329862E+03  0.17339901342E+03 0.  0.
         24    2    5    5    0    0 -0.10987471397E+02  0.10384273824E+03  0.34587048762E+03  0.36997954963E+03  0.79714704574E+02 0.  0.
          5    1    5    5  501    0 -0.10044043314E+02 -0.33703132856E+02  0.32070706407E+03  0.32266374899E+03  0.47000000000E+01 0. -1.
        -13    1    6    6    0    0 -0.38600543333E+02  0.61331477694E+02  0.26329566973E+03  0.27308636327E+03  0.00000000000E+00 0.  1.
         14    1    6    6    0    0  0.27613071936E+02  0.42511260541E+02  0.82574817890E+02  0.96893186366E+02  0.00000000000E+00 0. -1.
         -5    1    3    3    0  503  0.53672685508E+02 -0.71064226860E+02  0.20575596902E+03  0.22425095383E+03  0.47000000000E+01 0.  1.
         13    1    4    4    0    0 -0.34311697351E+01  0.14284795031E+02  0.11150288936E+02  0.18443352141E+02  0.00000000000E+00 0. -1.
        -14    1    4    4    0    0 -0.29210001062E+02 -0.13360173549E+02  0.41292010229E+03  0.41416751354E+03  0.00000000000E+00 0.  1.
</event>
<event>
12    1  0.8133495E-002  0.1722954E+03  0.7818608E-02  0.1179255E+00
         21   -1    0    0  503  502  0.00000000000E+00  0.00000000000E+00  0.26672395648E+03  0.26672395648E+03  0.00000000000E+00 0. -1.
         21   -1    0    0  501  503 -0.00000000000E+00 -0.00000000000E+00 -0.19492022592E+03  0.19492022592E+03  0.00000000000E+00 0. -1.
          6    2    1    2  501    0  0.23035399991E+02  0.17786715380E+02 -0.12387164129E+03  0.20092489184E+03  0.15549801204E+03 0.  0.
         24    2    3    3    0    0 -0.43604352820E+02  0.74987887225E+01 -0.63889105166E+02  0.11055513623E+03  0.78632365918E+02 0.  0.
         -6    2    1    2    0  502 -0.23035399991E+02 -0.17786715380E+02  0.19567537185E+03  0.26071929057E+03  0.16981961144E+03 0.  0.
        -24    2    5    5    0    0 -0.51201826976E+02 -0.57933579082E+02  0.17416252768E+03  0.20696047047E+03  0.80759665780E+02 0.  0.
          5    1    3    3  501    0  0.66639752811E+02  0.10287926657E+02 -0.59982536121E+02  0.90369755611E+02  0.47000000000E+01 0. -1.
        -11    1    4    4    0    0 -0.31021995016E+02  0.25289877176E+02  0.30677370371E+01  0.40141662557E+02  0.00000000000E+00 0.  1.
         12    1    4    4    0    0 -0.12582357805E+02 -0.17791088454E+02 -0.66956842203E+02  0.70413473669E+02  0.00000000000E+00 0. -1.
         -5    1    5    5    0  502  0.28166426985E+02  0.40146863702E+02  0.21512844167E+02  0.53758820098E+02  0.47000000000E+01 0.  1.
         13    1    6    6    0    0 -0.48800970066E+02 -0.16125466922E+02  0.36417635677E+02  0.62990551284E+02  0.00000000000E+00 0. -1.
        -14    1    6    6    0    0 -0.24008569101E+01 -0.41808112160E+02  0.13774489200E+03  0.14396991918E+03  0.00000000000E+00 0.  1.
</event>
<event>
12    1  0.8133495E-002  0.1838944E+03  0.7818608E-02  0.1164487E+00
         21   -1    0    0  503  502  0.00000000000E+00  0.00000000000E+00  0.25593710860E+03  0.25593710860E+03  0.00000000000E+00 0. -1.
         21   -1    0    0  501  503 -0.00000000000E+00 -0.00000000000E+00 -0.20886208076E+03  0.20886208076E+03  0.00000000000E+00 0. -1.
          6    2    1    2  501    0 -0.34451694915E+02 -0.53121601750E+02 -0.11850129187E+03  0.21734681461E+03  0.17084571342E+03 0.  0.
         24    2    3    3    0    0 -0.76551011732E+02 -0.73550368130E+02 -0.10414527220E+03  0.16817494997E+03  0.78529370459E+02 0.  0.
         -6    2    1    2    0  502  0.34451694915E+02  0.53121601750E+02  0.16557631971E+03  0.24745237474E+03  0.17265090866E+03 0.  0.
        -24    2    5    5    0    0 -0.13786490061E+02 -0.25271520283E+02  0.52574044243E+02  0.10163053710E+03  0.82073253244E+02 0.  0.
          5    1    3    3  501    0  0.42099316817E+02  0.20428766380E+02 -0.14356019670E+02  0.49171864649E+02  0.47000000000E+01 0. -1.
        -11    1    4    4    0    0  0.11310513192E+02 -0.25316052959E+02 -0.70127151492E+01  0.28600846488E+02  0.00000000000E+00 0.  1.
         12    1    4    4    0    0 -0.87861524924E+02 -0.48234315171E+02 -0.97132557053E+02  0.13957410348E+03  0.00000000000E+00 0. -1.
         -5    1    5    5    0  502  0.48238184976E+02  0.78393122034E+02  0.11300227547E+03  0.14582183764E+03  0.47000000000E+01 0.  1.
         13    1    6    6    0    0  0.31632117819E+02 -0.94831750822E+01  0.40113355822E+02  0.51957702053E+02  0.00000000000E+00 0. -1.
        -14    1    6    6    0    0 -0.45418607880E+02 -0.15788345201E+02  0.12460688421E+02  0.49672835049E+02  0.00000000000E+00 0.  1.
</event>
<event>
12    1  0.8133495E-002  0.2245568E+03  0.7818608E-02  0.1130719E+00
         21   -1    0    0  501  502  0.00000000000E+00  0.00000000000E+00  0.15453025546E+04  0.15453025546E+04  0.00000000000E+00 0. -1.
         21   -1    0    0  502  503 -0.00000000000E+00 -0.00000000000E+00 -0.40255568786E+02  0.40255568786E+02  0.00000000000E+00 0. -1.
         -6    2    1    2    0  503 -0.12162699072E+03  0.77341439165E+02  0.40273735408E+03  0.46060821660E+03  0.17084416802E+03 0.  0.
        -24    2    3    3    0    0 -0.10149645327E+03  0.66852109262E+02  0.16970300674E+03  0.22642375593E+03  0.87737518847E+02 0.  0.
          6    2    1    2  501    0  0.12162699072E+03 -0.77341439165E+02  0.11023096317E+04  0.11249499068E+04  0.17219449896E+03 0.  0.
         24    2    5    5    0    0  0.10425202117E+03 -0.32785253830E+02  0.42079548896E+03  0.44174367143E+03  0.78264110145E+02 0.  0.
          5    1    5    5  501    0  0.17374969552E+02 -0.44556185335E+02  0.68151414275E+03  0.68320623533E+03  0.47000000000E+01 0. -1.
        -13    1    6    6    0    0  0.12757351790E+02  0.23544325205E+02  0.93877871354E+02  0.97622435966E+02  0.00000000000E+00 0.  1.
         14    1    6    6    0    0  0.91494669375E+02 -0.56329579035E+02  0.32691761761E+03  0.34412123547E+03  0.00000000000E+00 0. -1.
         -5    1    3    3    0  503 -0.20130537443E+02  0.10489329903E+02  0.23303434734E+03  0.23418446068E+03  0.47000000000E+01 0.  1.
         11    1    4    4    0    0 -0.79956755153E+01  0.49083530165E+02  0.32377153415E+02  0.59341417439E+02  0.00000000000E+00 0. -1.
        -12    1    4    4    0    0 -0.93500777759E+02  0.17768579097E+02  0.13732585332E+03  0.16708233849E+03  0.00000000000E+00 0.  1.
</event>
<event>
12    1  0.8133495E-002  0.2123222E+03  0.7818608E-02  0.1139942E+00
         21   -1    0    0  503  502  0.00000000000E+00  0.00000000000E+00  0.74988941445E+03  0.74988941445E+03  0.00000000000E+00 0.  1.
         21   -1    0    0  501  503 -0.00000000000E+00 -0.00000000000E+00 -0.63234258808E+02  0.63234258808E+02  0.00000000000E+00 0.  1.
          6    2    1    2  501    0 -0.64608066859E+02  0.10664253641E+03  0.43693744469E+03  0.48534381932E+03  0.17057977460E+03 0.  0.
         24    2    3    3    0    0 -0.86554123159E+02  0.90562768087E+02  0.43257255146E+03  0.45739152729E+03  0.79967279336E+02 0.  0.
         -6    2    1    2    0  502  0.64608066859E+02 -0.10664253641E+03  0.24971771095E+03  0.32777985394E+03  0.17185419579E+03 0.  0.
        -24    2    5    5    0    0 -0.29220438245E+02 -0.72082517359E+02  0.12921572239E+03  0.17112417248E+03  0.80852063507E+02 0.  0.
          5    1    3    3  501    0  0.21946056300E+02  0.16079768327E+02  0.43648932334E+01  0.27952292026E+02  0.47000000000E+01 0. -1.
        -11    1    4    4    0    0 -0.20023193001E+02  0.10880302084E+01  0.14605404345E+02  0.24807859718E+02  0.00000000000E+00 0.  1.
         12    1    4    4    0    0 -0.66530930157E+02  0.89474737878E+02  0.41796714711E+03  0.43258366758E+03  0.00000000000E+00 0. -1.
         -5    1    5    5    0  502  0.93828505104E+02 -0.34560019055E+02  0.12050198855E+03  0.15665568146E+03  0.47000000000E+01 0.  1.
         11    1    6    6    0    0 -0.46904664245E+02 -0.24577862295E+02  0.98562655025E+02  0.11188706721E+03  0.00000000000E+00 0. -1.
        -12    1    6    6    0    0  0.17684226000E+02 -0.47504655064E+02  0.30653067369E+02  0.59237105273E+02  0.00000000000E+00 0.  1.
</event>
<event>
12    1  0.8133495E-002  0.1839963E+03  0.7818608E-02  0.1163998E+00
         21   -1    0    0  501  502  0.00000000000E+00  0.00000000000E+00  0.11740448833E+03  0.11740448833E+03  0.00000000000E+00 0. -1.
         21   -1    0    0  502  503 -0.00000000000E+00 -0.00000000000E+00 -0.48505921058E+03  0.48505921058E+03  0.00000000000E+00 0. -1.
         -6    2    1    2    0  503 -0.17301921733E+02  0.63793993236E+02 -0.37566710622E+03  0.41829304347E+03  0.17168070787E+03 0.  0.
        -24    2    3    3    0    0  0.30417459083E+02  0.14753199764E+02 -0.31544566416E+03  0.32701954889E+03  0.79328050514E+02 0.  0.
          6    2    1    2  501    0  0.17301921733E+02 -0.63793993236E+02  0.80123839664E+01  0.18417065544E+03  0.17171372094E+03 0.  0.
         24    2    5    5    0    0  0.35656957903E+02 -0.44009078083E+02  0.76673998065E+02  0.11024598113E+03  0.55381014584E+02 0.  0.
          5    1    5    5  501    0 -0.18355036170E+02 -0.19784915153E+02 -0.68661614099E+02  0.73924674305E+02  0.47000000000E+01 0. -1.
        -11    1    6    6    0    0 -0.97683356141E+01 -0.30185278090E+02  0.29946591308E+02  0.43627625709E+02  0.00000000000E+00 0.  1.
         12    1    6    6    0    0  0.45425293517E+02 -0.13823799993E+02  0.46727406757E+02  0.66618355426E+02  0.00000000000E+00 0. -1.
         -5    1    3    3    0  503 -0.47719380816E+02  0.49040793472E+02 -0.60221442055E+02  0.91273494581E+02  0.47000000000E+01 0.  1.
         11    1    4    4    0    0  0.11272455500E+02  0.30634808802E+02 -0.28852638728E+03  0.29036707100E+03  0.00000000000E+00 0. -1.
        -12    1    4    4    0    0  0.19145003584E+02 -0.15881609039E+02 -0.26919276883E+02  0.36652477894E+02  0.00000000000E+00 0.  1.
</event>
<event>
12    1  0.8133495E-002  0.2215544E+03  0.7818608E-02  0.1133181E+00
         21   -1    0    0  503  502  0.00000000000E+00  0.00000000000E+00  0.10115522228E+04  0.10115522228E+04  0.00000000000E+00 0. -1.
         21   -1    0    0  501  503 -0.00000000000E+00 -0.00000000000E+00 -0.48864526248E+02  0.48864526248E+02  0.00000000000E+00 0.  1.
          6    2    1    2  501    0 -0.12954339469E+03 -0.53316809330E+02  0.41321918358E+03  0.46886719276E+03  0.17164549951E+03 0.  0.
         24    2    3    3    0    0 -0.38691896851E+02 -0.77865110679E+02  0.16430545278E+03  0.20271545194E+03  0.80853165058E+02 0.  0.
         -6    2    1    2    0  502  0.12954339469E+03  0.53316809330E+02  0.54946851295E+03  0.59154955627E+03  0.16849646149E+03 0.  0.
        -24    2    5    5    0    0  0.49263810342E+02 -0.71276065890E+01  0.40593582863E+03  0.41627245980E+03  0.77595992416E+02 0.  0.
          5    1    3    3  501    0 -0.90851497836E+02  0.24548301348E+02  0.24891373080E+03  0.26615174082E+03  0.47000000000E+01 0. -1.
        -13    1    4    4    0    0 -0.43429568418E+02 -0.12007560182E+02  0.33357651897E+02  0.56062838446E+02  0.00000000000E+00 0.  1.
         14    1    4    4    0    0  0.47376715672E+01 -0.65857550496E+02  0.13094780088E+03  0.14665261350E+03  0.00000000000E+00 0. -1.
         -5    1    5    5    0  502  0.80279584345E+02  0.60444415919E+02  0.14353268433E+03  0.17527709648E+03  0.47000000000E+01 0.  1.
         13    1    6    6    0    0 -0.21922991329E+01  0.23853029477E+02  0.20934837626E+03  0.21071429908E+03  0.00000000000E+00 0. -1.
        -14    1    6    6    0    0  0.51456109475E+02 -0.30980636066E+02  0.19658745236E+03  0.20555816072E+03  0.00000000000E+00 0.  1.
</event>
<event>
12    1  0.8133495E-002  0.1970668E+03  0.7818608E-02  0.1155320E+00
         21   -1    0    0  503  502  0.00000000000E+00  0.00000000000E+00  0.17661148572E+04  0.17661148572E+04  0.00000000000E+00 0.  1.
         21   -1    0    0  501  503 -0.00000000000E+00 -0.00000000000E+00 -0.21185192695E+02  0.21185192695E+02  0.00000000000E+00 0.  1.
          6    2    1    2  501    0  0.87010095664E+02  0.39329586238E+02  0.67861074795E+03  0.70292403152E+03  0.15643552587E+03 0.  0.
         24    2    3    3    0    0  0.58334103029E+02  0.67909579087E+02  0.62287192783E+03  0.63387307488E+03  0.76230296264E+02 0.  0.
         -6    2    1    2    0  502 -0.87010095664E+02 -0.39329586238E+02  0.10663189166E+04  0.10843760184E+04  0.17238835321E+03 0.  0.
        -24    2    5    5    0    0 -0.52888273825E+02 -0.75266030706E+02  0.95085212324E+03  0.95863661673E+03  0.80014109920E+02 0.  0.
          5    1    3    3  501    0  0.28675992634E+02 -0.28579992850E+02  0.55738820120E+02  0.69050956642E+02  0.47000000000E+01 0. -1.
        -11    1    4    4    0    0  0.62003884324E+02  0.18714592149E+02  0.27518780468E+03  0.28270664207E+03  0.00000000000E+00 0.  1.
         12    1    4    4    0    0 -0.36697812948E+01  0.49194986938E+02  0.34768412315E+03  0.35116643280E+03  0.00000000000E+00 0. -1.
         -5    1    5    5    0  502 -0.34121821839E+02  0.35936444468E+02  0.11546679332E+03  0.12573940164E+03  0.47000000000E+01 0.  1.
         13    1    6    6    0    0 -0.41708315713E+02 -0.84849587128E+02  0.59370425503E+03  0.60118531126E+03  0.00000000000E+00 0. -1.
        -14    1    6    6    0    0 -0.11179958111E+02  0.95835564227E+01  0.35714786821E+03  0.35745130547E+03  0.00000000000E+00 0.  1.
</event>
<event>
12    1  0.8133495E-002  0.1828393E+03  0.7818608E-02  0.1165756E+00
         21   -1    0    0  503  502  0.00000000000E+00  0.00000000000E+00  0.12715630083E+03  0.12715630083E+03  0.00000000000E+00 0. -1.
         21   -1    0    0  501  503 -0.00000000000E+00 -0.00000000000E+00 -0.28503806245E+03  0.28503806245E+03  0.00000000000E+00 0. -1.
          6    2    1    2  501    0 -0.59346673656E+02  0.81252810812E+01 -0.14082609786E+03  0.22856125247E+03  0.16976515668E+03 0.  0.
         24    2    3    3    0    0 -0.68136806052E+02 -0.51887687181E+02 -0.94358826462E+02  0.15200983120E+03  0.82876077546E+02 0.  0.
         -6    2    1    2    0  502  0.59346673656E+02 -0.81252810812E+01 -0.17055663768E+02  0.18363311081E+03  0.17274888091E+03 0.  0.
        -24    2    5    5    0    0  0.92167509807E+02 -0.45467961576E+02 -0.28149286950E+02  0.13247803729E+03  0.78713801926E+02 0.  0.
          5    1    3    3  501    0  0.87901323958E+01  0.60012968262E+02 -0.46467271397E+02  0.76551421269E+02  0.47000000000E+01 0. -1.
        -11    1    4    4    0    0 -0.65930071144E+01  0.11286498997E+02 -0.53017266709E+02  0.54604792571E+02  0.00000000000E+00 0.  1.
         12    1    4    4    0    0 -0.61543798937E+02 -0.63174186178E+02 -0.41341559753E+02  0.97405038626E+02  0.00000000000E+00 0. -1.
         -5    1    5    5    0  502 -0.32820836151E+02  0.37342680495E+02  0.11093623182E+02  0.51155073527E+02  0.47000000000E+01 0.  1.
         13    1    6    6    0    0  0.22921806938E+02 -0.95040967090E+01 -0.46152291390E+02  0.52400105802E+02  0.00000000000E+00 0. -1.
        -14    1    6    6    0    0  0.69245702869E+02 -0.35963864867E+02  0.18003004439E+02  0.80077931485E+02  0.00000000000E+00 0.  1.
</event>
<event>
12    1  0.8133495E-002  0.1930402E+03  0.7818608E-02  0.1156008E+00
         21   -1    0    0  501  502  0.00000000000E+00  0.00000000000E+00  0.11066029933E+03  0.11066029933E+03  0.00000000000E+00 0.  1.
         21   -1    0    0  502  503 -0.00000000000E+00 -0.00000000000E+00 -0.55453006782E+03  0.55453006782E+03  0.00000000000E+00 0.  1.
         -6    2    1    2    0  503 -0.40757226882E+02  0.76163077056E+02 -0.43093581088E+03  0.47171734475E+03  0.17131729156E+03 0.  0.
        -24    2    3    3    0    0 -0.12776736905E+02 -0.10655065235E+02 -0.96620219634E+02  0.12514945501E+03  0.77782670467E+02 0.  0.
          6    2    1    2  501    0  0.40757226882E+02 -0.76163077056E+02 -0.12933957612E+02  0.19347302240E+03  0.17263417184E+03 0.  0.
         24    2    5    5    0    0  0.83559679141E+02 -0.36777192117E+02  0.25418500804E+02  0.12364252105E+03  0.79414047813E+02 0.  0.
          5    1    5    5  501    0 -0.42802452259E+02 -0.39385884939E+02 -0.38352458416E+02  0.69830501347E+02  0.47000000000E+01 0. -1.
        -13    1    6    6    0    0  0.27338543250E+02 -0.21267698760E+02  0.49608348088E+02  0.60503711932E+02  0.00000000000E+00 0.  1.
         14    1    6    6    0    0  0.56221135891E+02 -0.15509493357E+02 -0.24189847284E+02  0.63138809117E+02  0.00000000000E+00 0. -1.
         -5    1    3    3    0  503 -0.27980489977E+02  0.86818142291E+02 -0.33431559125E+03  0.34656788975E+03  0.47000000000E+01 0.  1.
         13    1    4    4    0    0  0.98335915228E+01  0.24520639069E+02 -0.71837537903E+02  0.76541447037E+02  0.00000000000E+00 0. -1.
        -14    1    4    4    0    0 -0.22610328428E+02 -0.35175704304E+02 -0.24782681731E+02  0.48608007968E+02  0.00000000000E+00 0.  1.
</event>
<event>
12    1  0.8133495E-002  0.1923578E+03  0.7818608E-02  0.1157212E+00
         21   -1    0    0  503  502  0.00000000000E+00  0.00000000000E+00  0.75568683976E+03  0.75568683976E+03  0.00000000000E+00 0. -1.
         21   -1    0    0  501  503 -0.00000000000E+00 -0.00000000000E+00 -0.50851535331E+02  0.50851535331E+02  0.00000000000E+00 0. -1.
          6    2    1    2  501    0  0.43989463574E+01  0.79870211135E+02  0.45137941007E+03  0.49065763397E+03  0.17493696175E+03 0.  0.
         24    2    3    3    0    0 -0.65209655132E+02  0.39375993480E+02  0.23229885428E+03  0.25719774664E+03  0.79907166112E+02 0.  0.
         -6    2    1    2    0  502 -0.43989463574E+01 -0.79870211135E+02  0.25345589436E+03  0.31588074112E+03  0.17071072277E+03 0.  0.
        -24    2    5    5    0    0  0.32632089323E+02 -0.69715216727E+02  0.25459310150E+03  0.27717925852E+03  0.78010443702E+02 0.  0.
          5    1    3    3  501    0  0.69608601489E+02  0.40494217655E+02  0.21908055579E+03  0.23345988733E+03  0.47000000000E+01 0. -1.
        -13    1    4    4    0    0 -0.22306449870E+02  0.29221342434E+01  0.50206417293E+01  0.23050453742E+02  0.00000000000E+00 0.  1.
         14    1    4    4    0    0 -0.42903205262E+02  0.36453859237E+02  0.22727821255E+03  0.23414729290E+03  0.00000000000E+00 0. -1.
         -5    1    5    5    0  502 -0.37031035680E+02 -0.10154994408E+02 -0.11372071412E+01  0.38701482595E+02  0.47000000000E+01 0.  1.
         13    1    6    6    0    0  0.20403581066E+02 -0.73220758739E+02  0.12040903677E+03  0.14239354538E+03  0.00000000000E+00 0. -1.
        -14    1    6    6    0    0  0.12228508257E+02  0.35055420123E+01  0.13418406473E+03  0.13478571314E+03  0.00000000000E+00 0.  1.
</event>
<event>
12    1  0.8133495E-002  0.1803702E+03  0.7818608E-02  0.1168220E+00
         21   -1    0    0  503  502  0.00000000000E+00  0.00000000000E+00  0.12209690664E+03  0.12209690664E+03  0.00000000000E+00 0.  1.
         21   -1    0    0  501  503 -0.00000000000E+00 -0.00000000000E+00 -0.26795766467E+03  0.26795766467E+03  0.00000000000E+00 0.  1.
          6    2    1    2  501    0 -0.51115873831E+02  0.20664825194E+02 -0.43943260456E+02  0.18564595330E+03  0.17173684019E+03 0.  0.
         24    2    3    3    0    0  0.23078673252E+02  0.48348020588E+02 -0.29885775842E+01  0.96367925915E+02  0.80048043670E+02 0.  0.
         -6    2    1    2    0  502  0.51115873831E+02 -0.20664825194E+02 -0.10191749758E+03  0.20440861801E+03  0.16839192156E+03 0.  0.
        -24    2    5    5    0    0 -0.19517356208E+02  0.14577355546E+01 -0.10562272077E+03  0.13015042278E+03  0.73484156264E+02 0.  0.
          5    1    3    3  501    0 -0.74194547083E+02 -0.27683195394E+02 -0.40954682872E+02  0.89278027382E+02  0.47000000000E+01 0. -1.
        -11    1    4    4    0    0 -0.27395172876E+02  0.34223367269E+02  0.48173451867E+00  0.43840237594E+02  0.00000000000E+00 0.  1.
         12    1    4    4    0    0  0.50473846127E+02  0.14124653319E+02 -0.34703121029E+01  0.52527688321E+02  0.00000000000E+00 0. -1.
         -5    1    5    5    0  502  0.70633230039E+02 -0.22122560749E+02  0.37052231906E+01  0.74258195230E+02  0.47000000000E+01 0.  1.
         11    1    6    6    0    0 -0.23538761359E+02 -0.91743466050E+01 -0.13920818495E+01  0.25301774915E+02  0.00000000000E+00 0. -1.
        -12    1    6    6    0    0  0.40214051507E+01  0.10632082160E+02 -0.10423063892E+03  0.10484864787E+03  0.00000000000E+00 0.  1.
</event>
<event>
12    1  0.8133495E-002  0.2203857E+03  0.7818608E-02  0.1133818E+00
         21   -1    0    0  501  502  0.00000000000E+00  0.00000000000E+00  0.70047645872E+02  0.70047645872E+02  0.00000000000E+00 0. -1.
         21   -1    0    0  502  503 -0.00000000000E+00 -0.00000000000E+00 -0.71106234722E+03  0.71106234722E+03  0.00000000000E+00 0.  1.
         -6    2    1    2    0  503  0.91865079094E+02 -0.10174855217E+03 -0.38914028391E+03  0.44721362689E+03  0.17256276218E+03 0.  0.
        -24    2    3    3    0    0  0.40407480086E+02 -0.86200303341E+01 -0.27799040260E+03  0.29327470332E+03  0.83811206287E+02 0.  0.
          6    2    1    2  501    0 -0.91865079094E+02  0.10174855217E+03 -0.25187441744E+03  0.33389636620E+03  0.17103830148E+03 0.  0.
         24    2    5    5    0    0 -0.93842869648E+02  0.87260952358E+01 -0.16168552223E+03  0.20423058054E+03  0.81763641117E+02 0.  0.
          5    1    5    5  501    0  0.19777905543E+01  0.93022456939E+02 -0.90188895215E+02  0.12966578566E+03  0.47000000000E+01 0. -1.
        -13    1    6    6    0    0  0.15243498585E+02 -0.75685599836E+00 -0.18884754489E+02  0.24281083835E+02  0.00000000000E+00 0.  1.
         14    1    6    6    0    0 -0.10908636823E+03  0.94829512341E+01 -0.14280076774E+03  0.17994949671E+03  0.00000000000E+00 0. -1.
         -5    1    3    3    0  503  0.51457599008E+02 -0.93128521841E+02 -0.11114988130E+03  0.15393892357E+03  0.47000000000E+01 0.  1.
         13    1    4    4    0    0  0.39124178554E+02  0.11831075465E+02 -0.50985150111E+02  0.65346470647E+02  0.00000000000E+00 0. -1.
        -14    1    4    4    0    0  0.12833015315E+01 -0.20451105799E+02 -0.22700525249E+03  0.22792823267E+03  0.00000000000E+00 0.  1.
</event>
<event>
12    1  0.8133495E-002  0.1943330E+03  0.7818608E-02  0.1155167E+00
         21   -1    0    0  501  502  0.00000000000E+00  0.00000000000E+00  0.12825807087E+04  0.12825807087E+04  0.00000000000E+00 0. -1.
         21   -1    0    0  502  503 -0.00000000000E+00 -0.00000000000E+00 -0.36397697627E+02  0.36397697627E+02  0.00000000000E+00 0. -1.
         -6    2    1    2    0  503 -0.84047291934E+02  0.30441742696E+02  0.32380716628E+03  0.37635308483E+03  0.16970538160E+03 0.  0.
        -24    2    3    3    0    0 -0.62471496974E+02 -0.45418583031E+02  0.17427918816E+03  0.20723475291E+03  0.81286356608E+02 0.  0.
          6    2    1    2  501    0  0.84047291934E+02 -0.30441742696E+02  0.92237584480E+03  0.94262532151E+03  0.17255332713E+03 0.  0.
         24    2    5    5    0    0  0.47805304126E+02 -0.46807319762E+02  0.87207878728E+03  0.87833537060E+03  0.80469495702E+02 0.  0.
          5    1    5    5  501    0  0.36241987807E+02  0.16365577065E+02  0.50297057520E+02  0.64289950911E+02  0.47000000000E+01 0. -1.
        -11    1    6    6    0    0  0.81775814915E+01 -0.60668406969E+02  0.44343930981E+03  0.44764489267E+03  0.00000000000E+00 0.  1.
         12    1    6    6    0    0  0.39627722635E+02  0.13861087207E+02  0.42863947747E+03  0.43069047794E+03  0.00000000000E+00 0. -1.
         -5    1    3    3    0  503 -0.21575794960E+02  0.75860325728E+02  0.14952797813E+03  0.16911833192E+03  0.47000000000E+01 0.  1.
         13    1    4    4    0    0 -0.77547775164E+02 -0.18655218045E+02  0.10875610497E+03  0.13486869526E+03  0.00000000000E+00 0. -1.
        -14    1    4    4    0    0  0.15076278190E+02 -0.26763364986E+02  0.65523083187E+02  0.72366057649E+02  0.00000000000E+00 0.  1.
</event>
<event>
12    1  0.8133495E-002  0.3332479E+03  0.7818608E-02  0.1069769E+00
         21   -1    0    0  501  502  0.00000000000E+00  0.00000000000E+00  0.72169197009E+03  0.72169197009E+03  0.00000000000E+00 0.  1.
         21   -1    0    0  502  503 -0.00000000000E+00 -0.00000000000E+00 -0.27382603909E+03  0.27382603909E+03  0.00000000000E+00 0.  1.
         -6    2    1    2    0  503 -0.12135417832E+03  0.25925143720E+03 -0.10595493095E+03  0.34916537580E+03  0.16956375787E+03 0.  0.
        -24    2    3    3    0    0 -0.13999054009E+02  0.99143124882E+02 -0.87295594604E+02  0.15543862179E+03  0.80717480028E+02 0.  0.
          6    2    1    2  501    0  0.12135417832E+03 -0.25925143720E+03  0.55382086195E+03  0.64635263337E+03  0.17063421478E+03 0.  0.
         24    2    5    5    0    0  0.22218913174E+02 -0.40430991740E+02  0.15683250158E+03  0.18231380266E+03  0.80706529421E+02 0.  0.
          5    1    5    5  501    0  0.99135265145E+02 -0.21882044546E+03  0.39698836036E+03  0.46403883071E+03  0.47000000000E+01 0. -1.
        -11    1    6    6    0    0  0.12597611333E+02 -0.93857904359E+01  0.14772778268E+03  0.14856073051E+03  0.00000000000E+00 0.  1.
         12    1    6    6    0    0  0.96213018407E+01 -0.31045201304E+02  0.91047188998E+01  0.33753072147E+02  0.00000000000E+00 0. -1.
         -5    1    3    3    0  503 -0.10735512431E+03  0.16010831232E+03 -0.18659336346E+02  0.19372675401E+03  0.47000000000E+01 0.  1.
         11    1    4    4    0    0  0.24256845367E+02  0.60624082218E+01 -0.32007756416E+02  0.40615807408E+02  0.00000000000E+00 0. -1.
        -12    1    4    4    0    0 -0.38255899376E+02  0.93080716660E+02 -0.55287838188E+02  0.11482281438E+03  0.00000000000E+00 0.  1.
</event>
<event>
12    1  0.8133495E-002  0.1915457E+03  0.7818608E-02  0.1157217E+00
         21   -1    0    0  501  502  0.00000000000E+00  0.00000000000E+00  0.22022610703E+03  0.22022610703E+03  0.00000000000E+00 0. -1.
         21   -1    0    0  502  503 -0.00000000000E+00 -0.00000000000E+00 -0.17003469426E+03  0.17003469426E+03  0.00000000000E+00 0. -1.
         -6    2    1    2    0  503 -0.36709403460E+02 -0.75116262349E+02 -0.48353269446E+01  0.19096777843E+03  0.17162540266E+03 0.  0.
        -24    2    3    3    0    0 -0.63933798140E+02 -0.33858689432E+00 -0.34542006343E+02  0.10589460279E+03  0.77025135585E+02 0.  0.
          6    2    1    2  501    0  0.36709403460E+02  0.75116262349E+02  0.55026739717E+02  0.19929302287E+03  0.17233610680E+03 0.  0.
         24    2    5    5    0    0 -0.36066954492E+02  0.53954323203E+02 -0.55528314804E+01  0.10215291585E+03  0.78692376254E+02 0.  0.
          5    1    5    5  501    0  0.72776357951E+02  0.21161939146E+02  0.60579571198E+02  0.97140107019E+02  0.47000000000E+01 0. -1.
        -13    1    6    6    0    0  0.11242937159E+02 -0.66327779178E+01 -0.20052717068E+02  0.23927156970E+02  0.00000000000E+00 0.  1.
         14    1    6    6    0    0 -0.47309891651E+02  0.60587101121E+02  0.14499885588E+02  0.78225758880E+02  0.00000000000E+00 0. -1.
         -5    1    3    3    0  503  0.27224394680E+02 -0.74777675455E+02  0.29706679398E+02  0.85073175637E+02  0.47000000000E+01 0.  1.
         11    1    4    4    0    0 -0.22074000590E+02 -0.37898097790E+02 -0.15621759932E+02  0.46557133733E+02  0.00000000000E+00 0. -1.
        -12    1    4    4    0    0 -0.41859797550E+02  0.37559510895E+02 -0.18920246411E+02  0.59337469055E+02  0.00000000000E+00 0.  1.
</event>
<event>
12    1  0.8133495E-002  0.1884338E+03  0.7818608E-02  0.1160231E+00
         21   -1    0    0  503  502  0.00000000000E+00  0.00000000000E+00  0.31714998499E+02  0.31714998499E+02  0.00000000000E+00 0.  1.
         21   -1    0    0  501  503 -0.00000000000E+00 -0.00000000000E+00 -0.12238102417E+04  0.12238102417E+04  0.00000000000E+00 0.  1.
          6    2    1    2  501    0  0.61893496133E+02  0.45903890415E+02 -0.78924680229E+03  0.81142948027E+03  0.17195730433E+03 0.  0.
         24    2    3    3    0    0  0.10032849163E+03  0.18779573409E+02 -0.67183154615E+03  0.68485377238E+03  0.85138619569E+02 0.  0.
         -6    2    1    2    0  502 -0.61893496133E+02 -0.45903890415E+02 -0.40284844096E+03  0.44409575997E+03  0.17028272263E+03 0.  0.
        -24    2    5    5    0    0 -0.10387184549E+02  0.35942613038E+01 -0.77790768215E+02  0.11124812551E+03  0.78765027096E+02 0.  0.
          5    1    3    3  501    0 -0.38434995500E+02  0.27124317006E+02 -0.11741525614E+03  0.12657570789E+03  0.47000000000E+01 0. -1.
        -13    1    4    4    0    0  0.65258950907E+02  0.52881638752E+02 -0.42764508641E+03  0.43581592252E+03  0.00000000000E+00 0.  1.
         14    1    4    4    0    0  0.35069540727E+02 -0.34102065343E+02 -0.24418645973E+03  0.24903784986E+03  0.00000000000E+00 0. -1.
         -5    1    5    5    0  502 -0.51506311584E+02 -0.49498151718E+02 -0.32505767274E+03  0.33284763446E+03  0.47000000000E+01 0.  1.
         13    1    6    6    0    0  0.25046663063E+01 -0.11252262585E+02 -0.88234273579E+02  0.88984121058E+02  0.00000000000E+00 0. -1.
        -14    1    6    6    0    0 -0.12891850856E+02  0.14846523888E+02  0.10443505364E+02  0.22264004454E+02  0.00000000000E+00 0.  1.
</event>
<event>
12    1  0.8133495E-002  0.1733404E+03  0.7818608E-02  0.1174850E+00
         21   -1    0    0  503  502  0.00000000000E+00  0.00000000000E+00  0.16113785339E+03  0.16113785339E+03  0.00000000000E+00 0. -1.
         21   -1    0    0  501  503 -0.00000000000E+00 -0.00000000000E+00 -0.20379970161E+03  0.20379970161E+03  0.00000000000E+00 0. -1.
          6    2    1    2  501    0 -0.19700162435E+02 -0.91980186280E+01 -0.77218212832E+02  0.18818621754E+03  0.17023131361E+03 0.  0.
         24    2    3    3    0    0  0.44643778090E+02 -0.13429673930E+02 -0.81955375840E+02  0.12335890615E+03  0.79544409185E+02 0.  0.
         -6    2    1    2    0  502  0.19700162435E+02  0.91980186280E+01  0.34556364617E+02  0.17675133747E+03  0.17197148896E+03 0.  0.
        -24    2    5    5    0    0  0.27867916069E+02  0.23650024639E+02 -0.42556709267E+02  0.97731790258E+02  0.80028025791E+02 0.  0.
          5    1    3    3  501    0 -0.64343940525E+02  0.42316553023E+01  0.47371630080E+01  0.64827311391E+02  0.47000000000E+01 0. -1.
        -11    1    4    4    0    0 -0.12936908307E+02 -0.10705037275E+02  0.63091959660E+01  0.17937875385E+02  0.00000000000E+00 0.  1.
         12    1    4    4    0    0  0.57580686397E+02 -0.27246366556E+01 -0.88264571806E+02  0.10542103076E+03  0.00000000000E+00 0. -1.
         -5    1    5    5    0  502 -0.81677536340E+01 -0.14452006011E+02  0.77113073884E+02  0.79019547208E+02  0.47000000000E+01 0.  1.
         11    1    6    6    0    0 -0.20179660970E+02 -0.15921000865E+02 -0.13618366511E+02  0.29088776046E+02  0.00000000000E+00 0. -1.
        -12    1    6    6    0    0  0.48047577039E+02  0.39571025503E+02 -0.28938342756E+02  0.68643014212E+02  0.00000000000E+00 0.  1.
</event>
<event>
12    1  0.8133495E-002  0.1890014E+03  0.7818608E-02  0.1159398E+00
         21   -1    0    0  503  502  0.00000000000E+00  0.00000000000E+00  0.12949869034E+04  0.12949869034E+04  0.00000000000E+00 0.  1.
         21   -1    0    0  501  503 -0.00000000000E+00 -0.00000000000E+00 -0.27569956565E+02  0.27569956565E+02  0.00000000000E+00 0.  1.
          6    2    1    2  501    0  0.80355675770E+02  0.15598871476E+02  0.62370375523E+03  0.65171152364E+03  0.17035602817E+03 0.  0.
         24    2    3    3    0    0  0.65272893267E+02  0.59254773788E+02  0.26860071850E+03  0.29358642701E+03  0.79214678797E+02 0.  0.
         -6    2    1    2    0  502 -0.80355675770E+02 -0.15598871476E+02  0.64371319156E+03  0.67084533629E+03  0.17019527845E+03 0.  0.
        -24    2    5    5    0    0 -0.42166579038E+02 -0.29988106087E+02  0.13794705356E+03  0.16341363297E+03  0.70691717760E+02 0.  0.
          5    1    3    3  501    0  0.15082782504E+02 -0.43655902312E+02  0.35510303673E+03  0.35812509662E+03  0.47000000000E+01 0. -1.
        -13    1    4    4    0    0  0.98826688792E+01 -0.16136005412E+02  0.18091382584E+02  0.26178921648E+02  0.00000000000E+00 0.  1.
         14    1    4    4    0    0  0.55390224387E+02  0.75390779200E+02  0.25050933591E+03  0.26740750536E+03  0.00000000000E+00 0. -1.
         -5    1    5    5    0  502 -0.38189096732E+02  0.14389234611E+02  0.50576613800E+03  0.50743170331E+03  0.47000000000E+01 0.  1.
         13    1    6    6    0    0  0.15064634036E+02  0.64341346193E+01  0.11819732754E+02  0.20200182408E+02  0.00000000000E+00 0. -1.
        -14    1    6    6    0    0 -0.57231213074E+02 -0.36422240707E+02  0.12612732081E+03  0.14321345056E+03  0.00000000000E+00 0.  1.
</event>
<event>
12    1  0.8133495E-002  0.1930777E+03  0.7818608E-02  0.1155845E+00
         21   -1    0    0  501  502  0.00000000000E+00  0.00000000000E+00  0.24678257973E+02  0.24678257973E+02  0.00000000000E+00 0. -1.
         21   -1    0    0  502  503 -0.00000000000E+00 -0.00000000000E+00 -0.29323815275E+04  0.29323815275E+04  0.00000000000E+00 0. -1.
         -6    2    1    2    0  503 -0.85996451129E+02  0.19047161577E+02 -0.42151944588E+03  0.46338999730E+03  0.17115333000E+03 0.  0.
        -24    2    3    3    0    0 -0.80139818116E+02 -0.34490645133E+01 -0.42490068219E+03  0.43943372260E+03  0.78275924404E+02 0.  0.
          6    2    1    2  501    0  0.85996451129E+02 -0.19047161577E+02 -0.24861838237E+04  0.24936697882E+04  0.17181624930E+03 0.  0.
         24    2    5    5    0    0  0.30714047311E+02 -0.38461000977E+02 -0.21711601148E+04  0.21732090754E+04  0.80491240288E+02 0.  0.
          5    1    5    5  501    0  0.55282403819E+02  0.19413839401E+02 -0.31502370884E+03  0.32046071283E+03  0.47000000000E+01 0. -1.
        -13    1    6    6    0    0  0.19749089754E+01 -0.32990295877E+02 -0.29909770083E+03  0.30091808607E+03  0.00000000000E+00 0.  1.
         14    1    6    6    0    0  0.28739138335E+02 -0.54707051007E+01 -0.18720624140E+04  0.18722909893E+04  0.00000000000E+00 0. -1.
         -5    1    3    3    0  503 -0.58566330129E+01  0.22496226090E+02  0.33812363047E+01  0.23956274700E+02  0.47000000000E+01 0.  1.
         11    1    4    4    0    0 -0.33222467189E+02 -0.66586782062E+00 -0.41505350651E+02  0.53168316117E+02  0.00000000000E+00 0. -1.
        -12    1    4    4    0    0 -0.46917350928E+02 -0.27831966926E+01 -0.38339533153E+03  0.38626540648E+03  0.00000000000E+00 0.  1.
</event>
<event>
12    1  0.8133495E-002  0.2188597E+03  0.7818608E-02  0.1134758E+00
         21   -1    0    0  503  502  0.00000000000E+00  0.00000000000E+00  0.94306970364E+02  0.94306970364E+02  0.00000000000E+00 0. -1.
         21   -1    0    0  501  503 -0.00000000000E+00 -0.00000000000E+00 -0.84839185915E+03  0.84839185915E+03  0.00000000000E+00 0.  1.
          6    2    1    2  501    0  0.48046398544E+02  0.12625024925E+03 -0.67582439001E+03  0.71037889651E+03  0.17219752793E+03 0.  0.
         24    2    3    3    0    0  0.45462510216E+02  0.15690936389E+03 -0.62358149014E+03  0.64956715112E+03  0.79976375649E+02 0.  0.
         -6    2    1    2    0  502 -0.48046398544E+02 -0.12625024925E+03 -0.78260498775E+02  0.23231993300E+03  0.17204727186E+03 0.  0.
        -24    2    5    5    0    0 -0.10253121492E+02 -0.49578048513E+02  0.25571045357E+02  0.97746392839E+02  0.79607597361E+02 0.  0.
          5    1    3    3  501    0  0.25838883278E+01 -0.30659114646E+02 -0.52242899867E+02  0.60811745381E+02  0.47000000000E+01 0. -1.
        -11    1    4    4    0    0  0.20093800963E+02  0.10731064645E+02 -0.18879506179E+03  0.19016438137E+03  0.00000000000E+00 0.  1.
         12    1    4    4    0    0  0.25368709253E+02  0.14617829925E+03 -0.43478642835E+03  0.45940276975E+03  0.00000000000E+00 0. -1.
         -5    1    5    5    0  502 -0.37793277052E+02 -0.76672200735E+02 -0.10383154413E+03  0.13457354017E+03  0.47000000000E+01 0.  1.
         13    1    6    6    0    0 -0.21775147113E+02 -0.67765307711E+02  0.27099979212E+02  0.76162345252E+02  0.00000000000E+00 0. -1.
        -14    1    6    6    0    0  0.11522025621E+02  0.18187259197E+02 -0.15289338553E+01  0.21584047587E+02  0.00000000000E+00 0.  1.
</event>
<event>
12    1  0.8133495E-002  0.1920809E+03  0.7818608E-02  0.1158295E+00
         21   -1    0    0  503  502  0.00000000000E+00  0.00000000000E+00  0.36228838398E+03  0.36228838398E+03  0.00000000000E+00 0.  1.
         21   -1    0    0  501  503 -0.00000000000E+00 -0.00000000000E+00 -0.12475489448E+03  0.12475489448E+03  0.00000000000E+00 0.  1.
          6    2    1    2  501    0 -0.66778457618E+02 -0.22927256706E+02  0.76814337154E+01  0.19223438299E+03  0.17863379321E+03 0.  0.
         24    2    3    3    0    0 -0.10706192910E+03 -0.44726709608E+02  0.26264535279E+02  0.14258162994E+03  0.78593639474E+02 0.  0.
         -6    2    1    2    0  502  0.66778457618E+02  0.22927256706E+02  0.22985205579E+03  0.29480889547E+03  0.17057343227E+03 0.  0.
        -24    2    5    5    0    0  0.20947441900E+02  0.74483250410E+02  0.10851967696E+03  0.15515883768E+03  0.79443028072E+02 0.  0.
          5    1    3    3  501    0  0.40283471487E+02  0.21799452902E+02 -0.18583101563E+02  0.49652753051E+02  0.47000000000E+01 0. -1.
        -11    1    4    4    0    0 -0.77887299591E+02 -0.13041032939E+01 -0.10555032623E+02  0.78610055570E+02  0.00000000000E+00 0.  1.
         12    1    4    4    0    0 -0.29174629513E+02 -0.43422606315E+02  0.36819567902E+02  0.63971574366E+02  0.00000000000E+00 0. -1.
         -5    1    5    5    0  502  0.45831015718E+02 -0.51555993704E+02  0.12133237883E+03  0.13965005779E+03  0.47000000000E+01 0.  1.
         13    1    6    6    0    0  0.15526927208E+02  0.55473518810E+02  0.14936156808E+02  0.59510381765E+02  0.00000000000E+00 0. -1.
        -14    1    6    6    0    0  0.54205146912E+01  0.19009731600E+02  0.93583520152E+02  0.95648455916E+02  0.00000000000E+00 0.  1.
</event>
<event>
12    1  0.8133495E-002  0.2553841E+03  0.7818608E-02  0.1110808E+00
         21   -1    0    0  503  502  0.00000000000E+00  0.00000000000E+00  0.55934898478E+02  0.55934898478E+02  0.00000000000E+00 0. -1.
         21   -1    0    0  501  503 -0.00000000000E+00 -0.00000000000E+00 -0.12272263419E+04  0.12272263419E+04  0.00000000000E+00 0.  1.
          6    2    1    2  501    0 -0.11595797446E+03 -0.14101632367E+03 -0.40955028785E+03  0.47974936721E+03  0.17057597039E+03 0.  0.
         24    2    3    3    0    0  0.15631831130E+01 -0.94050313320E+02 -0.19609749365E+03  0.23155344872E+03  0.79466141332E+02 0.  0.
         -6    2    1    2    0  502  0.11595797446E+03  0.14101632367E+03 -0.76174115562E+03  0.80341187322E+03  0.17857545878E+03 0.  0.
        -24    2    5    5    0    0  0.15020828121E+03  0.13345183113E+03 -0.69632389353E+03  0.72903571280E+03  0.79083417048E+02 0.  0.
          5    1    3    3  501    0 -0.11752115757E+03 -0.46966010353E+02 -0.21345279420E+03  0.24819591849E+03  0.47000000000E+01 0. -1.
        -13    1    4    4    0    0 -0.20248143298E+02 -0.75209689602E+02 -0.18489564760E+03  0.20063121696E+03  0.00000000000E+00 0.  1.
         14    1    4    4    0    0  0.21811326411E+02 -0.18840623717E+02 -0.11201846055E+02  0.30922231758E+02  0.00000000000E+00 0. -1.
         -5    1    5    5    0  502 -0.34250306749E+02  0.75644925388E+01 -0.65417262085E+02  0.74376160418E+02  0.47000000000E+01 0.  1.
         13    1    6    6    0    0  0.14740244494E+03  0.99897724848E+02 -0.62961950872E+03  0.65431472700E+03  0.00000000000E+00 0. -1.
        -14    1    6    6    0    0  0.28058362723E+01  0.33554106285E+02 -0.66704384813E+02  0.74720985801E+02  0.00000000000E+00 0.  1.
</event>
<event>
12    1  0.8133495E-002  0.2966640E+03  0.7818608E-02  0.1086957E+00
         21   -1    0    0  501  502  0.00000000000E+00  0.00000000000E+00  0.23673172070E+03  0.23673172070E+03  0.00000000000E+00 0. -1.
         21   -1    0    0  502  503 -0.00000000000E+00 -0.00000000000E+00 -0.37185405488E+03  0.37185405488E+03  0.00000000000E+00 0. -1.
         -6    2    1    2    0  503 -0.73659428202E+02  0.23054113341E+03 -0.78202849923E+02  0.30679834305E+03  0.17156518296E+03 0.  0.
        -24    2    3    3    0    0 -0.93840770291E+02  0.20728306260E+03 -0.21341569838E+02  0.24196378745E+03  0.79489959282E+02 0.  0.
          6    2    1    2  501    0  0.73659428202E+02 -0.23054113341E+03 -0.56919484254E+02  0.30178743253E+03  0.17105818072E+03 0.  0.
         24    2    5    5    0    0 -0.10610845780E+02 -0.64305766212E+02 -0.54537994491E+02  0.11533787400E+03  0.77978270814E+02 0.  0.
          5    1    5    5  501    0  0.84270273981E+02 -0.16623536720E+03 -0.23814897634E+01  0.18644955854E+03  0.47000000000E+01 0. -1.
        -11    1    6    6    0    0  0.16166310782E+02  0.12063835160E+02 -0.63387216629E+01  0.21143914381E+02  0.00000000000E+00 0.  1.
         12    1    6    6    0    0 -0.26777156561E+02 -0.76369601372E+02 -0.48199272828E+02  0.94193959617E+02  0.00000000000E+00 0. -1.
         -5    1    3    3    0  503  0.20181342089E+02  0.23258070815E+02 -0.56861280085E+02  0.64834555597E+02  0.47000000000E+01 0.  1.
         11    1    4    4    0    0 -0.90238730346E+02  0.20144625756E+03 -0.37970131018E+02  0.22397623532E+03  0.00000000000E+00 0. -1.
        -12    1    4    4    0    0 -0.36020399453E+01  0.58368050404E+01  0.16628561180E+02  0.17987552134E+02  0.00000000000E+00 0.  1.
</event>
<event>
12    1  0.8133495E-002  0.2052086E+03  0.7818608E-02  0.1145632E+00
         21   -1    0    0  503  502  0.00000000000E+00  0.00000000000E+00  0.24875469631E+03  0.24875469631E+03  0.00000000000E+00 0. -1.
         21   -1    0    0  501  503 -0.00000000000E+00 -0.00000000000E+00 -0.21064939032E+03  0.21064939032E+03  0.00000000000E+00 0. -1.
          6    2    1    2  501    0 -0.91872044645E+02 -0.60878409502E+02 -0.83832958968E+02  0.22070029601E+03  0.17185459644E+03 0.  0.
         24    2    3    3    0    0 -0.65923636594E+02  0.19581995943E+02 -0.84412092750E+02  0.13602667484E+03  0.81538177807E+02 0.  0.
         -6    2    1    2    0  502  0.91872044645E+02  0.60878409502E+02  0.12193826496E+03  0.23870379062E+03  0.17310085460E+03 0.  0.
        -24    2    5    5    0    0  0.94494293131E+02  0.12201672076E+02  0.21274711127E+02  0.12675942040E+03  0.80853479150E+02 0.  0.
          5    1    3    3  501    0 -0.25948408052E+02 -0.80460405445E+02  0.57913378169E+00  0.84673621162E+02  0.47000000000E+01 0. -1.
        -11    1    4    4    0    0  0.65192796490E+01  0.99207377479E+01  0.10766015981E+02  0.16025889826E+02  0.00000000000E+00 0.  1.
         12    1    4    4    0    0 -0.72442916243E+02  0.96612581948E+01 -0.95178108731E+02  0.12000078502E+03  0.00000000000E+00 0. -1.
         -5    1    5    5    0  502 -0.26222484859E+01  0.48676737426E+02  0.10066355383E+03  0.11194437022E+03  0.47000000000E+01 0.  1.
         13    1    6    6    0    0  0.51553647590E+02  0.34038271134E+02  0.41595098540E+02  0.74475060955E+02  0.00000000000E+00 0. -1.
        -14    1    6    6    0    0  0.42940645541E+02 -0.21836599059E+02 -0.20320387413E+02  0.52284359445E+02  0.00000000000E+00 0.  1.
</event>
<event>
12    1  0.8133495E-002  0.1844237E+03  0.7818608E-02  0.1163678E+00
         21   -1    0    0  501  502  0.00000000000E+00  0.00000000000E+00  0.65989391201E+02  0.65989391201E+02  0.00000000000E+00 0.  1.
         21   -1    0    0  502  503 -0.00000000000E+00 -0.00000000000E+00 -0.10825699019E+04  0.10825699019E+04  0.00000000000E+00 0.  1.
         -6    2    1    2    0  503 -0.15362865346E+02 -0.65352439982E+02 -0.92459265136E+03  0.94280627152E+03  0.17177059010E+03 0.  0.
        -24    2    3    3    0    0  0.37217082633E+02 -0.85269371691E+02 -0.52144629719E+03  0.53573083873E+03  0.80282711252E+02 0.  0.
          6    2    1    2  501    0  0.15362865346E+02  0.65352439982E+02 -0.91987859366E+02  0.20575302161E+03  0.17136388356E+03 0.  0.
         24    2    5    5    0    0 -0.55681101401E+02  0.38252128583E+02 -0.75478660621E+02  0.12780229530E+03  0.77928095578E+02 0.  0.
          5    1    5    5  501    0  0.71043966747E+02  0.27100311399E+02 -0.16509198745E+02  0.77950726310E+02  0.47000000000E+01 0. -1.
        -11    1    6    6    0    0 -0.25742478518E+01 -0.11511349807E+02  0.10052229185E+02  0.15497910762E+02  0.00000000000E+00 0.  1.
         12    1    6    6    0    0 -0.53106853550E+02  0.49763478390E+02 -0.85530889806E+02  0.11230438454E+03  0.00000000000E+00 0. -1.
         -5    1    3    3    0  503 -0.52579947979E+02  0.19916931710E+02 -0.40314635417E+03  0.40707543279E+03  0.47000000000E+01 0.  1.
         11    1    4    4    0    0 -0.21633535964E+02 -0.28756117728E+02 -0.95810906021E+02  0.10234575662E+03  0.00000000000E+00 0. -1.
        -12    1    4    4    0    0  0.58850618597E+02 -0.56513253963E+02 -0.42563539117E+03  0.43338508211E+03  0.00000000000E+00 0.  1.
</event>
<event>
12    1  0.8133495E-002  0.2713340E+03  0.7818608E-02  0.1101024E+00
         21   -1    0    0  503  502  0.00000000000E+00  0.00000000000E+00  0.13835309330E+03  0.13835309330E+03  0.00000000000E+00 0.  1.
         21   -1    0    0  501  503 -0.00000000000E+00 -0.00000000000E+00 -0.57522692546E+03  0.57522692546E+03  0.00000000000E+00 0. -1.
          6    2    1    2  501    0 -0.16061037526E+02  0.20412271506E+03 -0.32231856086E+03  0.41905487842E+03  0.17260850710E+03 0.  0.
         24    2    3    3    0    0  0.31889842140E+02  0.38687503882E+02 -0.13152108319E+03  0.16196761027E+03  0.80137547166E+02 0.  0.
         -6    2    1    2    0  502  0.16061037526E+02 -0.20412271506E+03 -0.11455527130E+03  0.29452514034E+03  0.17803962587E+03 0.  0.
        -24    2    5    5    0    0  0.58327454376E+02 -0.47054428602E+02 -0.35192047796E+02  0.11347954429E+03  0.77607445258E+02 0.  0.
          5    1    3    3  501    0 -0.47950879666E+02  0.16543521118E+03 -0.19079747767E+03  0.25708726815E+03  0.47000000000E+01 0. -1.
        -11    1    4    4    0    0  0.41757300907E+02  0.56924572080E+02 -0.81538157713E+02  0.10785430102E+03  0.00000000000E+00 0.  1.
         12    1    4    4    0    0 -0.98674587668E+01 -0.18237068198E+02 -0.49982925475E+02  0.54113309250E+02  0.00000000000E+00 0. -1.
         -5    1    5    5    0  502 -0.42266416850E+02 -0.15706828646E+03 -0.79363223501E+02  0.18104559605E+03  0.47000000000E+01 0.  1.
         11    1    6    6    0    0  0.68962795637E+01 -0.44224236998E+02 -0.42176005800E+02  0.61499246134E+02  0.00000000000E+00 0. -1.
        -12    1    6    6    0    0  0.51431174813E+02 -0.28301916043E+01  0.69839580035E+01  0.51980298157E+02  0.00000000000E+00 0.  1.
</event>
<event>
12    1  0.8133495E-002  0.3327500E+03  0.7818608E-02  0.1070157E+00
         21   -1    0    0  501  502  0.00000000000E+00  0.00000000000E+00  0.71291404853E+03  0.71291404853E+03  0.00000000000E+00 0. -1.
         21   -1    0    0  502  503 -0.00000000000E+00 -0.00000000000E+00 -0.50402873596E+03  0.50402873596E+03  0.00000000000E+00 0.  1.
         -6    2    1    2    0  503 -0.81783832184E+02  0.26996664341E+03  0.61116677704E+03  0.69487672827E+03  0.17250580966E+03 0.  0.
        -24    2    3    3    0    0 -0.27791765014E+02  0.26163450372E+03  0.52742985454E+03  0.59478412086E+03  0.79755270776E+02 0.  0.
          6    2    1    2  501    0  0.81783832184E+02 -0.26996664341E+03 -0.40228146447E+03  0.52206605622E+03  0.17649931058E+03 0.  0.
         24    2    5    5    0    0 -0.27180468535E+02 -0.17802800648E+03 -0.25971439394E+03  0.32038960397E+03  0.52585006885E+02 0.  0.
          5    1    5    5  501    0  0.10896430072E+03 -0.91938636934E+02 -0.14256707053E+03  0.20167645225E+03  0.47000000000E+01 0. -1.
        -13    1    6    6    0    0 -0.14155915384E+02 -0.15815901129E+03 -0.24646097481E+03  0.29318539339E+03  0.00000000000E+00 0.  1.
         14    1    6    6    0    0 -0.13024553150E+02 -0.19868995185E+02 -0.13253419135E+02  0.27204210578E+02  0.00000000000E+00 0. -1.
         -5    1    3    3    0  503 -0.53992067170E+02  0.83321396915E+01  0.83736922496E+02  0.10009260741E+03  0.47000000000E+01 0.  1.
         13    1    4    4    0    0 -0.16794763710E+02  0.12763164596E+03  0.17248989445E+03  0.21523165386E+03  0.00000000000E+00 0. -1.
        -14    1    4    4    0    0 -0.10997001304E+02  0.13400285776E+03  0.35493996010E+03  0.37955246699E+03  0.00000000000E+00 0.  1.
</event>
<event>
12    1  0.8133495E-002  0.2403560E+03  0.7818608E-02  0.1119604E+00
         21   -1    0    0  501  502  0.00000000000E+00  0.00000000000E+00  0.84996182192E+02  0.84996182192E+02  0.00000000000E+00 0. -1.
         21   -1    0    0  502  503 -0.00000000000E+00 -0.00000000000E+00 -0.11105366953E+04  0.11105366953E+04  0.00000000000E+00 0. -1.
         -6    2    1    2    0  503 -0.51055835059E+02  0.16012990604E+03 -0.88564077868E+03  0.91767674833E+03  0.17182182767E+03 0.  0.
        -24    2    3    3    0    0 -0.86644042571E+02  0.81314578239E+02 -0.67250765605E+03  0.68761981109E+03  0.80219738295E+02 0.  0.
          6    2    1    2  501    0  0.51055835059E+02 -0.16012990604E+03 -0.13989973441E+03  0.27785612915E+03  0.17141705783E+03 0.  0.
         24    2    5    5    0    0  0.40495018795E+02 -0.17649236328E+03 -0.76808127962E+02  0.21166019535E+03  0.78173837876E+02 0.  0.
          5    1    5    5  501    0  0.10560816264E+02  0.16362457246E+02 -0.63091606453E+02  0.66195933803E+02  0.47000000000E+01 0. -1.
        -13    1    6    6    0    0  0.41753119926E+02 -0.99835658818E+02 -0.80548509784E+02  0.13490198006E+03  0.00000000000E+00 0.  1.
         14    1    6    6    0    0 -0.12581011308E+01 -0.76656704465E+02  0.37403818227E+01  0.76758215287E+02  0.00000000000E+00 0. -1.
         -5    1    3    3    0  503  0.35588207512E+02  0.78815327797E+02 -0.21313312263E+03  0.23005693724E+03  0.47000000000E+01 0.  1.
         11    1    4    4    0    0 -0.52467621783E+02  0.82103935441E+02 -0.59475897972E+03  0.60268744097E+03  0.00000000000E+00 0. -1.
        -12    1    4    4    0    0 -0.34176420789E+02 -0.78935720150E+00 -0.77748676335E+02  0.84932370122E+02  0.00000000000E+00 0.  1.
</event>
<event>
12    1  0.8133495E-002  0.2171714E+03  0.7818608E-02  0.1136153E+00
         21   -1    0    0  503  502  0.00000000000E+00  0.00000000000E+00  0.50853806492E+02  0.50853806492E+02  0.00000000000E+00 0. -1.
         21   -1    0    0  501  503 -0.00000000000E+00 -0.00000000000E+00 -0.10187571838E+04  0.10187571838E+04  0.00000000000E+00 0.  1.
          6    2    1    2  501    0 -0.66132698322E+02  0.11858698103E+03 -0.64765138087E+03  0.68309277434E+03  0.16949047572E+03 0.  0.
         24    2    3    3    0    0 -0.44564543089E+02  0.60475864199E+02 -0.17625529607E+03  0.20761570236E+03  0.79968880329E+02 0.  0.
         -6    2    1    2    0  502  0.66132698322E+02 -0.11858698103E+03 -0.32025199646E+03  0.38651821597E+03  0.16851879475E+03 0.  0.
        -24    2    5    5    0    0  0.80761085785E+02 -0.75803774131E+02 -0.11840435369E+03  0.17961496949E+03  0.77287651939E+02 0.  0.
          5    1    3    3  501    0 -0.21568155233E+02  0.58111116831E+02 -0.47139608480E+03  0.47547707198E+03  0.47000000000E+01 0. -1.
        -13    1    4    4    0    0  0.12082811299E+02  0.28135369527E+02 -0.11178480795E+03  0.11590270332E+03  0.00000000000E+00 0.  1.
         14    1    4    4    0    0 -0.56647354388E+02  0.32340494672E+02 -0.64470488118E+02  0.91712999040E+02  0.00000000000E+00 0. -1.
         -5    1    5    5    0  502 -0.14628387463E+02 -0.42783206900E+02 -0.20184764277E+03  0.20690324648E+03  0.47000000000E+01 0.  1.
         11    1    6    6    0    0  0.44781955538E+02 -0.61717443453E+02 -0.11857417118E+03  0.14097624069E+03  0.00000000000E+00 0. -1.
        -12    1    6    6    0    0  0.35979130247E+02 -0.14086330678E+02  0.16981748944E+00  0.38638728800E+02  0.00000000000E+00 0.  1.
</event>
<event>
12    1  0.8133495E-002  0.1947031E+03  0.7818608E-02  0.1154466E+00
         21   -1    0    0  503  502  0.00000000000E+00  0.00000000000E+00  0.86707823860E+03  0.86707823860E+03  0.00000000000E+00 0. -1.
         21   -1    0    0  501  503 -0.00000000000E+00 -0.00000000000E+00 -0.45127338204E+02  0.45127338204E+02  0.00000000000E+00 0.  1.
          6    2    1    2  501    0  0.40124902187E+02  0.80553891966E+02  0.32617903197E+03  0.37987112366E+03  0.17265680527E+03 0.  0.
         24    2    3    3    0    0  0.12881485689E+02  0.12058699354E+03  0.26529377118E+03  0.30193552238E+03  0.77955878316E+02 0.  0.
         -6    2    1    2    0  502 -0.40124902187E+02 -0.80553891966E+02  0.49577186843E+03  0.53233445315E+03  0.17173027455E+03 0.  0.
        -24    2    5    5    0    0 -0.85513401863E+02 -0.41716594076E+02  0.24590782217E+03  0.27538585280E+03  0.79460020116E+02 0.  0.
          5    1    3    3  501    0  0.27243416498E+02 -0.40033101579E+02  0.60885260792E+02  0.77935601276E+02  0.47000000000E+01 0. -1.
        -11    1    4    4    0    0  0.36159723243E+02  0.48505915035E+02  0.70317412086E+02  0.92762534576E+02  0.00000000000E+00 0.  1.
         12    1    4    4    0    0 -0.23278237554E+02  0.72081078509E+02  0.19497635909E+03  0.20917298780E+03  0.00000000000E+00 0. -1.
         -5    1    5    5    0  502  0.45388499676E+02 -0.38837297890E+02  0.24986404625E+03  0.25694860035E+03  0.47000000000E+01 0.  1.
         11    1    6    6    0    0 -0.30307318728E+02  0.23617823296E+02  0.77258831012E+02  0.86285932313E+02  0.00000000000E+00 0. -1.
        -12    1    6    6    0    0 -0.55206083135E+02 -0.65334417373E+02  0.16864899116E+03  0.18909992049E+03  0.00000000000E+00 0.  1.
</event>
<event>
12    1  0.8133495E-002  0.1841023E+03  0.7818608E-02  0.1164516E+00
         21   -1    0    0  501  502  0.00000000000E+00  0.00000000000E+00  0.18877309699E+03  0.18877309699E+03  0.00000000000E+00 0.  1.
         21   -1    0    0  502  503 -0.00000000000E+00 -0.00000000000E+00 -0.17703888878E+03  0.17703888878E+03  0.00000000000E+00 0.  1.
         -6    2    1    2    0  503 -0.61965753427E+02  0.18798146832E+02  0.92380300703E+01  0.18433389061E+03  0.17233837967E+03 0.  0.
        -24    2    3    3    0    0  0.70236303601E+01 -0.32681812350E+02  0.36032773503E+02  0.94057816548E+02  0.80194013776E+02 0.  0.
          6    2    1    2  501    0  0.61965753427E+02 -0.18798146832E+02  0.24961781429E+01  0.18147809515E+03  0.16951384366E+03 0.  0.
         24    2    5    5    0    0  0.90250389682E+02 -0.31644163500E+02  0.46144874102E+02  0.12769762052E+03  0.70928463682E+02 0.  0.
          5    1    5    5  501    0 -0.28284636256E+02  0.12846016668E+02 -0.43648695959E+02  0.53780474628E+02  0.47000000000E+01 0. -1.
        -11    1    6    6    0    0  0.68134047583E+02  0.52128271944E+01  0.55226663699E+01  0.68555976044E+02  0.00000000000E+00 0.  1.
         12    1    6    6    0    0  0.22116342099E+02 -0.36856990694E+02  0.40622207732E+02  0.59141644481E+02  0.00000000000E+00 0. -1.
         -5    1    3    3    0  503 -0.68989383787E+02  0.51479959182E+02 -0.26794743433E+02  0.90276074063E+02  0.47000000000E+01 0.  1.
         11    1    4    4    0    0  0.37902552109E+02 -0.13131723495E+02 -0.34442644859E+01  0.40260508891E+02  0.00000000000E+00 0. -1.
        -12    1    4    4    0    0 -0.30878921749E+02 -0.19550088855E+02  0.39477037989E+02  0.53797307656E+02  0.00000000000E+00 0.  1.
</event>
<event>
12    1  0.8133495E-002  0.1860759E+03  0.7818608E-02  0.1163201E+00
         21   -1    0    0  501  502  0.00000000000E+00  0.00000000000E+00  0.23168117786E+03  0.23168117786E+03  0.00000000000E+00 0. -1.
         21   -1    0    0  502  503 -0.00000000000E+00 -0.00000000000E+00 -0.15608113976E+03  0.15608113976E+03  0.00000000000E+00 0. -1.
         -6    2    1    2    0  503  0.56268016833E+02  0.24240113714E+02 -0.13058808744E+02  0.18164430937E+03  0.17050058595E+03 0.  0.
        -24    2    3    3    0    0  0.26763939144E+02  0.36726710923E+02  0.54931986852E+02  0.10633664711E+03  0.78897399227E+02 0.  0.
          6    2    1    2  501    0 -0.56268016833E+02 -0.24240113714E+02  0.88658846840E+02  0.20611800825E+03  0.17570022587E+03 0.  0.
         24    2    5    5    0    0 -0.11203640557E+02 -0.79936084596E+02  0.52782244941E+02  0.12585556532E+03  0.80860118463E+02 0.  0.
          5    1    5    5  501    0 -0.45064376276E+02  0.55695970882E+02  0.35876601900E+02  0.80262442933E+02  0.47000000000E+01 0. -1.
        -11    1    6    6    0    0  0.12823221798E+02  0.13011100823E+01  0.37654872752E+02  0.39799715410E+02  0.00000000000E+00 0.  1.
         12    1    6    6    0    0 -0.24026862356E+02 -0.81237194678E+02  0.15127372189E+02  0.86055849907E+02  0.00000000000E+00 0. -1.
         -5    1    3    3    0  503  0.29504077690E+02 -0.12486597210E+02 -0.67990795596E+02  0.75307662266E+02  0.47000000000E+01 0.  1.
         13    1    4    4    0    0  0.53578795764E+02  0.28221629494E+02  0.25753484027E+02  0.65805696306E+02  0.00000000000E+00 0. -1.
        -14    1    4    4    0    0 -0.26814856621E+02  0.85050814297E+01  0.29178502825E+02  0.40530950801E+02  0.00000000000E+00 0.  1.
</event>
<event>
12    1  0.8133495E-002  0.1834761E+03  0.7818608E-02  0.1164653E+00
         21   -1    0    0  501  502  0.00000000000E+00  0.00000000000E+00  0.31525386861E+03  0.31525386861E+03  0.00000000000E+00 0. -1.
         21   -1    0    0  502  503 -0.00000000000E+00 -0.00000000000E+00 -0.17393671275E+03  0.17393671275E+03  0.00000000000E+00 0. -1.
         -6    2    1    2    0  503  0.47228751797E+02  0.38858025157E+02 -0.81716417242E+02  0.20085084690E+03  0.17298262554E+03 0.  0.
        -24    2    3    3    0    0  0.68080288781E+02  0.77094114905E+02 -0.56162760231E+02  0.15013729308E+03  0.93853731223E+02 0.  0.
          6    2    1    2  501    0 -0.47228751797E+02 -0.38858025157E+02  0.22303357310E+03  0.28833973447E+03  0.17220722002E+03 0.  0.
         24    2    5    5    0    0  0.15563067519E+02 -0.66386850387E+02  0.86354372095E+02  0.13535626222E+03  0.78834111706E+02 0.  0.
          5    1    5    5  501    0 -0.62791819316E+02  0.27528825230E+02  0.13667920101E+03  0.15298347224E+03  0.47000000000E+01 0. -1.
        -11    1    6    6    0    0 -0.75918324739E+01  0.92054693384E+00 -0.11829313964E+02  0.14086021292E+02  0.00000000000E+00 0.  1.
         12    1    6    6    0    0  0.23154899993E+02 -0.67307397321E+02  0.98183686059E+02  0.12127024093E+03  0.00000000000E+00 0. -1.
         -5    1    3    3    0  503 -0.20851536985E+02 -0.38236089747E+02 -0.25553657011E+02  0.50713553814E+02  0.47000000000E+01 0.  1.
         11    1    4    4    0    0 -0.37572889433E+01 -0.12228252243E+02 -0.29927999734E+02  0.32547389161E+02  0.00000000000E+00 0. -1.
        -12    1    4    4    0    0  0.71837577725E+02  0.89322367148E+02 -0.26234760497E+02  0.11758990392E+03  0.00000000000E+00 0.  1.
</event>
<event>
12    1  0.8133495E-002  0.2107334E+03  0.7818608E-02  0.1141457E+00
         21   -1    0    0  503  502  0.00000000000E+00  0.00000000000E+00  0.56347449802E+03  0.56347449802E+03  0.00000000000E+00 0. -1.
         21   -1    0    0  501  503 -0.00000000000E+00 -0.00000000000E+00 -0.81166055846E+02  0.81166055846E+02  0.00000000000E+00 0.  1.
          6    2    1    2  501    0 -0.11736152935E+03  0.13022820456E+02  0.17807252775E+03  0.27589564186E+03  0.17454299652E+03 0.  0.
         24    2    3    3    0    0 -0.60128424054E+02  0.74416861430E+02  0.12223451631E+03  0.17497572247E+03  0.80758465998E+02 0.  0.
         -6    2    1    2    0  502  0.11736152935E+03 -0.13022820456E+02  0.30423591443E+03  0.36874491201E+03  0.17166827337E+03 0.  0.
        -24    2    5    5    0    0  0.93422215687E+02 -0.69634159450E+02  0.16929053575E+03  0.22038629356E+03  0.79587727375E+02 0.  0.
          5    1    3    3  501    0 -0.57233105297E+02 -0.61394040975E+02  0.55838011436E+02  0.10091991939E+03  0.47000000000E+01 0. -1.
        -11    1    4    4    0    0 -0.21789570831E+02  0.98211584621E+01 -0.75122423528E+01  0.25053429619E+02  0.00000000000E+00 0.  1.
         12    1    4    4    0    0 -0.38338853223E+02  0.64595702968E+02  0.12974675867E+03  0.14992229285E+03  0.00000000000E+00 0. -1.
         -5    1    5    5    0  502  0.23939313664E+02  0.56611338995E+02  0.13494537867E+03  0.14835861844E+03  0.47000000000E+01 0.  1.
         11    1    6    6    0    0  0.26291031479E+02 -0.68658356055E+02  0.97221240501E+02  0.12188994133E+03  0.00000000000E+00 0. -1.
        -12    1    6    6    0    0  0.67131184208E+02 -0.97580339524E+00  0.72069295251E+02  0.98496352234E+02  0.00000000000E+00 0.  1.
</event>
<event>
12    1  0.8133495E-002  0.2575294E+03  0.7818608E-02  0.1108650E+00
         21   -1    0    0  503  502  0.00000000000E+00  0.00000000000E+00  0.61239045622E+03  0.61239045622E+03  0.00000000000E+00 0. -1.
         21   -1    0    0  501  503 -0.00000000000E+00 -0.00000000000E+00 -0.11411570219E+03  0.11411570219E+03  0.00000000000E+00 0.  1.
          6    2    1    2  501    0 -0.19057353168E+03  0.17843580129E+02  0.33137208947E+03  0.41962195622E+03  0.17215824156E+03 0.  0.
         24    2    3    3    0    0 -0.63503222162E+02 -0.20499551007E+02  0.23234005948E+03  0.25395212726E+03  0.77826016736E+02 0.  0.
         -6    2    1    2    0  502  0.19057353168E+03 -0.17843580129E+02  0.16690266456E+03  0.30688420219E+03  0.17229262837E+03 0.  0.
        -24    2    5    5    0    0  0.99066109209E+02  0.22791807191E+01  0.17052203168E+03  0.21300276798E+03  0.80455746965E+02 0.  0.
          5    1    3    3  501    0 -0.12707030952E+03  0.38343131136E+02  0.99032029986E+02  0.16566982897E+03  0.47000000000E+01 0. -1.
        -13    1    4    4    0    0 -0.47828803888E+02 -0.36385731031E+02  0.80377967749E+02  0.10036001995E+03  0.00000000000E+00 0.  1.
         14    1    4    4    0    0 -0.15674418273E+02  0.15886180023E+02  0.15196209173E+03  0.15359210731E+03  0.00000000000E+00 0. -1.
         -5    1    5    5    0  502  0.91507422472E+02 -0.20122760848E+02 -0.36193671218E+01  0.93881434213E+02  0.47000000000E+01 0.  1.
         11    1    6    6    0    0  0.11160777244E+03  0.28821803345E+01  0.13418316446E+03  0.17455578896E+03  0.00000000000E+00 0. -1.
        -12    1    6    6    0    0 -0.12541663235E+02 -0.60299961539E+00  0.36338867216E+02  0.38446979020E+02  0.00000000000E+00 0.  1.
</event>
<event>
12    1  0.8133495E-002  0.2011157E+03  0.7818608E-02  0.1149857E+00
         21   -1    0    0  503  502  0.00000000000E+00  0.00000000000E+00  0.11483315087E+03  0.11483315087E+03  0.00000000000E+00 0.  1.
         21   -1    0    0  501  503 -0.00000000000E+00 -0.00000000000E+00 -0.34404843049E+03  0.34404843049E+03  0.00000000000E+00 0.  1.
          6    2    1    2  501    0  0.80230561611E+01  0.95675338364E+02 -0.12176505881E+03  0.23086169433E+03  0.17103289906E+03 0.  0.
         24    2    3    3    0    0 -0.38877762245E+02  0.87996099329E+02 -0.30862063204E+02  0.12817721600E+03  0.78880529050E+02 0.  0.
         -6    2    1    2    0  502 -0.80230561611E+01 -0.95675338364E+02 -0.10745022081E+03  0.22801988703E+03  0.17671836104E+03 0.  0.
        -24    2    5    5    0    0 -0.23671060388E+02 -0.19318106548E+02  0.10100443233E+02  0.86897473845E+02  0.80719537081E+02 0.  0.
          5    1    3    3  501    0  0.46900818406E+02  0.76792390349E+01 -0.90902995608E+02  0.10268447833E+03  0.47000000000E+01 0. -1.
        -11    1    4    4    0    0  0.52694409239E+01  0.44476410140E+02  0.18970685278E+02  0.48639541183E+02  0.00000000000E+00 0.  1.
         12    1    4    4    0    0 -0.44147203169E+02  0.43519689189E+02 -0.49832748481E+02  0.79537674821E+02  0.00000000000E+00 0. -1.
         -5    1    5    5    0  502  0.15648004226E+02 -0.76357231816E+02 -0.11755066404E+03  0.14112241319E+03  0.47000000000E+01 0.  1.
         13    1    6    6    0    0 -0.13035121044E+02 -0.47386055900E+01 -0.35361657081E+02  0.37984412002E+02  0.00000000000E+00 0. -1.
        -14    1    6    6    0    0 -0.10635939343E+02 -0.14579500958E+02  0.45462100314E+02  0.48913061843E+02  0.00000000000E+00 0.  1.
</event>
<event>
12    1  0.8133495E-002  0.1931734E+03  0.7818608E-02  0.1158524E+00
         21   -1    0    0  501  502  0.00000000000E+00  0.00000000000E+00  0.70985428709E+03  0.70985428709E+03  0.00000000000E+00 0.  1.
         21   -1    0    0  502  503 -0.00000000000E+00 -0.00000000000E+00 -0.60878892002E+02  0.60878892002E+02  0.00000000000E+00 0. -1.
         -6    2    1    2    0  503 -0.18162578314E+02  0.85908958904E+02  0.48444839106E+03  0.51699101401E+03  0.15773153298E+03 0.  0.
        -24    2    3    3    0    0 -0.26123197423E+01  0.88144530981E+02  0.20048626489E+03  0.23255580624E+03  0.78174024124E+02 0.  0.
          6    2    1    2  501    0  0.18162578314E+02 -0.85908958904E+02  0.16452700402E+03  0.25374216508E+03  0.17206313613E+03 0.  0.
         24    2    5    5    0    0  0.70234022556E+02 -0.53407425733E+02  0.63400571440E+02  0.13535115895E+03  0.80716372088E+02 0.  0.
          5    1    5    5  501    0 -0.52071444243E+02 -0.32501533170E+02  0.10112643258E+03  0.11839100612E+03  0.47000000000E+01 0. -1.
        -13    1    6    6    0    0  0.45006629538E+02 -0.36519114585E+02  0.81499479730E+02  0.10000703790E+03  0.00000000000E+00 0.  1.
         14    1    6    6    0    0  0.25227393019E+02 -0.16888311149E+02 -0.18098908290E+02  0.35344121057E+02  0.00000000000E+00 0. -1.
         -5    1    3    3    0  503 -0.15550258571E+02 -0.22355720768E+01  0.28396212617E+03  0.28443520778E+03  0.47000000000E+01 0. -1.
         13    1    4    4    0    0 -0.25544120389E+02  0.19420306782E+02  0.19357066613E+02  0.37474610469E+02  0.00000000000E+00 0. -1.
        -14    1    4    4    0    0  0.22931800647E+02  0.68724224199E+02  0.18112919828E+03  0.19508119577E+03  0.00000000000E+00 0.  1.
</event>
<event>
12    1  0.8133495E-002  0.1911415E+03  0.7818608E-02  0.1157653E+00
         21   -1    0    0  503  502  0.00000000000E+00  0.00000000000E+00  0.43992804776E+02  0.43992804776E+02  0.00000000000E+00 0. -1.
         21   -1    0    0  501  503 -0.00000000000E+00 -0.00000000000E+00 -0.88846490383E+03  0.88846490383E+03  0.00000000000E+00 0. -1.
          6    2    1    2  501    0 -0.84171777279E+02  0.12222472038E+02 -0.54658542675E+03  0.57904292895E+03  0.17117478762E+03 0.  0.
         24    2    3    3    0    0 -0.10546381626E+03  0.42472916825E+02 -0.50221079134E+03  0.52108053940E+03  0.79891704233E+02 0.  0.
         -6    2    1    2    0  502  0.84171777279E+02 -0.12222472038E+02 -0.29788667230E+03  0.35341477966E+03  0.17009191642E+03 0.  0.
        -24    2    5    5    0    0  0.26452989469E+02  0.55832158906E+02 -0.16484823192E+03  0.19315184608E+03  0.79471412827E+02 0.  0.
          5    1    3    3  501    0  0.21292038981E+02 -0.30250444787E+02 -0.44374635416E+02  0.57962389548E+02  0.47000000000E+01 0. -1.
        -11    1    4    4    0    0 -0.64665754507E+01  0.35845792149E+02 -0.89878023994E+02  0.96978330620E+02  0.00000000000E+00 0.  1.
         12    1    4    4    0    0 -0.98997240809E+02  0.66271246758E+01 -0.41233276734E+03  0.42410220878E+03  0.00000000000E+00 0. -1.
         -5    1    5    5    0  502  0.57718787810E+02 -0.68054630944E+02 -0.13303844038E+03  0.16026293357E+03  0.47000000000E+01 0.  1.
         11    1    6    6    0    0 -0.19157603563E+02  0.25311397386E+02 -0.18246088181E+02  0.36614209616E+02  0.00000000000E+00 0. -1.
        -12    1    6    6    0    0  0.45610593032E+02  0.30520761520E+02 -0.14660214374E+03  0.15653763647E+03  0.00000000000E+00 0.  1.
</event>
<event>
12    1  0.8133495E-002  0.1995804E+03  0.7818608E-02  0.1150527E+00
         21   -1    0    0  501  502  0.00000000000E+00  0.00000000000E+00  0.94113346257E+03  0.94113346257E+03  0.00000000000E+00 0. -1.
         21   -1    0    0  502  503 -0.00000000000E+00 -0.00000000000E+00 -0.54659371088E+02  0.54659371088E+02  0.00000000000E+00 0. -1.
         -6    2    1    2    0  503 -0.96210363383E+02  0.19351083967E+01  0.20435371730E+03  0.28564446593E+03  0.17484890757E+03 0.  0.
        -24    2    3    3    0    0 -0.71106640313E+02 -0.56785173966E+02  0.74889485543E+02  0.14120989328E+03  0.77788743637E+02 0.  0.
          6    2    1    2  501    0  0.96210363383E+02 -0.19351083967E+01  0.68212037418E+03  0.71014836772E+03  0.17251759516E+03 0.  0.
         24    2    5    5    0    0  0.13970059157E+02 -0.54945843552E+02  0.40362685368E+03  0.41492923447E+03  0.77700864381E+02 0.  0.
          5    1    5    5  501    0  0.82240304226E+02  0.53010735155E+02  0.27849352050E+03  0.29521913326E+03  0.47000000000E+01 0. -1.
        -13    1    6    6    0    0 -0.12256246360E+02 -0.43637078495E+02  0.98037712669E+02  0.10800834829E+03  0.00000000000E+00 0.  1.
         14    1    6    6    0    0  0.26226305517E+02 -0.11308765057E+02  0.30558914101E+03  0.30692088618E+03  0.00000000000E+00 0. -1.
         -5    1    3    3    0  503 -0.25103723070E+02  0.58720282363E+02  0.12946423176E+03  0.14443457265E+03  0.47000000000E+01 0.  1.
         11    1    4    4    0    0 -0.42206297371E+02 -0.49809467248E+02  0.87284090283E+02  0.10899938982E+03  0.00000000000E+00 0. -1.
        -12    1    4    4    0    0 -0.28900342942E+02 -0.69757067183E+01 -0.12394604740E+02  0.32210503458E+02  0.00000000000E+00 0.  1.
</event>
<event>
12    1  0.8133495E-002  0.1951085E+03  0.7818608E-02  0.1156046E+00
         21   -1    0    0  503  502  0.00000000000E+00  0.00000000000E+00  0.17051030941E+03  0.17051030941E+03  0.00000000000E+00 0. -1.
         21   -1    0    0  501  503 -0.00000000000E+00 -0.00000000000E+00 -0.34465585726E+03  0.34465585726E+03  0.00000000000E+00 0. -1.
          6    2    1    2  501    0  0.21458752431E+02 -0.68476229061E+02 -0.24783139710E+03  0.31541674744E+03  0.18143277316E+03 0.  0.
         24    2    3    3    0    0  0.76953758225E+02 -0.30432905636E+01 -0.12068630904E+03  0.16195949435E+03  0.75726812288E+02 0.  0.
         -6    2    1    2    0  502 -0.21458752431E+02  0.68476229061E+02  0.73685849244E+02  0.19974941923E+03  0.17123304033E+03 0.  0.
        -24    2    5    5    0    0  0.44566952673E+02  0.66709261455E+00  0.49437771163E+02  0.10193565736E+03  0.77201857111E+02 0.  0.
          5    1    3    3  501    0 -0.55495005794E+02 -0.65432938497E+02 -0.12714508806E+03  0.15345725309E+03  0.47000000000E+01 0. -1.
        -11    1    4    4    0    0  0.43139438036E+02  0.35881189256E+02 -0.56503176092E+02  0.79630897050E+02  0.00000000000E+00 0.  1.
         12    1    4    4    0    0  0.33814320190E+02 -0.38924479819E+02 -0.64183132946E+02  0.82328597303E+02  0.00000000000E+00 0. -1.
         -5    1    5    5    0  502 -0.66025705104E+02  0.67809136446E+02  0.24248078081E+02  0.97813761868E+02  0.47000000000E+01 0.  1.
         13    1    6    6    0    0  0.29526349427E+02  0.35179076642E+02  0.44528358466E+02  0.63969894885E+02  0.00000000000E+00 0. -1.
        -14    1    6    6    0    0  0.15040603246E+02 -0.34511984028E+02  0.49094126965E+01  0.37965762478E+02  0.00000000000E+00 0.  1.
</event>
<event>
12    1  0.8133495E-002  0.1752397E+03  0.7818608E-02  0.1173838E+00
         21   -1    0    0  503  502  0.00000000000E+00  0.00000000000E+00  0.35339276445E+02  0.35339276445E+02  0.00000000000E+00 0.  1.
         21   -1    0    0  501  503 -0.00000000000E+00 -0.00000000000E+00 -0.84731052230E+03  0.84731052230E+03  0.00000000000E+00 0.  1.
          6    2    1    2  501    0  0.27878794985E+02 -0.19456482458E+02 -0.43144191295E+03  0.46370884917E+03  0.16651723822E+03 0.  0.
         24    2    3    3    0    0  0.52259586852E+01 -0.72667610299E+02 -0.23044826623E+03  0.25450772312E+03  0.79748890193E+02 0.  0.
         -6    2    1    2    0  502 -0.27878794985E+02  0.19456482458E+02 -0.38052933290E+03  0.41894094958E+03  0.17191033742E+03 0.  0.
        -24    2    5    5    0    0  0.43260888893E+02 -0.17663992494E+02 -0.20207697781E+03  0.22322146326E+03  0.82517849972E+02 0.  0.
          5    1    3    3  501    0  0.22652836300E+02  0.53211127841E+02 -0.20099364672E+03  0.20920112605E+03  0.47000000000E+01 0. -1.
        -11    1    4    4    0    0 -0.84503645919E+01 -0.36920200990E+02 -0.20517626186E+03  0.20864277686E+03  0.00000000000E+00 0.  1.
         12    1    4    4    0    0  0.13676323277E+02 -0.35747409309E+02 -0.25272004369E+02  0.45864946261E+02  0.00000000000E+00 0. -1.
         -5    1    5    5    0  502 -0.71139683878E+02  0.37120474952E+02 -0.17845235510E+03  0.19571948631E+03  0.47000000000E+01 0.  1.
         11    1    6    6    0    0  0.43033149584E+01 -0.42567466755E+02 -0.59149584051E+02  0.73001239983E+02  0.00000000000E+00 0. -1.
        -12    1    6    6    0    0  0.38957573935E+02  0.24903474262E+02 -0.14292739375E+03  0.15022022328E+03  0.00000000000E+00 0.  1.
</event>
<event>
12    1  0.8133495E-002  0.2272287E+03  0.7818608E-02  0.1128623E+00
         21   -1    0    0  503  502  0.00000000000E+00  0.00000000000E+00  0.29379726727E+03  0.29379726727E+03  0.00000000000E+00 0.  1.
         21   -1    0    0  501  503 -0.00000000000E+00 -0.00000000000E+00 -0.18002604178E+03  0.18002604178E+03  0.00000000000E+00 0.  1.
          6    2    1    2  501    0 -0.10037891054E+03  0.10945059877E+03  0.20020229243E+02  0.22801413360E+03  0.17185539355E+03 0.  0.
         24    2    3    3    0    0 -0.31315690506E+02  0.84306876713E+02 -0.46836087355E+02  0.12854659021E+03  0.79008131493E+02 0.  0.
         -6    2    1    2    0  502  0.10037891054E+03 -0.10945059877E+03  0.93750996248E+02  0.24580917545E+03  0.17198122625E+03 0.  0.
        -24    2    5    5    0    0  0.58629470281E+02 -0.34587353715E+02  0.11702206770E+03  0.15686450732E+03  0.79237677308E+02 0.  0.
          5    1    3    3  501    0 -0.69063220033E+02  0.25143722061E+02  0.66856316597E+02  0.99467543396E+02  0.47000000000E+01 0. -1.
        -13    1    4    4    0    0 -0.53870134450E+02  0.33663548555E+02 -0.17830437096E+02  0.65978408392E+02  0.00000000000E+00 0.  1.
         14    1    4    4    0    0  0.22554443944E+02  0.50643328158E+02 -0.29005650259E+02  0.62568181814E+02  0.00000000000E+00 0. -1.
         -5    1    5    5    0  502  0.41749440257E+02 -0.74863245059E+02 -0.23271071449E+02  0.88944668131E+02  0.47000000000E+01 0.  1.
         11    1    6    6    0    0  0.70065239205E+01  0.13403904193E+01 -0.11640314522E+02  0.13652287211E+02  0.00000000000E+00 0. -1.
        -12    1    6    6    0    0  0.51622946360E+02 -0.35927744134E+02  0.12866238222E+03  0.14321222011E+03  0.00000000000E+00 0.  1.
</event>
<event>
12    1  0.8133495E-002  0.1859677E+03  0.7818608E-02  0.1163388E+00
         21   -1    0    0  501  502  0.00000000000E+00  0.00000000000E+00  0.14908038668E+04  0.14908038668E+04  0.00000000000E+00 0.  1.
         21   -1    0    0  502  503 -0.00000000000E+00 -0.00000000000E+00 -0.23950097634E+02  0.23950097634E+02  0.00000000000E+00 0. -1.
         -6    2    1    2    0  503  0.85181970628E+01  0.68496495663E+02  0.54018763825E+03  0.56961159326E+03  0.16700405104E+03 0.  0.
        -24    2    3    3    0    0 -0.55448972034E+02  0.16032853285E+02  0.27254258460E+03  0.28943272676E+03  0.78486954417E+02 0.  0.
          6    2    1    2  501    0 -0.85181970628E+01 -0.68496495663E+02  0.92666613088E+03  0.94514237114E+03  0.17268368189E+03 0.  0.
         24    2    5    5    0    0  0.56986565855E+02 -0.55508860040E+02  0.44534839743E+03  0.45919134152E+03  0.78694287004E+02 0.  0.
          5    1    5    5  501    0 -0.65504762918E+02 -0.12987635624E+02  0.48131773346E+03  0.48595102961E+03  0.47000000000E+01 0. -1.
        -11    1    6    6    0    0  0.58927635140E+02 -0.47166257624E+01  0.28147913667E+03  0.28761991781E+03  0.00000000000E+00 0.  1.
         12    1    6    6    0    0 -0.19410692844E+01 -0.50792234277E+02  0.16386926076E+03  0.17157142371E+03  0.00000000000E+00 0. -1.
         -5    1    3    3    0  503  0.63967169097E+02  0.52463642378E+02  0.26764505364E+03  0.28017886650E+03  0.47000000000E+01 0.  1.
         13    1    4    4    0    0  0.16804620969E+02  0.11088890597E+02  0.10491292312E+03  0.10682733834E+03  0.00000000000E+00 0. -1.
        -14    1    4    4    0    0 -0.72253593003E+02  0.49439626876E+01  0.16762966148E+03  0.18260538842E+03  0.00000000000E+00 0.  1.
</event>
<event>
12    1  0.8133495E-002  0.2288275E+03  0.7818608E-02  0.1127500E+00
         21   -1    0    0  503  502  0.00000000000E+00  0.00000000000E+00  0.91083525005E+03  0.91083525005E+03  0.00000000000E+00 0. -1.
         21   -1    0    0  501  503 -0.00000000000E+00 -0.00000000000E+00 -0.77582083176E+02  0.77582083176E+02  0.00000000000E+00 0.  1.
          6    2    1    2  501    0 -0.56864481834E+01  0.15069033990E+03  0.16469908256E+03  0.28178689620E+03  0.17186667169E+03 0.  0.
         24    2    3    3    0    0 -0.40833933366E+02  0.20852216307E+02  0.49409435422E+02  0.10456647753E+03  0.79941421527E+02 0.  0.
         -6    2    1    2    0  502  0.56864481834E+01 -0.15069033990E+03  0.66855408432E+03  0.70663043703E+03  0.17211071045E+03 0.  0.
        -24    2    5    5    0    0 -0.12710460229E+02 -0.99923275696E+02  0.62155443781E+03  0.63488925068E+03  0.81290987469E+02 0.  0.
          5    1    3    3  501    0  0.35147485183E+02  0.12983812360E+03  0.11528964714E+03  0.17722041866E+03  0.47000000000E+01 0. -1.
        -13    1    4    4    0    0 -0.29367194035E+02  0.44581360825E+02  0.59161589259E+01  0.53711551411E+02  0.00000000000E+00 0.  1.
         14    1    4    4    0    0 -0.11466739331E+02 -0.23729144519E+02  0.43493276496E+02  0.50854926122E+02  0.00000000000E+00 0. -1.
         -5    1    5    5    0  502  0.18396908412E+02 -0.50767064209E+02  0.46999646507E+02  0.71741186353E+02  0.47000000000E+01 0.  1.
         13    1    6    6    0    0 -0.11590023963E+02  0.12158505760E+02  0.10282607302E+03  0.10418905514E+03  0.00000000000E+00 0. -1.
        -14    1    6    6    0    0 -0.11204362655E+01 -0.11208178146E+03  0.51872836479E+03  0.53070019554E+03  0.00000000000E+00 0.  1.
</event>
<event>
12    1  0.8133495E-002  0.3111217E+03  0.7818608E-02  0.1079919E+00
         21   -1    0    0  503  502  0.00000000000E+00  0.00000000000E+00  0.64649175547E+03  0.64649175547E+03  0.00000000000E+00 0. -1.
         21   -1    0    0  501  503 -0.00000000000E+00 -0.00000000000E+00 -0.15135542372E+03  0.15135542372E+03  0.00000000000E+00 0.  1.
          6    2    1    2  501    0 -0.56781634403E+02  0.25128949095E+03  0.20056879256E+03  0.36940029109E+03  0.17279517423E+03 0.  0.
         24    2    3    3    0    0  0.29782493951E+00  0.78149125964E+02  0.12642384993E+02  0.10753376912E+03  0.72775730936E+02 0.  0.
         -6    2    1    2    0  502  0.56781634403E+02 -0.25128949095E+03  0.29456753918E+03  0.42844688811E+03  0.17443089898E+03 0.  0.
        -24    2    5    5    0    0  0.72543475383E+02 -0.78968254126E+02  0.16490257611E+03  0.21216434850E+03  0.79512956070E+02 0.  0.
          5    1    3    3  501    0 -0.57079459342E+02  0.17314036499E+03  0.18792640757E+03  0.26186652197E+03  0.47000000000E+01 0. -1.
        -13    1    4    4    0    0 -0.44172478214E+00  0.55534349197E+02  0.42598826985E+02  0.69992279017E+02  0.00000000000E+00 0.  1.
         14    1    4    4    0    0  0.73954972165E+00  0.22614776767E+02 -0.29956441992E+02  0.37541490098E+02  0.00000000000E+00 0. -1.
         -5    1    5    5    0  502 -0.15761840981E+02 -0.17232123683E+03  0.12966496307E+03  0.21628253961E+03  0.47000000000E+01 0.  1.
         13    1    6    6    0    0  0.73257617720E+02 -0.43500395717E+02  0.68116410333E+02  0.10908165904E+03  0.00000000000E+00 0. -1.
        -14    1    6    6    0    0 -0.71414233639E+00 -0.35467858408E+02  0.96786165782E+02  0.10308268946E+03  0.00000000000E+00 0.  1.
</event>
<event>
12    1  0.8133495E-002  0.1917675E+03  0.7818608E-02  0.1157170E+00
         21   -1    0    0  501  502  0.00000000000E+00  0.00000000000E+00  0.19482820524E+03  0.19482820524E+03  0.00000000000E+00 0. -1.
         21   -1    0    0  502  503 -0.00000000000E+00 -0.00000000000E+00 -0.18824073563E+03  0.18824073563E+03  0.00000000000E+00 0. -1.
         -6    2    1    2    0  503  0.56767375982E+02 -0.62519081938E+02  0.15585716708E+02  0.19109040078E+03  0.17070868789E+03 0.  0.
        -24    2    3    3    0    0  0.94155610856E+02 -0.75237706041E+02 -0.81528728834E+01  0.14477351248E+03  0.79792913927E+02 0.  0.
          6    2    1    2  501    0 -0.56767375982E+02  0.62519081938E+02 -0.89982470920E+01  0.19197854009E+03  0.17217322911E+03 0.  0.
         24    2    5    5    0    0 -0.43645035282E+02 -0.29171217510E+02 -0.24244994654E+02  0.97989922961E+02  0.79109773102E+02 0.  0.
          5    1    5    5  501    0 -0.13122340700E+02  0.91690299448E+02  0.15246747562E+02  0.93988617128E+02  0.47000000000E+01 0. -1.
        -11    1    6    6    0    0  0.21132690304E+02 -0.20726415214E+02 -0.84221552968E+01  0.30775113110E+02  0.00000000000E+00 0.  1.
         12    1    6    6    0    0 -0.64777725586E+02 -0.84448022954E+01 -0.15822839357E+02  0.67214809850E+02  0.00000000000E+00 0. -1.
         -5    1    3    3    0  503 -0.37388234874E+02  0.12718624103E+02  0.23738589592E+02  0.46316888301E+02  0.47000000000E+01 0.  1.
         13    1    4    4    0    0  0.36612085339E+02 -0.67363044005E+01  0.29708935092E+02  0.47628178782E+02  0.00000000000E+00 0. -1.
        -14    1    4    4    0    0  0.57543525517E+02 -0.68501401641E+02 -0.37861807975E+02  0.97145333696E+02  0.00000000000E+00 0.  1.
</event>
<event>
12    1  0.8133495E-002  0.1986329E+03  0.7818608E-02  0.1151003E+00
         21   -1    0    0  503  502  0.00000000000E+00  0.00000000000E+00  0.11481224374E+04  0.11481224374E+04  0.00000000000E+00 0.  1.
         21   -1    0    0  501  503 -0.00000000000E+00 -0.00000000000E+00 -0.55560656985E+02  0.55560656985E+02  0.00000000000E+00 0.  1.
          6    2    1    2  501    0 -0.92687378240E+01  0.99586585368E+02  0.17338650241E+03  0.26329050669E+03  0.17104272627E+03 0.  0.
         24    2    3    3    0    0  0.30272145580E+02  0.11211719464E+03  0.82981955598E+02  0.16371355297E+03  0.80183878292E+02 0.  0.
         -6    2    1    2    0  502  0.92687378240E+01 -0.99586585368E+02  0.91917527803E+03  0.94039258772E+03  0.17161477151E+03 0.  0.
        -24    2    5    5    0    0 -0.61666700371E+00  0.96283222657E+01  0.30000508447E+03  0.31156873649E+03  0.83540062131E+02 0.  0.
          5    1    3    3  501    0 -0.39540883404E+02 -0.12530609275E+02  0.90404546810E+02  0.99576953724E+02  0.47000000000E+01 0. -1.
        -13    1    4    4    0    0  0.18281093482E+02  0.27222308692E+02  0.69600320856E+02  0.76938008375E+02  0.00000000000E+00 0.  1.
         14    1    4    4    0    0  0.11991052099E+02  0.84894885951E+02  0.13381634741E+02  0.86775544593E+02  0.00000000000E+00 0. -1.
         -5    1    5    5    0  502  0.98854048277E+01 -0.10921490763E+03  0.61917019356E+03  0.62882385123E+03  0.47000000000E+01 0.  1.
         13    1    6    6    0    0  0.29737916201E+02  0.16162777140E+02  0.54829807713E+02  0.64435136677E+02  0.00000000000E+00 0. -1.
        -14    1    6    6    0    0 -0.30354583204E+02 -0.65344548747E+01  0.24517527676E+03  0.24713359981E+03  0.00000000000E+00 0.  1.
</event>
<event>
12    1  0.8133495E-002  0.1765818E+03  0.7818608E-02  0.1172012E+00
         21   -1    0    0  503  502  0.00000000000E+00  0.00000000000E+00  0.94030810607E+03  0.94030810607E+03  0.00000000000E+00 0.  1.
         21   -1    0    0  501  503 -0.00000000000E+00 -0.00000000000E+00 -0.10114293398E+03  0.10114293398E+03  0.00000000000E+00 0.  1.
          6    2    1    2  501    0  0.30115375960E+02  0.14572922229E+02 -0.10652698941E+02  0.17348124809E+03  0.16989101657E+03 0.  0.
         24    2    3    3    0    0 -0.93945502750E+01 -0.51714095575E+02 -0.14105332679E+02  0.96092530044E+02  0.79197276874E+02 0.  0.
         -6    2    1    2    0  502 -0.30115375960E+02 -0.14572922229E+02  0.84981787103E+03  0.86796979195E+03  0.17338350524E+03 0.  0.
        -24    2    5    5    0    0 -0.59445673604E+02  0.32437817502E+02  0.70506713341E+03  0.71290483120E+03  0.80793784588E+02 0.  0.
          5    1    3    3  501    0  0.39509926235E+02  0.66287017804E+02  0.34526337388E+01  0.77388718042E+02  0.47000000000E+01 0. -1.
        -11    1    4    4    0    0  0.25631237851E+02 -0.47116770798E+02  0.82776885566E+01  0.54272189674E+02  0.00000000000E+00 0.  1.
         12    1    4    4    0    0 -0.35025788126E+02 -0.45973247770E+01 -0.22383021236E+02  0.41820340370E+02  0.00000000000E+00 0. -1.
         -5    1    5    5    0  502  0.29330297644E+02 -0.47010739732E+02  0.14475073762E+03  0.15506496075E+03  0.47000000000E+01 0.  1.
         13    1    6    6    0    0  0.15353163915E+02 -0.71520329321E+01  0.61230569506E+02  0.63529944587E+02  0.00000000000E+00 0. -1.
        -14    1    6    6    0    0 -0.74798837519E+02  0.39589850434E+02  0.64383656390E+03  0.64937488662E+03  0.00000000000E+00 0.  1.
</event>
<event>
12    1  0.8133495E-002  0.2091750E+03  0.7818608E-02  0.1142665E+00
         21   -1    0    0  503  502  0.00000000000E+00  0.00000000000E+00  0.31660430462E+03  0.31660430462E+03  0.00000000000E+00 0.  1.
         21   -1    0    0  501  503 -0.00000000000E+00 -0.00000000000E+00 -0.22104321025E+03  0.22104321025E+03  0.00000000000E+00 0. -1.
          6    2    1    2  501    0 -0.85537639435E+02 -0.81687794498E+02 -0.11839628654E+03  0.23842862248E+03  0.16982621653E+03 0.  0.
         24    2    3    3    0    0 -0.73397915408E+02 -0.86569283602E+02 -0.19685664039E+02  0.13874372478E+03  0.77335638268E+02 0.  0.
         -6    2    1    2    0  502  0.85537639435E+02  0.81687794498E+02  0.21395738092E+03  0.29921889239E+03  0.17252420463E+03 0.  0.
        -24    2    5    5    0    0  0.14170582007E+02  0.24034240677E+02  0.18325946562E+03  0.20236002001E+03  0.81160925580E+02 0.  0.
          5    1    3    3  501    0 -0.12139724028E+02  0.48814891043E+01 -0.98710622506E+02  0.99684897707E+02  0.47000000000E+01 0. -1.
        -13    1    4    4    0    0  0.11037838890E+02 -0.34363344823E+02 -0.15790793423E+02  0.39395716921E+02  0.00000000000E+00 0.  1.
         14    1    4    4    0    0 -0.84435754297E+02 -0.52205938779E+02 -0.38948706162E+01  0.99348007855E+02  0.00000000000E+00 0. -1.
         -5    1    5    5    0  502  0.71367057429E+02  0.57653553822E+02  0.30697915296E+02  0.96858872375E+02  0.47000000000E+01 0.  1.
         11    1    6    6    0    0  0.33983256078E+01 -0.71790734352E+01 -0.61803443774E+01  0.10064013561E+02  0.00000000000E+00 0. -1.
        -12    1    6    6    0    0  0.10772256399E+02  0.31213314112E+02  0.18943981000E+03  0.19229600645E+03  0.00000000000E+00 0.  1.
</event>
<event>
12    1  0.8133495E-002  0.1905887E+03  0.7818608E-02  0.1158116E+00
         21   -1    0    0  503  502  0.00000000000E+00  0.00000000000E+00  0.34000059311E+03  0.34000059311E+03  0.00000000000E+00 0.  1.
         21   -1    0    0  501  503 -0.00000000000E+00 -0.00000000000E+00 -0.15602669992E+03  0.15602669992E+03  0.00000000000E+00 0.  1.
          6    2    1    2  501    0 -0.78887553663E+02 -0.16757240180E+02 -0.48054614523E+02  0.19575858278E+03  0.17177929308E+03 0.  0.
         24    2    3    3    0    0  0.97451790650E+01 -0.46663468859E+02 -0.55810156417E+01  0.92917732786E+02  0.79561985204E+02 0.  0.
         -6    2    1    2    0  502  0.78887553663E+02  0.16757240180E+02  0.23202850771E+03  0.30026871025E+03  0.17268473801E+03 0.  0.
        -24    2    5    5    0    0  0.49682368560E+02 -0.54661269288E+02  0.17432261396E+03  0.20380313864E+03  0.75439734074E+02 0.  0.
          5    1    3    3  501    0 -0.88632732728E+02  0.29906228679E+02 -0.42473598881E+02  0.10284084999E+03  0.47000000000E+01 0. -1.
        -11    1    4    4    0    0 -0.15001170864E+02 -0.77362347523E+01 -0.34547170872E+02  0.38449856576E+02  0.00000000000E+00 0.  1.
         12    1    4    4    0    0  0.24746349929E+02 -0.38927234107E+02  0.28966155230E+02  0.54467876210E+02  0.00000000000E+00 0. -1.
         -5    1    5    5    0  502  0.29205185103E+02  0.71418509468E+02  0.57705893756E+02  0.96465571608E+02  0.47000000000E+01 0.  1.
         11    1    6    6    0    0  0.16900464255E+02 -0.53849426138E+01 -0.19646819924E+01  0.17846099695E+02  0.00000000000E+00 0. -1.
        -12    1    6    6    0    0  0.32781904305E+02 -0.49276326674E+02  0.17628729595E+03  0.18595703895E+03  0.00000000000E+00 0.  1.
</event>
<event>
12    1  0.8133495E-002  0.2184794E+03  0.7818608E-02  0.1135553E+00
         21   -1    0    0  501  502  0.00000000000E+00  0.00000000000E+00  0.34609605419E+03  0.34609605419E+03  0.00000000000E+00 0.  1.
         21   -1    0    0  502  503 -0.00000000000E+00 -0.00000000000E+00 -0.65635856043E+03  0.65635856043E+03  0.00000000000E+00 0.  1.
         -6    2    1    2    0  503 -0.13021404210E+03 -0.34087619323E+02 -0.60156013092E+03  0.64000613850E+03  0.17209184654E+03 0.  0.
        -24    2    3    3    0    0 -0.12358602028E+03  0.61201828140E+00 -0.58154797254E+03  0.59913350699E+03  0.74088027754E+02 0.  0.
          6    2    1    2  501    0  0.13021404210E+03  0.34087619323E+02  0.29129762468E+03  0.36244847613E+03  0.16851388414E+03 0.  0.
         24    2    5    5    0    0  0.10378477262E+03  0.31146241903E+01  0.29364806563E+03  0.32139427676E+03  0.79272408673E+02 0.  0.
          5    1    5    5  501    0  0.26429269479E+02  0.30972995133E+02 -0.23504409461E+01  0.41054199363E+02  0.47000000000E+01 0. -1.
        -11    1    6    6    0    0 -0.66900774037E+01  0.96684263305E+01  0.79257313238E+02  0.80124636068E+02  0.00000000000E+00 0.  1.
         12    1    6    6    0    0  0.11047485002E+03 -0.65538021403E+01  0.21439075239E+03  0.24126964069E+03  0.00000000000E+00 0. -1.
         -5    1    3    3    0  503 -0.66280218227E+01 -0.34699637605E+02 -0.20012158380E+02  0.40872631506E+02  0.47000000000E+01 0.  1.
         13    1    4    4    0    0 -0.15705574981E+02  0.43900042687E+00 -0.12860505976E+02  0.20303950867E+02  0.00000000000E+00 0. -1.
        -14    1    4    4    0    0 -0.10788044530E+03  0.17301785452E+00 -0.56868746657E+03  0.57882955613E+03  0.00000000000E+00 0.  1.
</event>
<event>
12    1  0.8133495E-002  0.2352104E+03  0.7818608E-02  0.1123328E+00
         21   -1    0    0  503  502  0.00000000000E+00  0.00000000000E+00  0.21238836539E+03  0.21238836539E+03  0.00000000000E+00 0. -1.
         21   -1    0    0  501  503 -0.00000000000E+00 -0.00000000000E+00 -0.32992627147E+03  0.32992627147E+03  0.00000000000E+00 0. -1.
          6    2    1    2  501    0 -0.13558932884E+03 -0.81374486579E+02  0.67540410847E+02  0.24301896007E+03  0.17172721011E+03 0.  0.
         24    2    3    3    0    0 -0.10389753300E+03 -0.10755100888E+02 -0.12143237984E+02  0.13182974544E+03  0.79506314181E+02 0.  0.
         -6    2    1    2    0  502  0.13558932884E+03  0.81374486579E+02 -0.18507831693E+03  0.29929567678E+03  0.17411963009E+03 0.  0.
        -24    2    5    5    0    0  0.78573990179E+02 -0.20728049174E+02 -0.12163759019E+03  0.16616982483E+03  0.78823748836E+02 0.  0.
          5    1    3    3  501    0 -0.31691795839E+02 -0.70619385691E+02  0.79683648831E+02  0.11118921463E+03  0.47000000000E+01 0. -1.
        -11    1    4    4    0    0 -0.87343316319E+02 -0.36756497470E+02  0.78541862358E+01  0.95087240223E+02  0.00000000000E+00 0.  1.
         12    1    4    4    0    0 -0.16554216685E+02  0.26001396581E+02 -0.19997424219E+02  0.36742505217E+02  0.00000000000E+00 0. -1.
         -5    1    5    5    0  502  0.57015338664E+02  0.10210253575E+03 -0.63440726736E+02  0.13312585196E+03  0.47000000000E+01 0.  1.
         13    1    6    6    0    0  0.93949990340E+02 -0.16814233626E+02 -0.11363724098E+03  0.14840061211E+03  0.00000000000E+00 0. -1.
        -14    1    6    6    0    0 -0.15376000161E+02 -0.39138155475E+01 -0.80003492112E+01  0.17769212717E+02  0.00000000000E+00 0.  1.
</event>
<event>
12    1  0.8133495E-002  0.1904191E+03  0.7818608E-02  0.1160063E+00
         21   -1    0    0  503  502  0.00000000000E+00  0.00000000000E+00  0.94153952359E+03  0.94153952359E+03  0.00000000000E+00 0. -1.
         21   -1    0    0  501  503 -0.00000000000E+00 -0.00000000000E+00 -0.86996254152E+02  0.86996254152E+02  0.00000000000E+00 0. -1.
          6    2    1    2  501    0  0.16508489937E+02 -0.56516593671E+02  0.32486183890E+02  0.18471275325E+03  0.17203718629E+03 0.  0.
         24    2    3    3    0    0  0.70151909342E+02 -0.44912530472E+02  0.51626336022E+02  0.12639717941E+03  0.79828206881E+02 0.  0.
         -6    2    1    2    0  502 -0.16508489937E+02  0.56516593671E+02  0.82205708555E+03  0.84382302449E+03  0.18108779409E+03 0.  0.
        -24    2    5    5    0    0  0.28257462681E+02 -0.40182407153E+01  0.21449736362E+03  0.23159809655E+03  0.82546525489E+02 0.  0.
          5    1    3    3  501    0 -0.53643419405E+02 -0.11604063199E+02 -0.19140152132E+02  0.58315573836E+02  0.47000000000E+01 0. -1.
        -13    1    4    4    0    0  0.84287876435E+02 -0.52331677732E+02  0.41854947268E+02  0.10767955804E+03  0.00000000000E+00 0.  1.
         14    1    4    4    0    0 -0.14135967093E+02  0.74191472591E+01  0.97713887538E+01  0.18717621373E+02  0.00000000000E+00 0. -1.
         -5    1    5    5    0  502 -0.44765952618E+02  0.60534834387E+02  0.60755972193E+03  0.61222492795E+03  0.47000000000E+01 0.  1.
         13    1    6    6    0    0 -0.27216802290E+02 -0.65793056004E+01  0.10700823553E+03  0.11061104854E+03  0.00000000000E+00 0. -1.
        -14    1    6    6    0    0  0.55474264972E+02  0.25610648851E+01  0.10748912809E+03  0.12098704801E+03  0.00000000000E+00 0.  1.
</event>
<event>
12    1  0.8133495E-002  0.3563877E+03  0.7818608E-02  0.1060111E+00
         21   -1    0    0  503  502  0.00000000000E+00  0.00000000000E+00  0.49623160280E+03  0.49623160280E+03  0.00000000000E+00 0.  1.
         21   -1    0    0  501  503 -0.00000000000E+00 -0.00000000000E+00 -0.27597079037E+03  0.27597079037E+03  0.00000000000E+00 0. -1.
          6    2    1    2  501    0  0.10361624528E+03  0.29367080317E+03  0.46492014839E+01  0.35641802934E+03  0.17330126845E+03 0.  0.
         24    2    3    3    0    0  0.96921194178E+01  0.11280763655E+03  0.51364270876E+02  0.14728263261E+03  0.78958124994E+02 0.  0.
         -6    2    1    2    0  502 -0.10361624528E+03 -0.29367080317E+03  0.21561161094E+03  0.41578436382E+03  0.17149170099E+03 0.  0.
        -24    2    5    5    0    0 -0.58751880696E+02 -0.27788538839E+03  0.14114478171E+03  0.32730052810E+03  0.80819018299E+02 0.  0.
          5    1    3    3  501    0  0.93924125865E+02  0.18086316662E+03 -0.46715069392E+02  0.20913539673E+03  0.47000000000E+01 0. -1.
        -13    1    4    4    0    0 -0.15061193799E+02  0.13508808070E+02 -0.15109206032E+02  0.25251050692E+02  0.00000000000E+00 0.  1.
         14    1    4    4    0    0  0.24753313217E+02  0.99298828478E+02  0.66473476908E+02  0.12203158191E+03  0.00000000000E+00 0. -1.
         -5    1    5    5    0  502 -0.44864364587E+02 -0.15785414772E+02  0.74466829232E+02  0.88483835728E+02  0.47000000000E+01 0.  1.
         11    1    6    6    0    0  0.17429460410E+02 -0.20643744742E+02  0.13035161792E+02  0.29997762085E+02  0.00000000000E+00 0. -1.
        -12    1    6    6    0    0 -0.76181341106E+02 -0.25724164365E+03  0.12810961992E+03  0.29730276601E+03  0.00000000000E+00 0.  1.
</event>
<event>
12    1  0.8133495E-002  0.1764078E+03  0.7818608E-02  0.1172065E+00
         21   -1    0    0  501  502  0.00000000000E+00  0.00000000000E+00  0.82720091718E+03  0.82720091718E+03  0.00000000000E+00 0. -1.
         21   -1    0    0  502  503 -0.00000000000E+00 -0.00000000000E+00 -0.36997216288E+02  0.36997216288E+02  0.00000000000E+00 0. -1.
         -6    2    1    2    0  503  0.33568774625E+02 -0.16230196454E+02  0.40241571452E+03  0.43938379059E+03  0.17242223243E+03 0.  0.
        -24    2    3    3    0    0  0.43779679821E+01 -0.73883272879E+02  0.28753362412E+03  0.30749002611E+03  0.79978913128E+02 0.  0.
          6    2    1    2  501    0 -0.33568774625E+02  0.16230196454E+02  0.38778798638E+03  0.42481434288E+03  0.16940313348E+03 0.  0.
         24    2    5    5    0    0 -0.47000979402E+02  0.98356322824E+01  0.10396065325E+03  0.14055854328E+03  0.81504938117E+02 0.  0.
          5    1    5    5  501    0  0.13432204777E+02  0.63945641720E+01  0.28382733313E+03  0.28425579960E+03  0.47000000000E+01 0. -1.
        -13    1    6    6    0    0 -0.23711259615E+02 -0.27480479262E+02  0.85442038476E+02  0.92831796880E+02  0.00000000000E+00 0.  1.
         14    1    6    6    0    0 -0.23289719787E+02  0.37316111545E+02  0.18518614769E+02  0.47726746396E+02  0.00000000000E+00 0. -1.
         -5    1    3    3    0  503  0.29190806643E+02  0.57653076424E+02  0.11488209040E+03  0.13189376448E+03  0.47000000000E+01 0.  1.
         11    1    4    4    0    0  0.24718667821E+02 -0.15673662847E+01  0.28381069615E+02  0.37669009655E+02  0.00000000000E+00 0. -1.
        -12    1    4    4    0    0 -0.20340699839E+02 -0.72315906594E+02  0.25915255450E+03  0.26982101646E+03  0.00000000000E+00 0.  1.
</event>
<event>
12    1  0.8133495E-002  0.2475280E+03  0.7818608E-02  0.1114928E+00
         21   -1    0    0  503  502  0.00000000000E+00  0.00000000000E+00  0.75474089068E+03  0.75474089068E+03  0.00000000000E+00 0.  1.
         21   -1    0    0  501  503 -0.00000000000E+00 -0.00000000000E+00 -0.81697297202E+02  0.81697297202E+02  0.00000000000E+00 0. -1.
          6    2    1    2  501    0 -0.14993928398E+03  0.94873555391E+02  0.37317637919E+03  0.44780658701E+03  0.17259011847E+03 0.  0.
         24    2    3    3    0    0 -0.57828724337E+02  0.11654382053E+03  0.22364014586E+03  0.27078362052E+03  0.79888865545E+02 0.  0.
         -6    2    1    2    0  502  0.14993928398E+03 -0.94873555391E+02  0.29986721430E+03  0.38863160087E+03  0.17213771985E+03 0.  0.
        -24    2    5    5    0    0  0.17922139182E+03 -0.72477083881E+02  0.26341470675E+03  0.33657471774E+03  0.80758887508E+02 0.  0.
          5    1    3    3  501    0 -0.92110559644E+02 -0.21670265138E+02  0.14953623333E+03  0.17702296649E+03  0.47000000000E+01 0. -1.
        -11    1    4    4    0    0 -0.10854816593E+01  0.87966885075E+02  0.11309957585E+03  0.14328595604E+03  0.00000000000E+00 0.  1.
         12    1    4    4    0    0 -0.56743242678E+02  0.28576935455E+02  0.11054057001E+03  0.12749766448E+03  0.00000000000E+00 0. -1.
         -5    1    5    5    0  502 -0.29282107842E+02 -0.22396471510E+02  0.36452507544E+02  0.52056883138E+02  0.47000000000E+01 0.  1.
         11    1    6    6    0    0  0.24779524836E+02 -0.41642914415E+02  0.90725943619E+02  0.10285598679E+03  0.00000000000E+00 0. -1.
        -12    1    6    6    0    0  0.15444186699E+03 -0.30834169465E+02  0.17268876313E+03  0.23371873095E+03  0.00000000000E+00 0.  1.
</event>
<event>
12    1  0.8133495E-002  0.1835556E+03  0.7818608E-02  0.1168205E+00
         21   -1    0    0  501  502  0.00000000000E+00  0.00000000000E+00  0.30724837005E+03  0.30724837005E+03  0.00000000000E+00 0.  1.
         21   -1    0    0  502  503 -0.00000000000E+00 -0.00000000000E+00 -0.49780479018E+03  0.49780479018E+03  0.00000000000E+00 0.  1.
         -6    2    1    2    0  503  0.13267049943E+02  0.59412409461E+02 -0.45389725290E+03  0.48405306781E+03  0.15677629686E+03 0.  0.
        -24    2    3    3    0    0 -0.10860682369E+02  0.77633033633E+00 -0.37021203248E+03  0.37895481208E+03  0.80195034104E+02 0.  0.
          6    2    1    2  501    0 -0.13267049943E+02 -0.59412409461E+02  0.26334083276E+03  0.32100009242E+03  0.17316701799E+03 0.  0.
         24    2    5    5    0    0  0.20848130558E+02  0.98829738092E+01  0.21363470972E+03  0.22903007366E+03  0.79263281045E+02 0.  0.
          5    1    5    5  501    0 -0.34115180501E+02 -0.69295383270E+02  0.49706123037E+02  0.91970018759E+02  0.47000000000E+01 0. -1.
        -13    1    6    6    0    0 -0.67856754983E+01  0.25902791534E+01  0.19450112115E+03  0.19463668993E+03  0.00000000000E+00 0.  1.
         14    1    6    6    0    0  0.27633806056E+02  0.72926946558E+01  0.19133588571E+02  0.34393383726E+02  0.00000000000E+00 0. -1.
         -5    1    3    3    0  503  0.24127732312E+02  0.58636079124E+02 -0.83685220417E+02  0.10509825573E+03  0.47000000000E+01 0.  1.
         11    1    4    4    0    0 -0.39703604928E+02  0.20753409616E+02 -0.23716753018E+03  0.24136179820E+03  0.00000000000E+00 0. -1.
        -12    1    4    4    0    0  0.28842922559E+02 -0.19977079280E+02 -0.13304450229E+03  0.13759301388E+03  0.00000000000E+00 0.  1.
</event>
<event>
12    1  0.8133495E-002  0.2363271E+03  0.7818608E-02  0.1122272E+00
         21   -1    0    0  503  502  0.00000000000E+00  0.00000000000E+00  0.29261778726E+04  0.29261778726E+04  0.00000000000E+00 0. -1.
         21   -1    0    0  501  503 -0.00000000000E+00 -0.00000000000E+00 -0.28739724074E+02  0.28739724074E+02  0.00000000000E+00 0.  1.
          6    2    1    2  501    0  0.16006977587E+03 -0.25838476834E+02  0.59220276466E+03  0.63760003841E+03  0.17187127299E+03 0.  0.
         24    2    3    3    0    0  0.14082573032E+03 -0.52638801783E+02  0.32344684785E+03  0.36678566744E+03  0.85505161712E+02 0.  0.
         -6    2    1    2    0  502 -0.16006977587E+03  0.25838476834E+02  0.23052353839E+04  0.23173175583E+04  0.17193176198E+03 0.  0.
        -24    2    5    5    0    0 -0.49512965980E+02  0.67168925747E+02  0.97350182590E+03  0.98035556418E+03  0.80174988590E+02 0.  0.
          5    1    3    3  501    0  0.19244045547E+02  0.26800324949E+02  0.26875591680E+03  0.27081437097E+03  0.47000000000E+01 0. -1.
        -11    1    4    4    0    0  0.53584164405E+02 -0.64511264215E+02  0.17798581722E+03  0.19675344220E+03  0.00000000000E+00 0.  1.
         12    1    4    4    0    0  0.87241565914E+02  0.11872462432E+02  0.14546103064E+03  0.17003222524E+03  0.00000000000E+00 0. -1.
         -5    1    5    5    0  502 -0.11055680989E+03 -0.41330448913E+02  0.13317335580E+04  0.13369619941E+04  0.47000000000E+01 0.  1.
         11    1    6    6    0    0 -0.63004181114E+02  0.30908152658E+02  0.77127365938E+03  0.77445974614E+03  0.00000000000E+00 0. -1.
        -12    1    6    6    0    0  0.13491215134E+02  0.36260773089E+02  0.20222816653E+03  0.20589581804E+03  0.00000000000E+00 0.  1.
</event>
<event>
12    1  0.8133495E-002  0.1833745E+03  0.7818608E-02  0.1164706E+00
         21   -1    0    0  503  502  0.00000000000E+00  0.00000000000E+00  0.13696885240E+03  0.13696885240E+03  0.00000000000E+00 0.  1.
         21   -1    0    0  501  503 -0.00000000000E+00 -0.00000000000E+00 -0.24699584746E+03  0.24699584746E+03  0.00000000000E+00 0.  1.
          6    2    1    2  501    0 -0.41139439612E+02  0.46811844563E+02 -0.73320652478E+02  0.19748957549E+03  0.17245988538E+03 0.  0.
         24    2    3    3    0    0 -0.90463001818E+02  0.62591747326E+02 -0.39876537415E+02  0.13566386925E+03  0.68653227547E+02 0.  0.
         -6    2    1    2    0  502  0.41139439612E+02 -0.46811844563E+02 -0.36706342579E+02  0.18647512436E+03  0.17187732293E+03 0.  0.
        -24    2    5    5    0    0 -0.92265417481E+01  0.31502777918E+01 -0.71266554312E+02  0.10742169949E+03  0.79783747942E+02 0.  0.
          5    1    3    3  501    0  0.49323562206E+02 -0.15779902763E+02 -0.33444115063E+02  0.61825706241E+02  0.47000000000E+01 0. -1.
        -11    1    4    4    0    0 -0.51985746499E+02  0.38146996023E+02 -0.57884192614E+02  0.86650394686E+02  0.00000000000E+00 0.  1.
         12    1    4    4    0    0 -0.38477255320E+02  0.24444751303E+02  0.18007655199E+02  0.49013474565E+02  0.00000000000E+00 0. -1.
         -5    1    5    5    0  502  0.50365981360E+02 -0.49962122355E+02  0.34560211733E+02  0.79053424870E+02  0.47000000000E+01 0.  1.
         11    1    6    6    0    0  0.87028315027E+01  0.37542867846E+02 -0.50191320470E+02  0.63280130000E+02  0.00000000000E+00 0. -1.
        -12    1    6    6    0    0 -0.17929373251E+02 -0.34392590055E+02 -0.21075233842E+02  0.44141569493E+02  0.00000000000E+00 0.  1.
</event>
<event>
12    1  0.8133495E-002  0.2046539E+03  0.7818608E-02  0.1146258E+00
         21   -1    0    0  503  502  0.00000000000E+00  0.00000000000E+00  0.25953044049E+03  0.25953044049E+03  0.00000000000E+00 0. -1.
         21   -1    0    0  501  503 -0.00000000000E+00 -0.00000000000E+00 -0.15999627080E+03  0.15999627080E+03  0.00000000000E+00 0. -1.
          6    2    1    2  501    0  0.51266363382E+01 -0.11139215690E+03  0.44832994308E+02  0.20950704006E+03  0.17160625699E+03 0.  0.
         24    2    3    3    0    0  0.57843880573E+02 -0.44257911077E+02 -0.91599739479E+01  0.10839598516E+03  0.79756549970E+02 0.  0.
         -6    2    1    2    0  502 -0.51266363382E+01  0.11139215690E+03  0.54701175377E+02  0.21001967123E+03  0.16935627741E+03 0.  0.
        -24    2    5    5    0    0  0.54641353738E+01  0.92754211787E+02  0.10103261593E+03  0.15875340720E+03  0.79761232663E+02 0.  0.
          5    1    3    3  501    0 -0.52717244235E+02 -0.67134245824E+02  0.53992968256E+02  0.10111105490E+03  0.47000000000E+01 0. -1.
        -11    1    4    4    0    0  0.12502647514E+01  0.19093957746E+02  0.95885412119E+01  0.21402862120E+02  0.00000000000E+00 0.  1.
         12    1    4    4    0    0  0.56593615822E+02 -0.63351868824E+02 -0.18748515160E+02  0.86993123038E+02  0.00000000000E+00 0. -1.
         -5    1    5    5    0  502 -0.10590771712E+02  0.18637945115E+02 -0.46331440557E+02  0.51266264031E+02  0.47000000000E+01 0.  1.
         11    1    6    6    0    0  0.13348354511E+02  0.10109295646E+03  0.10523289079E+03  0.14653301920E+03  0.00000000000E+00 0. -1.
        -12    1    6    6    0    0 -0.78842191368E+01 -0.83387446682E+01 -0.42002748520E+01  0.12220388000E+02  0.00000000000E+00 0.  1.
</event>
<event>
12    1  0.8133495E-002  0.2539113E+03  0.7818608E-02  0.1110947E+00
         21   -1    0    0  501  502  0.00000000000E+00  0.00000000000E+00  0.82644885720E+03  0.82644885720E+03  0.00000000000E+00 0.  1.
         21   -1    0    0  502  503 -0.00000000000E+00 -0.00000000000E+00 -0.79312496858E+02  0.79312496858E+02  0.00000000000E+00 0.  1.
         -6    2    1    2    0  503 -0.59747338831E+02  0.17483000758E+03  0.31130163650E+03  0.40135787745E+03  0.17333251529E+03 0.  0.
        -24    2    3    3    0    0 -0.97663166814E+02  0.78777669522E+02  0.18601041102E+03  0.23892745283E+03  0.82112358044E+02 0.  0.
          6    2    1    2  501    0  0.59747338831E+02 -0.17483000758E+03  0.43583472385E+03  0.50440347661E+03  0.17417142320E+03 0.  0.
         24    2    5    5    0    0  0.72633555629E+02 -0.12903033517E+03  0.42302429550E+03  0.45490739948E+03  0.77889195190E+02 0.  0.
          5    1    5    5  501    0 -0.12886216798E+02 -0.45799672414E+02  0.12810428350E+02  0.49496077129E+02  0.47000000000E+01 0. -1.
        -11    1    6    6    0    0 -0.10816596577E+02 -0.10912595051E+02  0.13005352168E+02  0.20130143498E+02  0.00000000000E+00 0.  1.
         12    1    6    6    0    0  0.83450152205E+02 -0.11811774011E+03  0.41001894333E+03  0.43477725598E+03  0.00000000000E+00 0. -1.
         -5    1    3    3    0  503  0.37915827983E+02  0.96052338058E+02  0.12529122548E+03  0.16243042462E+03  0.47000000000E+01 0.  1.
         11    1    4    4    0    0 -0.52801640100E+02 -0.67410410730E+01  0.60980239923E+02  0.80944700217E+02  0.00000000000E+00 0. -1.
        -12    1    4    4    0    0 -0.44861526713E+02  0.85518710595E+02  0.12503017109E+03  0.15798275262E+03  0.00000000000E+00 0.  1.
</event>
<event>
12    1  0.8133495E-002  0.1947451E+03  0.7818608E-02  0.1154253E+00
         21   -1    0    0  503  502  0.00000000000E+00  0.00000000000E+00  0.12840620694E+04  0.12840620694E+04  0.00000000000E+00 0.  1.
         21   -1    0    0  501  503 -0.00000000000E+00 -0.00000000000E+00 -0.44492040268E+02  0.44492040268E+02  0.00000000000E+00 0. -1.
          6    2    1    2  501    0  0.89345587722E+02  0.32711782743E+01  0.23460560366E+03  0.30489441943E+03  0.17299561577E+03 0.  0.
         24    2    3    3    0    0 -0.85232087676E+01 -0.31680755773E+02  0.79699438045E+02  0.11829873575E+03  0.81032555691E+02 0.  0.
         -6    2    1    2    0  502 -0.89345587722E+02 -0.32711782743E+01  0.10049644255E+04  0.10236596902E+04  0.17300962490E+03 0.  0.
        -24    2    5    5    0    0  0.20632917155E+02 -0.17960925560E+02  0.54546532720E+03  0.55093083400E+03  0.72415803235E+02 0.  0.
          5    1    3    3  501    0  0.97868796490E+02  0.34951934047E+02  0.15490616562E+03  0.18659568367E+03  0.47000000000E+01 0. -1.
        -13    1    4    4    0    0  0.25633488695E+02 -0.37331505183E+02  0.20477504462E+02  0.49699549403E+02  0.00000000000E+00 0.  1.
         14    1    4    4    0    0 -0.34156697463E+02  0.56507494098E+01  0.59221933583E+02  0.68599186349E+02  0.00000000000E+00 0. -1.
         -5    1    5    5    0  502 -0.10997850488E+03  0.14689747286E+02  0.45949909826E+03  0.47272885623E+03  0.47000000000E+01 0.  1.
         11    1    6    6    0    0  0.31306771328E+02  0.16552893008E+02  0.16519037449E+03  0.16894369483E+03  0.00000000000E+00 0. -1.
        -12    1    6    6    0    0 -0.10673854173E+02 -0.34513818568E+02  0.38027495271E+03  0.38198713918E+03  0.00000000000E+00 0.  1.
</event>
<event>
12    1  0.8133495E-002  0.2478231E+03  0.7818608E-02  0.1115011E+00
         21   -1    0    0  501  502  0.00000000000E+00  0.00000000000E+00  0.30574981622E+04  0.30574981622E+04  0.00000000000E+00 0.  1.
         21   -1    0    0  502  503 -0.00000000000E+00 -0.00000000000E+00 -0.22514000884E+02  0.22514000884E+02  0.00000000000E+00 0.  1.
         -6    2    1    2    0  503  0.14625718678E+03  0.96550411238E+02  0.98977107842E+03  0.10198391456E+04  0.17237154266E+03 0.  0.
        -24    2    3    3    0    0  0.76454370344E+02 -0.15687318940E+02  0.50960229845E+03  0.52178905930E+03  0.80485757077E+02 0.  0.
          6    2    1    2  501    0 -0.14625718678E+03 -0.96550411238E+02  0.20452130829E+04  0.20601730174E+04  0.17522317408E+03 0.  0.
         24    2    5    5    0    0 -0.11536545409E+03 -0.17504604663E+02  0.84752889458E+03  0.85947653472E+03  0.82335213567E+02 0.  0.
          5    1    5    5  501    0 -0.30891732691E+02 -0.79045806575E+02  0.11976841883E+04  0.12006964827E+04  0.47000000000E+01 0. -1.
        -11    1    6    6    0    0 -0.60025778137E+02 -0.49712056886E+02  0.41841858325E+03  0.42561542906E+03  0.00000000000E+00 0.  1.
         12    1    6    6    0    0 -0.55339675952E+02  0.32207452223E+02  0.42911031133E+03  0.43386110566E+03  0.00000000000E+00 0. -1.
         -5    1    3    3    0  503  0.69802816436E+02  0.11223773018E+03  0.48016877997E+03  0.49805008635E+03  0.47000000000E+01 0.  1.
         13    1    4    4    0    0  0.61704258840E+01  0.27914371897E+02  0.16018751298E+03  0.16271854728E+03  0.00000000000E+00 0. -1.
        -14    1    4    4    0    0  0.70283944460E+02 -0.43601690837E+02  0.34941478547E+03  0.35907051201E+03  0.00000000000E+00 0.  1.
</event>
<event>
12    1  0.8133495E-002  0.2017929E+03  0.7818608E-02  0.1148578E+00
         21   -1    0    0  503  502  0.00000000000E+00  0.00000000000E+00  0.12001884770E+03  0.12001884770E+03  0.00000000000E+00 0. -1.
         21   -1    0    0  501  503 -0.00000000000E+00 -0.00000000000E+00 -0.12243823874E+04  0.12243823874E+04  0.00000000000E+00 0. -1.
          6    2    1    2  501    0 -0.99294367233E+02 -0.35462753484E+02 -0.11252096988E+04  0.11431610653E+04  0.17205631872E+03 0.  0.
         24    2    3    3    0    0 -0.80886541694E+02  0.38940973389E+02 -0.53956205154E+03  0.55250040189E+03  0.77913122099E+02 0.  0.
         -6    2    1    2    0  502  0.99294367233E+02  0.35462753484E+02  0.20846159047E+02  0.20124016980E+03  0.17013543236E+03 0.  0.
        -24    2    5    5    0    0  0.39782054089E+02 -0.45190220509E+02  0.10831833511E+02  0.10039873811E+03  0.79610364519E+02 0.  0.
          5    1    3    3  501    0 -0.18407825539E+02 -0.74403726873E+02 -0.58564764724E+03  0.59066066343E+03  0.47000000000E+01 0. -1.
        -11    1    4    4    0    0 -0.12236856219E+02  0.48034168849E+02 -0.21724192237E+03  0.22282521146E+03  0.00000000000E+00 0.  1.
         12    1    4    4    0    0 -0.68649685475E+02 -0.90931954604E+01 -0.32232012916E+03  0.32967519043E+03  0.00000000000E+00 0. -1.
         -5    1    5    5    0  502  0.59512313143E+02  0.80652973993E+02  0.10014325536E+02  0.10084143169E+03  0.47000000000E+01 0.  1.
         13    1    6    6    0    0  0.59001986047E+02 -0.22710583359E+02  0.24518060794E+02  0.67809588253E+02  0.00000000000E+00 0. -1.
        -14    1    6    6    0    0 -0.19219931957E+02 -0.22479637151E+02 -0.13686227283E+02  0.32589149853E+02  0.00000000000E+00 0.  1.
</event>
<event>
12    1  0.8133495E-002  0.2075150E+03  0.7818608E-02  0.1144015E+00
         21   -1    0    0  501  502  0.00000000000E+00  0.00000000000E+00  0.38801220801E+03  0.38801220801E+03  0.00000000000E+00 0.  1.
         21   -1    0    0  502  503 -0.00000000000E+00 -0.00000000000E+00 -0.11105131026E+03  0.11105131026E+03  0.00000000000E+00 0. -1.
         -6    2    1    2    0  503  0.50244673640E+02 -0.10462970189E+03  0.11226813477E+03  0.23593776097E+03  0.17201915945E+03 0.  0.
        -24    2    3    3    0    0  0.17017265342E+02 -0.11751848964E+03  0.29279058690E+02  0.14549740349E+03  0.78816549132E+02 0.  0.
          6    2    1    2  501    0 -0.50244673640E+02  0.10462970189E+03  0.16469276298E+03  0.26312575730E+03  0.16923225529E+03 0.  0.
         24    2    5    5    0    0  0.37011342015E+02  0.63666798852E+02  0.97031362846E+02  0.14526258765E+03  0.79138064673E+02 0.  0.
          5    1    5    5  501    0 -0.87256015654E+02  0.40962903041E+02  0.67661400129E+02  0.11786316965E+03  0.47000000000E+01 0. -1.
        -11    1    6    6    0    0 -0.14413036110E+02 -0.64987029718E+01  0.35041298058E+02  0.38442961902E+02  0.00000000000E+00 0.  1.
         12    1    6    6    0    0  0.51424378125E+02  0.70165501824E+02  0.61990064788E+02  0.10681962574E+03  0.00000000000E+00 0. -1.
         -5    1    3    3    0  503  0.33227408297E+02  0.12888787751E+02  0.82989076078E+02  0.90440357475E+02  0.47000000000E+01 0.  1.
         13    1    4    4    0    0  0.11455404166E+02 -0.22927600384E+01 -0.17477232426E+02  0.21022290229E+02  0.00000000000E+00 0. -1.
        -14    1    4    4    0    0  0.55618611764E+01 -0.11522572961E+03  0.46756291116E+02  0.12447511326E+03  0.00000000000E+00 0.  1.
</event>
<event>
12    1  0.8133495E-002  0.1931200E+03  0.7818608E-02  0.1155788E+00
         21   -1    0    0  503  502  0.00000000000E+00  0.00000000000E+00  0.25550703750E+03  0.25550703750E+03  0.00000000000E+00 0. -1.
         21   -1    0    0  501  503 -0.00000000000E+00 -0.00000000000E+00 -0.14973338358E+03  0.14973338358E+03  0.00000000000E+00 0. -1.
          6    2    1    2  501    0 -0.42219330796E+01  0.87287229238E+02  0.86679510714E+02  0.21168060682E+03  0.17221630764E+03 0.  0.
         24    2    3    3    0    0  0.21167192084E+02 -0.63089506087E+01  0.73450635304E+02  0.11369108848E+03  0.83921480536E+02 0.  0.
         -6    2    1    2    0  502  0.42219330796E+01 -0.87287229238E+02  0.19094143207E+02  0.19355981427E+03  0.17165060526E+03 0.  0.
        -24    2    5    5    0    0 -0.16527002405E+02 -0.11281925238E+03  0.49950872797E+02  0.14820972837E+03  0.80434497423E+02 0.  0.
          5    1    3    3  501    0 -0.25389125164E+02  0.93596179847E+02  0.13228875409E+02  0.97989518333E+02  0.47000000000E+01 0. -1.
        -11    1    4    4    0    0 -0.97988305443E+01 -0.74558581563E+01  0.80891290834E+02  0.81823027527E+02  0.00000000000E+00 0.  1.
         12    1    4    4    0    0  0.30966022629E+02  0.11469075476E+01 -0.74406555301E+01  0.31868060956E+02  0.00000000000E+00 0. -1.
         -5    1    5    5    0  502  0.20748935484E+02  0.25532023141E+02 -0.30856729590E+02  0.45350085892E+02  0.47000000000E+01 0.  1.
         11    1    6    6    0    0  0.14280495386E+02 -0.52724697468E+02 -0.12712279093E+02  0.56084118174E+02  0.00000000000E+00 0. -1.
        -12    1    6    6    0    0 -0.30807497791E+02 -0.60094554911E+02  0.62663151890E+02  0.92125610201E+02  0.00000000000E+00 0.  1.
</event>
<event>
12    1  0.8133495E-002  0.1848354E+03  0.7818608E-02  0.1163463E+00
         21   -1    0    0  503  502  0.00000000000E+00  0.00000000000E+00  0.46900897918E+03  0.46900897918E+03  0.00000000000E+00 0. -1.
         21   -1    0    0  501  503 -0.00000000000E+00 -0.00000000000E+00 -0.96376818039E+02  0.96376818039E+02  0.00000000000E+00 0. -1.
          6    2    1    2  501    0 -0.61365510501E+02  0.17215441105E+02  0.44919525624E+02  0.18914162181E+03  0.17232147872E+03 0.  0.
         24    2    3    3    0    0 -0.41976295004E+02 -0.36768937257E+02  0.76655297070E+02  0.12341868842E+03  0.79007429987E+02 0.  0.
         -6    2    1    2    0  502  0.61365510501E+02 -0.17215441105E+02  0.32771263552E+03  0.37624417541E+03  0.17349931054E+03 0.  0.
        -24    2    5    5    0    0  0.38584478568E+02  0.17416424944E+01  0.33389641572E+03  0.34560636263E+03  0.80406132565E+02 0.  0.
          5    1    3    3  501    0 -0.19389215497E+02  0.53984378362E+02 -0.31735771446E+02  0.65722933394E+02  0.47000000000E+01 0. -1.
        -13    1    4    4    0    0 -0.31937401256E+02 -0.60267431544E+02  0.68323766642E+02  0.96541690435E+02  0.00000000000E+00 0.  1.
         14    1    4    4    0    0 -0.10038893748E+02  0.23498494287E+02  0.83315304276E+01  0.26876997985E+02  0.00000000000E+00 0. -1.
         -5    1    5    5    0  502  0.22781031933E+02 -0.18957083599E+02 -0.61837801963E+01  0.30637812782E+02  0.47000000000E+01 0.  1.
         13    1    6    6    0    0  0.18333462395E+02 -0.36441363434E+02  0.10462016055E+03  0.11229188219E+03  0.00000000000E+00 0. -1.
        -14    1    6    6    0    0  0.20251016173E+02  0.38183005928E+02  0.22927625517E+03  0.23331448043E+03  0.00000000000E+00 0.  1.
</event>
<event>
12    1  0.8133495E-002  0.1966828E+03  0.7818608E-02  0.1153042E+00
         21   -1    0    0  501  502  0.00000000000E+00  0.00000000000E+00  0.29369400007E+03  0.29369400007E+03  0.00000000000E+00 0.  1.
         21   -1    0    0  502  503 -0.00000000000E+00 -0.00000000000E+00 -0.22932073067E+03  0.22932073067E+03  0.00000000000E+00 0.  1.
         -6    2    1    2    0  503 -0.88756277354E+02 -0.45233733582E+02  0.20416371637E+03  0.28349066457E+03  0.16958881565E+03 0.  0.
        -24    2    3    3    0    0 -0.64496657136E+02  0.24255409485E+02  0.57308968471E+02  0.11915662319E+03  0.78522858527E+02 0.  0.
          6    2    1    2  501    0  0.88756277354E+02  0.45233733582E+02 -0.13979044697E+03  0.23952406616E+03  0.16705281136E+03 0.  0.
         24    2    5    5    0    0  0.48506980536E+02  0.45900898393E+01 -0.50739992740E+01  0.93091409457E+02  0.79159768574E+02 0.  0.
          5    1    5    5  501    0  0.40249296818E+02  0.40643643743E+02 -0.13471644769E+03  0.14643265671E+03  0.47000000000E+01 0. -1.
        -13    1    6    6    0    0  0.57220920661E+02 -0.24027806115E+02 -0.97201638331E+01  0.62817599548E+02  0.00000000000E+00 0.  1.
         14    1    6    6    0    0 -0.87139401248E+01  0.28617895954E+02  0.46461645590E+01  0.30273809910E+02  0.00000000000E+00 0. -1.
         -5    1    3    3    0  503 -0.24259620218E+02 -0.69489143068E+02  0.14685474790E+03  0.16433404138E+03  0.47000000000E+01 0.  1.
         13    1    4    4    0    0 -0.17634331657E+01  0.23932731668E+02 -0.11011108441E+02  0.26403216674E+02  0.00000000000E+00 0. -1.
        -14    1    4    4    0    0 -0.62733223970E+02  0.32267781733E+00  0.68320076912E+02  0.92753406514E+02  0.00000000000E+00 0.  1.
</event>
<event>
12    1  0.8133495E-002  0.2113828E+03  0.7818608E-02  0.1140618E+00
         21   -1    0    0  503  502  0.00000000000E+00  0.00000000000E+00  0.45114830317E+02  0.45114830317E+02  0.00000000000E+00 0.  1.
         21   -1    0    0  501  503 -0.00000000000E+00 -0.00000000000E+00 -0.13729177078E+04  0.13729177078E+04  0.00000000000E+00 0.  1.
          6    2    1    2  501    0  0.78004329080E+02  0.91980936567E+02 -0.28882781502E+03  0.35791644306E+03  0.17360157095E+03 0.  0.
         24    2    3    3    0    0  0.10786633708E+03  0.74321077473E+02 -0.28297270255E+03  0.32242021105E+03  0.81990687722E+02 0.  0.
         -6    2    1    2    0  502 -0.78004329080E+02 -0.91980936567E+02 -0.10389750625E+04  0.10601160951E+04  0.17271880771E+03 0.  0.
        -24    2    5    5    0    0  0.21063685624E+02 -0.27904897556E+02 -0.55481215329E+03  0.56176278371E+03  0.80861224115E+02 0.  0.
          5    1    3    3  501    0 -0.29862007997E+02  0.17659859094E+02 -0.58551124700E+01  0.35496232009E+02  0.47000000000E+01 0. -1.
        -13    1    4    4    0    0  0.11765930799E+03  0.50772091652E+02 -0.22204389505E+03  0.25636889315E+03  0.00000000000E+00 0.  1.
         14    1    4    4    0    0 -0.97929709114E+01  0.23548985822E+02 -0.60928807504E+02  0.66051317900E+02  0.00000000000E+00 0. -1.
         -5    1    5    5    0  502 -0.99068014705E+02 -0.64076039011E+02 -0.48416290922E+03  0.49835331139E+03  0.47000000000E+01 0.  1.
         13    1    6    6    0    0  0.82492420863E+01  0.10381936649E+02 -0.13416079607E+02  0.18863345292E+02  0.00000000000E+00 0. -1.
        -14    1    6    6    0    0  0.12814443538E+02 -0.38286834205E+02 -0.54139607368E+03  0.54289943842E+03  0.00000000000E+00 0.  1.
</event>
<event>
12    1  0.8133495E-002  0.2293837E+03  0.7818608E-02  0.1127321E+00
         21   -1    0    0  503  502  0.00000000000E+00  0.00000000000E+00  0.88286421231E+02  0.88286421231E+02  0.00000000000E+00 0. -1.
         21   -1    0    0  501  503 -0.00000000000E+00 -0.00000000000E+00 -0.61762383342E+03  0.61762383342E+03  0.00000000000E+00 0. -1.
          6    2    1    2  501    0  0.97190131628E+01 -0.14979305093E+03 -0.33527528692E+03  0.40544895123E+03  0.17160103936E+03 0.  0.
         24    2    3    3    0    0  0.11349514785E+02 -0.95004624461E+02 -0.89453870394E+02  0.15354680945E+03  0.80124513158E+02 0.  0.
         -6    2    1    2    0  502 -0.97190131628E+01  0.14979305093E+03 -0.19406212527E+03  0.30046130342E+03  0.17344875054E+03 0.  0.
        -24    2    5    5    0    0  0.40140254208E+02  0.14807117805E+03 -0.11802716162E+03  0.20939914286E+03  0.79882891616E+02 0.  0.
          5    1    3    3  501    0 -0.16305016225E+01 -0.54788426470E+02 -0.24582141653E+03  0.25190214178E+03  0.47000000000E+01 0. -1.
        -11    1    4    4    0    0  0.16277521921E+02  0.57947749052E+01  0.19489334838E+01  0.17387796808E+02  0.00000000000E+00 0.  1.
         12    1    4    4    0    0 -0.49280071360E+01 -0.10079939937E+03 -0.91402803878E+02  0.13615901264E+03  0.00000000000E+00 0. -1.
         -5    1    5    5    0  502 -0.49859267371E+02  0.17218728793E+01 -0.76034963646E+02  0.91062160559E+02  0.47000000000E+01 0.  1.
         11    1    6    6    0    0  0.15499241530E+02  0.79334609996E+02 -0.10917712795E+03  0.13584495610E+03  0.00000000000E+00 0. -1.
        -12    1    6    6    0    0  0.24641012678E+02  0.68736568056E+02 -0.88500336743E+01  0.73554186760E+02  0.00000000000E+00 0.  1.
</event>
<event>
12    1  0.8133495E-002  0.2723820E+03  0.7818608E-02  0.1100307E+00
         21   -1    0    0  501  502  0.00000000000E+00  0.00000000000E+00  0.10679204663E+04  0.10679204663E+04  0.00000000000E+00 0. -1.
         21   -1    0    0  502  503 -0.00000000000E+00 -0.00000000000E+00 -0.23311089176E+03  0.23311089176E+03  0.00000000000E+00 0.  1.
         -6    2    1    2    0  503 -0.19129402600E+03  0.90992117644E+02 -0.12814806120E+03  0.30102140066E+03  0.17122788386E+03 0.  0.
        -24    2    3    3    0    0 -0.18769133395E+03  0.10908317419E+03 -0.14730965129E+03  0.27401173107E+03  0.79089314496E+02 0.  0.
          6    2    1    2  501    0  0.19129402600E+03 -0.90992117644E+02  0.96295763578E+03  0.10000099574E+04  0.16691176351E+03 0.  0.
         24    2    5    5    0    0  0.14078723403E+03 -0.75403754659E+02  0.45024930259E+03  0.48456271666E+03  0.81054428698E+02 0.  0.
          5    1    5    5  501    0  0.50506791968E+02 -0.15588362985E+02  0.51270833319E+03  0.51544724077E+03  0.47000000000E+01 0. -1.
        -11    1    6    6    0    0  0.63710143625E+02  0.89202205533E+01  0.14476746967E+03  0.15841771685E+03  0.00000000000E+00 0.  1.
         12    1    6    6    0    0  0.77077090409E+02 -0.84323975212E+02  0.30548183292E+03  0.32614499981E+03  0.00000000000E+00 0. -1.
         -5    1    3    3    0  503 -0.36026920557E+01 -0.18091056549E+02  0.19161590088E+02  0.27009669598E+02  0.47000000000E+01 0.  1.
         13    1    4    4    0    0 -0.11201102163E+03  0.10759146249E+03 -0.96723583757E+02  0.18296951500E+03  0.00000000000E+00 0. -1.
        -14    1    4    4    0    0 -0.75680312321E+02  0.14917117041E+01 -0.50586067535E+02  0.91042216062E+02  0.00000000000E+00 0.  1.
</event>
<event>
12    1  0.8133495E-002  0.2105468E+03  0.7818608E-02  0.1141166E+00
         21   -1    0    0  501  502  0.00000000000E+00  0.00000000000E+00  0.39893854483E+02  0.39893854483E+02  0.00000000000E+00 0.  1.
         21   -1    0    0  502  503 -0.00000000000E+00 -0.00000000000E+00 -0.11105123166E+04  0.11105123166E+04  0.00000000000E+00 0. -1.
         -6    2    1    2    0  503 -0.11665914150E+03  0.36996205194E+02 -0.52800552975E+03  0.56837631857E+03  0.17112488296E+03 0.  0.
        -24    2    3    3    0    0 -0.95737452850E+02 -0.33298205656E+02 -0.26182272386E+03  0.29223433081E+03  0.81088439349E+02 0.  0.
          6    2    1    2  501    0  0.11665914150E+03 -0.36996205194E+02 -0.54261293237E+03  0.58202985252E+03  0.17132390478E+03 0.  0.
         24    2    5    5    0    0 -0.17756243119E+01 -0.41307375570E+02 -0.28578079511E+03  0.29913372905E+03  0.78108084620E+02 0.  0.
          5    1    5    5  501    0  0.11843476581E+03  0.43111703767E+01 -0.25683213726E+03  0.28289612347E+03  0.47000000000E+01 0. -1.
        -11    1    6    6    0    0  0.18612363017E+02 -0.14130945052E+02 -0.18779229177E+02  0.29979378140E+02  0.00000000000E+00 0.  1.
         12    1    6    6    0    0 -0.20387987329E+02 -0.27176430518E+02 -0.26700156593E+03  0.26915435091E+03  0.00000000000E+00 0. -1.
         -5    1    3    3    0  503 -0.20921688651E+02  0.70294410849E+02 -0.26618280589E+03  0.27614198776E+03  0.47000000000E+01 0.  1.
         11    1    4    4    0    0  0.14837899695E+02 -0.31836589603E+01 -0.32620379663E+02  0.35977605828E+02  0.00000000000E+00 0. -1.
        -12    1    4    4    0    0 -0.11057535254E+03 -0.30114546695E+02 -0.22920234420E+03  0.25625672498E+03  0.00000000000E+00 0.  1.
</event>
<event>
12    1  0.8133495E-002  0.1838375E+03  0.7818608E-02  0.1164307E+00
         21   -1    0    0  501  502  0.00000000000E+00  0.00000000000E+00  0.38188291433E+02  0.38188291433E+02  0.00000000000E+00 0. -1.
         21   -1    0    0  502  503 -0.00000000000E+00 -0.00000000000E+00 -0.14909119159E+04  0.14909119159E+04  0.00000000000E+00 0.  1.
         -6    2    1    2    0  503 -0.16814101314E+02  0.59252004214E+02 -0.12159682253E+04  0.12297865450E+04  0.17321289637E+03 0.  0.
        -24    2    3    3    0    0  0.32631878934E+02  0.80679917815E+02 -0.60374069072E+03  0.61517389913E+03  0.79762245926E+02 0.  0.
          6    2    1    2  501    0  0.16814101314E+02 -0.59252004214E+02 -0.23675539920E+03  0.29931366230E+03  0.17245879330E+03 0.  0.
         24    2    5    5    0    0  0.70146298586E+02 -0.69037462805E+02 -0.14442140307E+03  0.19213280904E+03  0.79817292412E+02 0.  0.
          5    1    5    5  501    0 -0.53332197272E+02  0.97854585914E+01 -0.92333996125E+02  0.10718085326E+03  0.47000000000E+01 0. -1.
        -11    1    6    6    0    0  0.36343451244E+01  0.10592947289E+02 -0.51975943972E+02  0.53168766664E+02  0.00000000000E+00 0.  1.
         12    1    6    6    0    0  0.66511953462E+02 -0.79630410094E+02 -0.92445459099E+02  0.13896404237E+03  0.00000000000E+00 0. -1.
         -5    1    3    3    0  503 -0.49445980248E+02 -0.21427913601E+02 -0.61222753456E+03  0.61461264592E+03  0.47000000000E+01 0.  1.
         11    1    4    4    0    0 -0.24184587322E+02  0.24012663555E+02 -0.11699188424E+03  0.12185484501E+03  0.00000000000E+00 0. -1.
        -12    1    4    4    0    0  0.56816466256E+02  0.56667254259E+02 -0.48674880649E+03  0.49331905412E+03  0.00000000000E+00 0.  1.
</event>
<event>
12    1  0.8133495E-002  0.1899162E+03  0.7818608E-02  0.1158625E+00
         21   -1    0    0  501  502  0.00000000000E+00  0.00000000000E+00  0.23811324827E+03  0.23811324827E+03  0.00000000000E+00 0.  1.
         21   -1    0    0  502  503 -0.00000000000E+00 -0.00000000000E+00 -0.68435399931E+03  0.68435399931E+03  0.00000000000E+00 0.  1.
         -6    2    1    2    0  503 -0.36682649457E+02 -0.71906718230E+02 -0.63029055885E+03  0.65828136125E+03  0.17190686172E+03 0.  0.
        -24    2    3    3    0    0 -0.28906180654E+02 -0.11387962384E+03 -0.54103942694E+03  0.55923565050E+03  0.78846149446E+02 0.  0.
          6    2    1    2  501    0  0.36682649457E+02  0.71906718230E+02  0.18404980780E+03  0.26418588632E+03  0.17147494826E+03 0.  0.
         24    2    5    5    0    0  0.66111582237E+02 -0.21765727769E+01  0.13931600972E+03  0.17265666267E+03  0.77626630904E+02 0.  0.
          5    1    5    5  501    0 -0.29428932780E+02  0.74083291007E+02  0.44733798083E+02  0.91529223650E+02  0.47000000000E+01 0. -1.
        -13    1    6    6    0    0  0.39428576221E+02  0.18260879013E+02  0.18454020136E+02  0.47208295715E+02  0.00000000000E+00 0.  1.
         14    1    6    6    0    0  0.26683006016E+02 -0.20437451790E+02  0.12086198959E+03  0.12544836696E+03  0.00000000000E+00 0. -1.
         -5    1    3    3    0  503 -0.77764688033E+01  0.41972905607E+02 -0.89251131904E+02  0.99045710751E+02  0.47000000000E+01 0.  1.
         13    1    4    4    0    0 -0.20187820924E+02 -0.33944670002E+01 -0.30015576543E+02  0.36331877946E+02  0.00000000000E+00 0. -1.
        -14    1    4    4    0    0 -0.87183597300E+01 -0.11048515684E+03 -0.51102385040E+03  0.52290377256E+03  0.00000000000E+00 0.  1.
</event>
<event>
12    1  0.8133495E-002  0.1771376E+03  0.7818608E-02  0.1170755E+00
         21   -1    0    0  503  502  0.00000000000E+00  0.00000000000E+00  0.51382630829E+03  0.51382630829E+03  0.00000000000E+00 0. -1.
         21   -1    0    0  501  503 -0.00000000000E+00 -0.00000000000E+00 -0.13265776787E+03  0.13265776787E+03  0.00000000000E+00 0. -1.
          6    2    1    2  501    0  0.35690521786E+02  0.22474232002E+02 -0.47074735688E+02  0.18328598237E+03  0.17204306479E+03 0.  0.
         24    2    3    3    0    0  0.69520803364E+02 -0.34676870246E+02 -0.19164364238E+02  0.11109307915E+03  0.77063428089E+02 0.  0.
         -6    2    1    2    0  502 -0.35690521786E+02 -0.22474232002E+02  0.42824327611E+03  0.46319809379E+03  0.17140964415E+03 0.  0.
        -24    2    5    5    0    0 -0.20134621352E+02 -0.24558949216E+02  0.43654193858E+03  0.44483264027E+03  0.79364152753E+02 0.  0.
          5    1    3    3  501    0 -0.33830281577E+02  0.57151102247E+02 -0.27910371450E+02  0.72192903212E+02  0.47000000000E+01 0. -1.
        -13    1    4    4    0    0 -0.62279173410E+01 -0.18676315272E+02  0.16655969297E+02  0.25787846358E+02  0.00000000000E+00 0.  1.
         14    1    4    4    0    0  0.75748720705E+02 -0.16000554973E+02 -0.35820333534E+02  0.85305232796E+02  0.00000000000E+00 0. -1.
         -5    1    5    5    0  502 -0.15555900434E+02  0.20847172145E+01 -0.82986624738E+01  0.18365453521E+02  0.47000000000E+01 0.  1.
         11    1    6    6    0    0  0.58787905813E+01 -0.48335313688E+02  0.29360874384E+03  0.29761881189E+03  0.00000000000E+00 0. -1.
        -12    1    6    6    0    0 -0.26013411933E+02  0.23776364472E+02  0.14293319474E+03  0.14721382838E+03  0.00000000000E+00 0.  1.
</event>
<event>
12    1  0.8133495E-002  0.1854541E+03  0.7818608E-02  0.1163504E+00
         21   -1    0    0  501  502  0.00000000000E+00  0.00000000000E+00  0.33140438589E+02  0.33140438589E+02  0.00000000000E+00 0.  1.
         21   -1    0    0  502  503 -0.00000000000E+00 -0.00000000000E+00 -0.10173261739E+04  0.10173261739E+04  0.00000000000E+00 0.  1.
         -6    2    1    2    0  503 -0.38028185050E+02 -0.39692731893E+02 -0.49607737307E+03  0.52831435103E+03  0.17320980806E+03 0.  0.
        -24    2    3    3    0    0  0.22864010521E+02  0.61962774802E+01 -0.12977165576E+03  0.15412772754E+03  0.79708951360E+02 0.  0.
          6    2    1    2  501    0  0.38028185050E+02  0.39692731893E+02 -0.48810836225E+03  0.52215226146E+03  0.17712017117E+03 0.  0.
         24    2    5    5    0    0 -0.67264544628E+01  0.87467295389E+02 -0.33987824056E+03  0.36004228135E+03  0.80109007026E+02 0.  0.
          5    1    5    5  501    0  0.44754639513E+02 -0.47774563496E+02 -0.14823012169E+03  0.16210998011E+03  0.47000000000E+01 0. -1.
        -13    1    6    6    0    0  0.47385490778E+01  0.50049443349E+02 -0.63912548669E+02  0.81315524375E+02  0.00000000000E+00 0.  1.
         14    1    6    6    0    0 -0.11465003541E+02  0.37417852039E+02 -0.27596569189E+03  0.27872675698E+03  0.00000000000E+00 0. -1.
         -5    1    3    3    0  503 -0.60892195571E+02 -0.45889009373E+02 -0.36630571731E+03  0.37418662349E+03  0.47000000000E+01 0.  1.
         13    1    4    4    0    0  0.25309557288E+02  0.18995990610E+02 -0.13603653292E+03  0.13966874968E+03  0.00000000000E+00 0. -1.
        -14    1    4    4    0    0 -0.24455467662E+01 -0.12799713130E+02  0.62648771524E+01  0.14458977866E+02  0.00000000000E+00 0.  1.
</event>
<event>
12    1  0.8133495E-002  0.3868103E+03  0.7818608E-02  0.1048467E+00
         21   -1    0    0  503  502  0.00000000000E+00  0.00000000000E+00  0.27791172738E+03  0.27791172738E+03  0.00000000000E+00 0. -1.
         21   -1    0    0  501  503 -0.00000000000E+00 -0.00000000000E+00 -0.56213075459E+03  0.56213075459E+03  0.00000000000E+00 0. -1.
          6    2    1    2  501    0  0.43337106540E+01 -0.34531013820E+03 -0.55190141715E+02  0.39072770145E+03  0.17425358632E+03 0.  0.
         24    2    3    3    0    0 -0.16086362665E+02 -0.12201505405E+03 -0.75641464000E+02  0.16552108391E+03  0.80803178550E+02 0.  0.
         -6    2    1    2    0  502 -0.43337106540E+01  0.34531013820E+03 -0.22902888549E+03  0.44931478053E+03  0.17369993962E+03 0.  0.
        -24    2    5    5    0    0 -0.47094639030E+02  0.28000981294E+03 -0.12761184639E+03  0.32125176755E+03  0.79337976057E+02 0.  0.
          5    1    3    3  501    0  0.20420073319E+02 -0.22329508415E+03  0.20451322285E+02  0.22520661754E+03  0.47000000000E+01 0. -1.
        -11    1    4    4    0    0 -0.40442396443E+02 -0.32009918417E+02 -0.12998849145E+02  0.53190153095E+02  0.00000000000E+00 0.  1.
         12    1    4    4    0    0  0.24356033779E+02 -0.90005135630E+02 -0.62642614856E+02  0.11233093081E+03  0.00000000000E+00 0. -1.
         -5    1    5    5    0  502  0.42760928376E+02  0.65300325252E+02 -0.10141703909E+03  0.12806301298E+03  0.47000000000E+01 0.  1.
         11    1    6    6    0    0  0.29796409674E+00  0.12831125341E+03 -0.93337599239E+02  0.15866875548E+03  0.00000000000E+00 0. -1.
        -12    1    6    6    0    0 -0.47392603127E+02  0.15169855954E+03 -0.34274247154E+02  0.16258301207E+03  0.00000000000E+00 0.  1.
</event>
<event>
12    1  0.8133495E-002  0.3782050E+03  0.7818608E-02  0.1051667E+00
         21   -1    0    0  503  502  0.00000000000E+00  0.00000000000E+00  0.12310126781E+04  0.12310126781E+04  0.00000000000E+00 0.  1.
         21   -1    0    0  501  503 -0.00000000000E+00 -0.00000000000E+00 -0.13369508901E+03  0.13369508901E+03  0.00000000000E+00 0. -1.
          6    2    1    2  501    0  0.22560221747E+03  0.25027716122E+03  0.30068586209E+03  0.48316765870E+03  0.17176722854E+03 0.  0.
         24    2    3    3    0    0  0.18034981329E+03  0.11246628001E+03  0.22147340766E+03  0.31783066345E+03  0.82408379634E+02 0.  0.
         -6    2    1    2    0  502 -0.22560221747E+03 -0.25027716122E+03  0.79663172702E+03  0.88154010843E+03  0.17016414524E+03 0.  0.
        -24    2    5    5    0    0 -0.10833717519E+03 -0.20334674970E+03  0.44234908369E+03  0.50538610403E+03  0.81581604301E+02 0.  0.
          5    1    3    3  501    0  0.45252404176E+02  0.13781088120E+03  0.79212454430E+02  0.16533699525E+03  0.47000000000E+01 0. -1.
        -13    1    4    4    0    0  0.51218261753E+02  0.76044082899E+02  0.11146345002E+03  0.14432641328E+03  0.00000000000E+00 0.  1.
         14    1    4    4    0    0  0.12913155154E+03  0.36422197112E+02  0.11000995763E+03  0.17350425016E+03  0.00000000000E+00 0. -1.
         -5    1    5    5    0  502 -0.11726504228E+03 -0.46930411518E+02  0.35428264333E+03  0.37615400440E+03  0.47000000000E+01 0.  1.
         13    1    6    6    0    0  0.94016577785E+01 -0.49619009872E+02  0.81910967288E+02  0.96228082552E+02  0.00000000000E+00 0. -1.
        -14    1    6    6    0    0 -0.11773883297E+03 -0.15372773983E+03  0.36043811641E+03  0.40915802148E+03  0.00000000000E+00 0.  1.
</event>
<event>
12    1  0.8133495E-002  0.1903556E+03  0.7818608E-02  0.1159047E+00
         21   -1    0    0  503  502  0.00000000000E+00  0.00000000000E+00  0.35425779771E+03  0.35425779771E+03  0.00000000000E+00 0. -1.
         21   -1    0    0  501  503 -0.00000000000E+00 -0.00000000000E+00 -0.11948656469E+03  0.11948656469E+03  0.00000000000E+00 0. -1.
          6    2    1    2  501    0 -0.13357427591E+02 -0.69634889230E+02  0.21161699421E+03  0.28198575471E+03  0.17235653440E+03 0.  0.
         24    2    3    3    0    0 -0.43536801284E+02  0.16718058152E+02  0.12730173297E+03  0.15749166089E+03  0.80143281050E+02 0.  0.
         -6    2    1    2    0  502  0.13357427591E+02  0.69634889230E+02  0.23154238809E+02  0.19175860770E+03  0.17665731284E+03 0.  0.
        -24    2    5    5    0    0  0.21792377896E+02  0.11164420894E+03  0.41204991169E+02  0.14502691620E+03  0.79972607821E+02 0.  0.
          5    1    3    3  501    0  0.30179373692E+02 -0.86352947382E+02  0.84315261239E+02  0.12449409382E+03  0.47000000000E+01 0. -1.
        -13    1    4    4    0    0  0.45033472136E+01  0.27886687090E+02  0.93564121679E+02  0.97735317662E+02  0.00000000000E+00 0.  1.
         14    1    4    4    0    0 -0.48040148497E+02 -0.11168628938E+02  0.33737611292E+02  0.59756343226E+02  0.00000000000E+00 0. -1.
         -5    1    5    5    0  502 -0.84349503048E+01 -0.42009319710E+02 -0.18050752360E+02  0.46731691494E+02  0.47000000000E+01 0.  1.
         11    1    6    6    0    0 -0.77877124204E+01  0.10438393303E+03  0.16834671035E+02  0.10601914963E+03  0.00000000000E+00 0. -1.
        -12    1    6    6    0    0  0.29580090317E+02  0.72602759091E+01  0.24370320134E+02  0.39007766571E+02  0.00000000000E+00 0.  1.
</event>
<event>
12    1  0.8133495E-002  0.1732834E+03  0.7818608E-02  0.1175519E+00
         21   -1    0    0  501  502  0.00000000000E+00  0.00000000000E+00  0.58942431807E+03  0.58942431807E+03  0.00000000000E+00 0.  1.
         21   -1    0    0  502  503 -0.00000000000E+00 -0.00000000000E+00 -0.49799270368E+02  0.49799270368E+02  0.00000000000E+00 0.  1.
         -6    2    1    2    0  503 -0.10845434166E+02  0.12961191147E+02  0.25645586345E+03  0.30724177196E+03  0.16835165761E+03 0.  0.
        -24    2    3    3    0    0 -0.54559258168E+02  0.39757341173E+02  0.11849341405E+03  0.15998465155E+03  0.83648315769E+02 0.  0.
          6    2    1    2  501    0  0.10845434166E+02 -0.12961191147E+02  0.28316918425E+03  0.33198181648E+03  0.17245730963E+03 0.  0.
         24    2    5    5    0    0 -0.59570730031E+02  0.30801657609E+01  0.18358391371E+03  0.20887585635E+03  0.79799189804E+02 0.  0.
          5    1    5    5  501    0  0.70416164197E+02 -0.16041356908E+02  0.99585270540E+02  0.12310596013E+03  0.47000000000E+01 0. -1.
        -11    1    6    6    0    0 -0.55877205822E+02 -0.20717278162E+02  0.17223456363E+03  0.18225315540E+03  0.00000000000E+00 0.  1.
         12    1    6    6    0    0 -0.36935242090E+01  0.23797443923E+02  0.11349350082E+02  0.26622700946E+02  0.00000000000E+00 0. -1.
         -5    1    3    3    0  503  0.43713824002E+02 -0.26796150026E+02  0.13796244941E+03  0.14725712041E+03  0.47000000000E+01 0.  1.
         11    1    4    4    0    0 -0.73989595699E+02  0.31374687174E+02  0.68140754272E+02  0.10536599859E+03  0.00000000000E+00 0. -1.
        -12    1    4    4    0    0  0.19430337531E+02  0.83826539992E+01  0.50352659774E+02  0.54618652958E+02  0.00000000000E+00 0.  1.
</event>
<event>
12    1  0.8133495E-002  0.1936103E+03  0.7818608E-02  0.1155397E+00
         21   -1    0    0  501  502  0.00000000000E+00  0.00000000000E+00  0.15390089362E+03  0.15390089362E+03  0.00000000000E+00 0.  1.
         21   -1    0    0  502  503 -0.00000000000E+00 -0.00000000000E+00 -0.29061572967E+03  0.29061572967E+03  0.00000000000E+00 0.  1.
         -6    2    1    2    0  503  0.89194168972E+02  0.12143198669E+02 -0.15850470945E+03  0.24968396983E+03  0.17063201581E+03 0.  0.
        -24    2    3    3    0    0  0.31304144152E+01 -0.60824036435E+01 -0.13327488273E+03  0.15804458646E+03  0.84670548679E+02 0.  0.
          6    2    1    2  501    0 -0.89194168972E+02 -0.12143198669E+02  0.21789873397E+02  0.19483265346E+03  0.17141151426E+03 0.  0.
         24    2    5    5    0    0 -0.57833257869E+02 -0.12266756261E+01  0.80533577449E+02  0.12718954601E+03  0.79657598936E+02 0.  0.
          5    1    5    5  501    0 -0.31360911103E+02 -0.10916523043E+02 -0.58743704051E+02  0.67643107456E+02  0.47000000000E+01 0. -1.
        -13    1    6    6    0    0 -0.30460144373E+02 -0.37370691480E+02  0.61176696773E+02  0.77890803083E+02  0.00000000000E+00 0.  1.
         14    1    6    6    0    0 -0.27373113496E+02  0.36144015854E+02  0.19356880676E+02  0.49298742925E+02  0.00000000000E+00 0. -1.
         -5    1    3    3    0  503  0.86063754557E+02  0.18225602313E+02 -0.25229826719E+02  0.91639383370E+02  0.47000000000E+01 0.  1.
         11    1    4    4    0    0  0.31084099719E+02 -0.16934122925E+02 -0.12025024623E+03  0.12535193454E+03  0.00000000000E+00 0. -1.
        -12    1    4    4    0    0 -0.27953685304E+02  0.10851719281E+02 -0.13024636498E+02  0.32692651916E+02  0.00000000000E+00 0.  1.
</event>
<event>
12    1  0.8133495E-002  0.2408074E+03  0.7818608E-02  0.1119916E+00
         21   -1    0    0  503  502  0.00000000000E+00  0.00000000000E+00  0.17719978404E+03  0.17719978404E+03  0.00000000000E+00 0.  1.
         21   -1    0    0  501  503 -0.00000000000E+00 -0.00000000000E+00 -0.34340763688E+03  0.34340763688E+03  0.00000000000E+00 0. -1.
          6    2    1    2  501    0 -0.15049947132E+03  0.72074885964E+02 -0.17336398225E+02  0.23749807518E+03  0.16810682602E+03 0.  0.
         24    2    3    3    0    0 -0.11398254550E+03  0.11113387362E+03 -0.32649839383E+02  0.18167978186E+03  0.81232829458E+02 0.  0.
         -6    2    1    2    0  502  0.15049947132E+03 -0.72074885964E+02 -0.14887145462E+03  0.28310934573E+03  0.17361829278E+03 0.  0.
        -24    2    5    5    0    0  0.14787694202E+03 -0.21730576649E+00 -0.11737540008E+03  0.20446787485E+03  0.78501529275E+02 0.  0.
          5    1    3    3  501    0 -0.36516925824E+02 -0.39058987660E+02  0.15313441158E+02  0.55818293316E+02  0.47000000000E+01 0. -1.
        -11    1    4    4    0    0 -0.66689785497E+02  0.54338863599E+02  0.23136646065E+02  0.89081670270E+02  0.00000000000E+00 0.  1.
         12    1    4    4    0    0 -0.47292759998E+02  0.56795010024E+02 -0.55786485448E+02  0.92598111593E+02  0.00000000000E+00 0. -1.
         -5    1    5    5    0  502  0.26225293014E+01 -0.71857580197E+02 -0.31496054539E+02  0.78641470887E+02  0.47000000000E+01 0.  1.
         11    1    6    6    0    0  0.60531002946E+02  0.34509163889E+02 -0.71639596348E+02  0.99935561613E+02  0.00000000000E+00 0. -1.
        -12    1    6    6    0    0  0.87345939072E+02 -0.34726469656E+02 -0.45735803729E+02  0.10453231323E+03  0.00000000000E+00 0.  1.
</event>
<event>
12    1  0.8133495E-002  0.2506947E+03  0.7818608E-02  0.1112917E+00
         21   -1    0    0  503  502  0.00000000000E+00  0.00000000000E+00  0.17451325258E+04  0.17451325258E+04  0.00000000000E+00 0.  1.
         21   -1    0    0  501  503 -0.00000000000E+00 -0.00000000000E+00 -0.38210443947E+02  0.38210443947E+02  0.00000000000E+00 0.  1.
          6    2    1    2  501    0 -0.15443212932E+03 -0.95927371149E+02  0.63791242096E+03  0.68540506168E+03  0.17261662335E+03 0.  0.
         24    2    3    3    0    0 -0.74435832289E+02 -0.45304541779E+02  0.15951809739E+03  0.19771120564E+03  0.77784978026E+02 0.  0.
         -6    2    1    2    0  502  0.15443212932E+03  0.95927371149E+02  0.10690096609E+04  0.10979379081E+04  0.17214718061E+03 0.  0.
        -24    2    5    5    0    0  0.71608881890E+02  0.77843104105E+02  0.35496239081E+03  0.37886049572E+03  0.79684349215E+02 0.  0.
          5    1    3    3  501    0 -0.79996297033E+02 -0.50622829369E+02  0.47839432357E+03  0.48769385604E+03  0.47000000000E+01 0. -1.
        -13    1    4    4    0    0 -0.57263435422E+02 -0.13604214921E+02  0.14892595199E+03  0.16013467731E+03  0.00000000000E+00 0.  1.
         14    1    4    4    0    0 -0.17172396867E+02 -0.31700326858E+02  0.10592145391E+02  0.37576528327E+02  0.00000000000E+00 0. -1.
         -5    1    5    5    0  502  0.82823247432E+02  0.18084267044E+02  0.71404727009E+03  0.71907741235E+03  0.47000000000E+01 0.  1.
         11    1    6    6    0    0  0.32988990805E+02  0.85127020935E+02  0.21733219906E+03  0.23572901382E+03  0.00000000000E+00 0. -1.
        -12    1    6    6    0    0  0.38619891084E+02 -0.72839168307E+01  0.13763019175E+03  0.14313148191E+03  0.00000000000E+00 0.  1.
</event>
<event>
12    1  0.8133495E-002  0.4633450E+03  0.7818608E-02  0.1023854E+00
         21   -1    0    0  501  502  0.00000000000E+00  0.00000000000E+00  0.71034985584E+03  0.71034985584E+03  0.00000000000E+00 0. -1.
         21   -1    0    0  502  503 -0.00000000000E+00 -0.00000000000E+00 -0.53346469149E+03  0.53346469149E+03  0.00000000000E+00 0.  1.
         -6    2    1    2    0  503  0.30093071193E+03  0.30746669742E+03 -0.32128822731E+03  0.56383929488E+03  0.17202779436E+03 0.  0.
        -24    2    3    3    0    0  0.23680864841E+03  0.27776657616E+03 -0.32062113072E+03  0.49301365509E+03  0.83856710217E+02 0.  0.
          6    2    1    2  501    0 -0.30093071193E+03 -0.30746669742E+03  0.49817339167E+03  0.67997525246E+03  0.17057125310E+03 0.  0.
         24    2    5    5    0    0 -0.18728705673E+03 -0.27375919660E+03  0.33606249050E+03  0.47909441649E+03  0.81073565714E+02 0.  0.
          5    1    5    5  501    0 -0.11364365520E+03 -0.33707500826E+02  0.16211090117E+03  0.20088083596E+03  0.47000000000E+01 0. -1.
        -11    1    6    6    0    0 -0.18949718399E+03 -0.27666558624E+03  0.32325083003E+03  0.46577261455E+03  0.00000000000E+00 0.  1.
         12    1    6    6    0    0  0.22101272589E+01  0.29063896389E+01  0.12811660464E+02  0.13321801946E+02  0.00000000000E+00 0. -1.
         -5    1    3    3    0  503  0.64122063520E+02  0.29700121260E+02 -0.66709659105E+00  0.70825639784E+02  0.47000000000E+01 0.  1.
         13    1    4    4    0    0  0.42798143497E+02  0.60130704127E+02 -0.25306716014E+02  0.78024435538E+02  0.00000000000E+00 0. -1.
        -14    1    4    4    0    0  0.19401050491E+03  0.21763587204E+03 -0.29531441471E+03  0.41498921956E+03  0.00000000000E+00 0.  1.
</event>
<event>
12    1  0.8133495E-002  0.1802719E+03  0.7818608E-02  0.1168041E+00
         21   -1    0    0  503  502  0.00000000000E+00  0.00000000000E+00  0.76665798150E+02  0.76665798150E+02  0.00000000000E+00 0. -1.
         21   -1    0    0  501  503 -0.00000000000E+00 -0.00000000000E+00 -0.47618466211E+03  0.47618466211E+03  0.00000000000E+00 0. -1.
          6    2    1    2  501    0 -0.75295183652E+01  0.53029465138E+02 -0.29651666370E+03  0.34701596379E+03  0.17213114028E+03 0.  0.
         24    2    3    3    0    0 -0.32156327871E+02  0.30899903937E+02 -0.29955047153E+03  0.31343782782E+03  0.80770993758E+02 0.  0.
         -6    2    1    2    0  502  0.75295183652E+01 -0.53029465138E+02 -0.10300220026E+03  0.20583449647E+03  0.16996931740E+03 0.  0.
        -24    2    5    5    0    0  0.62482273330E+02 -0.66018096657E+02 -0.62536943999E+02  0.13620665153E+03  0.79868385416E+02 0.  0.
          5    1    3    3  501    0  0.24626809506E+02  0.22129561200E+02  0.30338078238E+01  0.33578135971E+02  0.47000000000E+01 0. -1.
        -11    1    4    4    0    0  0.19700555539E+02  0.29839350711E+02 -0.17326077792E+03  0.17691183088E+03  0.00000000000E+00 0.  1.
         12    1    4    4    0    0 -0.51856883410E+02  0.10605532262E+01 -0.12628969360E+03  0.13652599694E+03  0.00000000000E+00 0. -1.
         -5    1    5    5    0  502 -0.54952754965E+02  0.12988631519E+02 -0.40465256260E+02  0.69627844941E+02  0.47000000000E+01 0.  1.
         13    1    6    6    0    0  0.63542279585E+01 -0.45455472048E+02 -0.61093314042E+02  0.76413147905E+02  0.00000000000E+00 0. -1.
        -14    1    6    6    0    0  0.56128045372E+02 -0.20562624609E+02 -0.14436299564E+01  0.59793503623E+02  0.00000000000E+00 0.  1.
</event>
<event>
12    1  0.8133495E-002  0.3127874E+03  0.7818608E-02  0.1079034E+00
         21   -1    0    0  501  502  0.00000000000E+00  0.00000000000E+00  0.17446407348E+03  0.17446407348E+03  0.00000000000E+00 0.  1.
         21   -1    0    0  502  503 -0.00000000000E+00 -0.00000000000E+00 -0.73844306371E+03  0.73844306371E+03  0.00000000000E+00 0. -1.
         -6    2    1    2    0  503 -0.18021175788E+03  0.18843185856E+03 -0.50599338736E+03  0.59479036628E+03  0.17252080676E+03 0.  0.
        -24    2    3    3    0    0 -0.10877246499E+03  0.16193871885E+03 -0.24396959737E+03  0.32187276783E+03  0.77622911750E+02 0.  0.
          6    2    1    2  501    0  0.18021175788E+03 -0.18843185856E+03 -0.57985602871E+02  0.31811677092E+03  0.17278051626E+03 0.  0.
         24    2    5    5    0    0  0.12661533792E+03 -0.20072589890E+03 -0.72858165812E+02  0.26095906987E+03  0.80430053668E+02 0.  0.
          5    1    5    5  501    0  0.53596419966E+02  0.12294040346E+02  0.14872562942E+02  0.57157701053E+02  0.47000000000E+01 0. -1.
        -13    1    6    6    0    0  0.90329834278E+02 -0.17422967512E+03 -0.29386874285E+02  0.19844154563E+03  0.00000000000E+00 0.  1.
         14    1    6    6    0    0  0.36285503640E+02 -0.26496223785E+02 -0.43471291528E+02  0.62517524234E+02  0.00000000000E+00 0. -1.
         -5    1    3    3    0  503 -0.71439292892E+02  0.26493139709E+02 -0.26202378999E+03  0.27291759844E+03  0.47000000000E+01 0.  1.
         11    1    4    4    0    0 -0.44210610382E+02  0.12864649991E+03 -0.17552621735E+03  0.22206745144E+03  0.00000000000E+00 0. -1.
        -12    1    4    4    0    0 -0.64561854611E+02  0.33292218933E+02 -0.68443380025E+02  0.99805316399E+02  0.00000000000E+00 0.  1.
</event>
<event>
12    1  0.8133495E-002  0.1844636E+03  0.7818608E-02  0.1164059E+00
         21   -1    0    0  503  502  0.00000000000E+00  0.00000000000E+00  0.47860942113E+03  0.47860942113E+03  0.00000000000E+00 0.  1.
         21   -1    0    0  501  503 -0.00000000000E+00 -0.00000000000E+00 -0.10141014516E+03  0.10141014516E+03  0.00000000000E+00 0.  1.
          6    2    1    2  501    0  0.62797252600E+02 -0.16211792340E+02  0.27127670963E+02  0.18432151305E+03  0.17038835787E+03 0.  0.
         24    2    3    3    0    0 -0.34964026870E+01  0.34707682711E+02 -0.16335849780E+02  0.89988012609E+02  0.81327328459E+02 0.  0.
         -6    2    1    2    0  502 -0.62797252600E+02  0.16211792340E+02  0.35007160500E+03  0.39569805323E+03  0.17268614177E+03 0.  0.
        -24    2    5    5    0    0 -0.94577248551E+02 -0.84791688295E+01  0.32480550444E+03  0.34794789571E+03  0.80946711893E+02 0.  0.
          5    1    3    3  501    0  0.66293655287E+02 -0.50919475051E+02  0.43463520742E+02  0.94333500445E+02  0.47000000000E+01 0. -1.
        -11    1    4    4    0    0  0.43967580043E+01 -0.90297818309E+01 -0.38877881242E+02  0.40154178994E+02  0.00000000000E+00 0.  1.
         12    1    4    4    0    0 -0.78931606913E+01  0.43737464542E+02  0.22542031462E+02  0.49833833614E+02  0.00000000000E+00 0. -1.
         -5    1    5    5    0  502  0.31779995951E+02  0.24690961169E+02  0.25266100560E+02  0.47750157525E+02  0.47000000000E+01 0.  1.
         13    1    6    6    0    0 -0.83161346796E+01  0.88604219294E+01  0.76664645592E+00  0.12175915553E+02  0.00000000000E+00 0. -1.
        -14    1    6    6    0    0 -0.86261113871E+02 -0.17339590759E+02  0.32403885798E+03  0.33577198016E+03  0.00000000000E+00 0.  1.
</event>
<event>
12    1  0.8133495E-002  0.2131183E+03  0.7818608E-02  0.1139126E+00
         21   -1    0    0  501  502  0.00000000000E+00  0.00000000000E+00  0.35653477230E+03  0.35653477230E+03  0.00000000000E+00 0. -1.
         21   -1    0    0  502  503 -0.00000000000E+00 -0.00000000000E+00 -0.30970779835E+03  0.30970779835E+03  0.00000000000E+00 0. -1.
         -6    2    1    2    0  503  0.65134830435E+02 -0.10594416568E+03 -0.23218674963E+03  0.31514707024E+03  0.17303258883E+03 0.  0.
        -24    2    3    3    0    0  0.24477578835E+02 -0.44878706867E+02 -0.27682042519E+02  0.97831015608E+02  0.78685207893E+02 0.  0.
          6    2    1    2  501    0 -0.65134830435E+02  0.10594416568E+03  0.27901372358E+03  0.35109550042E+03  0.17306842603E+03 0.  0.
         24    2    5    5    0    0 -0.40597658984E+01  0.10688228713E+03  0.12296332394E+03  0.18345045632E+03  0.84224615702E+02 0.  0.
          5    1    5    5  501    0 -0.61075064536E+02 -0.93812145375E+00  0.15605039965E+03  0.16764504409E+03  0.47000000000E+01 0. -1.
        -11    1    6    6    0    0 -0.35559189683E+01  0.40289308456E+02 -0.34250999904E+01  0.40590691611E+02  0.00000000000E+00 0.  1.
         12    1    6    6    0    0 -0.50384693010E+00  0.66592978673E+02  0.12638842393E+03  0.14285976471E+03  0.00000000000E+00 0. -1.
         -5    1    3    3    0  503  0.40657251599E+02 -0.61065458808E+02 -0.20450470711E+03  0.21731605463E+03  0.47000000000E+01 0.  1.
         11    1    4    4    0    0 -0.55397587476E+01 -0.20274839269E+02 -0.49165501332E+02  0.53469660141E+02  0.00000000000E+00 0. -1.
        -12    1    4    4    0    0  0.30017337583E+02 -0.24603867598E+02  0.21483458813E+02  0.44361355467E+02  0.00000000000E+00 0.  1.
</event>
<event>
12    1  0.8133495E-002  0.1765734E+03  0.7818608E-02  0.1171497E+00
         21   -1    0    0  503  502  0.00000000000E+00  0.00000000000E+00  0.91303245462E+02  0.91303245462E+02  0.00000000000E+00 0. -1.
         21   -1    0    0  501  503 -0.00000000000E+00 -0.00000000000E+00 -0.62025260250E+03  0.62025260250E+03  0.00000000000E+00 0.  1.
          6    2    1    2  501    0 -0.26178580251E+02  0.16552431378E+02 -0.50354770895E+03  0.53316467744E+03  0.17246732161E+03 0.  0.
         24    2    3    3    0    0 -0.55379816012E+02 -0.65721191995E+01 -0.47804125994E+03  0.48777606707E+03  0.79321678190E+02 0.  0.
         -6    2    1    2    0  502  0.26178580251E+02 -0.16552431378E+02 -0.25401648085E+02  0.17839117053E+03  0.17383574129E+03 0.  0.
        -24    2    5    5    0    0  0.56758405680E+02  0.34696063165E+02 -0.46622708336E+02  0.11487772853E+03  0.81227348626E+02 0.  0.
          5    1    3    3  501    0  0.29201235761E+02  0.23124550578E+02 -0.25506449012E+02  0.45388610362E+02  0.47000000000E+01 0. -1.
        -13    1    4    4    0    0 -0.18323484124E+02  0.36076584084E+02 -0.20119470940E+03  0.20522324693E+03  0.00000000000E+00 0.  1.
         14    1    4    4    0    0 -0.37056331888E+02 -0.42648703283E+02 -0.27684655054E+03  0.28255282014E+03  0.00000000000E+00 0. -1.
         -5    1    5    5    0  502 -0.30579825430E+02 -0.51248494544E+02  0.21221060251E+02  0.63513441998E+02  0.47000000000E+01 0.  1.
         13    1    6    6    0    0  0.17507894406E+02 -0.54278777918E+01  0.20420239302E+02  0.27440378951E+02  0.00000000000E+00 0. -1.
        -14    1    6    6    0    0  0.39250511274E+02  0.40123940957E+02 -0.67042947638E+02  0.87437349578E+02  0.00000000000E+00 0.  1.
</event>
<event>
12    1  0.8133495E-002  0.2089519E+03  0.7818608E-02  0.1142409E+00
         21   -1    0    0  503  502  0.00000000000E+00  0.00000000000E+00  0.12282285209E+03  0.12282285209E+03  0.00000000000E+00 0. -1.
         21   -1    0    0  501  503 -0.00000000000E+00 -0.00000000000E+00 -0.14368762963E+04  0.14368762963E+04  0.00000000000E+00 0. -1.
          6    2    1    2  501    0 -0.60582579146E+02  0.10193485346E+03 -0.13336142849E+04  0.13498844308E+04  0.17204636704E+03 0.  0.
         24    2    3    3    0    0 -0.84244229393E+02  0.11758616085E+03 -0.12606883243E+04  0.12714935969E+04  0.80232913861E+02 0.  0.
         -6    2    1    2    0  502  0.60582579146E+02 -0.10193485346E+03  0.19560840738E+02  0.20981471753E+03  0.17198437706E+03 0.  0.
        -24    2    5    5    0    0  0.21335977173E+02  0.86996845771E+01  0.47478369426E+02  0.89059696174E+02  0.71739288298E+02 0.  0.
          5    1    3    3  501    0  0.23661650247E+02 -0.15651307384E+02 -0.72925960594E+02  0.78390833927E+02  0.47000000000E+01 0. -1.
        -13    1    4    4    0    0 -0.66115828995E+02  0.46165061751E+02 -0.42642686691E+03  0.43398431838E+03  0.00000000000E+00 0.  1.
         14    1    4    4    0    0 -0.18128400398E+02  0.71421099096E+02 -0.83426145740E+03  0.83750927851E+03  0.00000000000E+00 0. -1.
         -5    1    5    5    0  502  0.39246601974E+02 -0.11063453804E+03 -0.27917528688E+02  0.12075502135E+03  0.47000000000E+01 0.  1.
         13    1    6    6    0    0 -0.24800098097E+02  0.55002998565E+01  0.30737732236E+02  0.39876137565E+02  0.00000000000E+00 0. -1.
        -14    1    6    6    0    0  0.46136075269E+02  0.31993847206E+01  0.16740637190E+02  0.49183558608E+02  0.00000000000E+00 0.  1.
</event>
<event>
12    1  0.8133495E-002  0.2528545E+03  0.7818608E-02  0.1111786E+00
         21   -1    0    0  503  502  0.00000000000E+00  0.00000000000E+00  0.76716139004E+02  0.76716139004E+02  0.00000000000E+00 0.  1.
         21   -1    0    0  501  503 -0.00000000000E+00 -0.00000000000E+00 -0.99814746589E+03  0.99814746589E+03  0.00000000000E+00 0. -1.
          6    2    1    2  501    0 -0.18119247658E+03  0.28563067904E+02 -0.23993838123E+03  0.34857689209E+03  0.17403695152E+03 0.  0.
         24    2    3    3    0    0 -0.13843857415E+03  0.86153060514E+01 -0.71551462708E+02  0.17364246522E+03  0.76109339765E+02 0.  0.
         -6    2    1    2    0  502  0.18119247658E+03 -0.28563067904E+02 -0.68149294566E+03  0.72628671280E+03  0.17150274574E+03 0.  0.
        -24    2    5    5    0    0  0.13403953613E+03 -0.83498169479E+02 -0.51525384741E+03  0.54490646866E+03  0.80610115799E+02 0.  0.
          5    1    3    3  501    0 -0.42753902432E+02  0.19947761852E+02 -0.16838691853E+03  0.17493442688E+03  0.47000000000E+01 0. -1.
        -11    1    4    4    0    0 -0.78106734342E+02  0.19970838735E+02 -0.77670183719E+02  0.11194710263E+03  0.00000000000E+00 0.  1.
         12    1    4    4    0    0 -0.60331839810E+02 -0.11355532684E+02  0.61187210108E+01  0.61695362582E+02  0.00000000000E+00 0. -1.
         -5    1    5    5    0  502  0.47152940450E+02  0.54935101575E+02 -0.16623909825E+03  0.18138024414E+03  0.47000000000E+01 0.  1.
         13    1    6    6    0    0  0.26089343746E+02 -0.20977945352E+02 -0.24468250929E+03  0.24696205863E+03  0.00000000000E+00 0. -1.
        -14    1    6    6    0    0  0.10795019239E+03 -0.62520224127E+02 -0.27057133811E+03  0.29794441003E+03  0.00000000000E+00 0.  1.
</event>
<event>
12    1  0.8133495E-002  0.2116721E+03  0.7818608E-02  0.1140295E+00
         21   -1    0    0  503  502  0.00000000000E+00  0.00000000000E+00  0.36540497894E+03  0.36540497894E+03  0.00000000000E+00 0.  1.
         21   -1    0    0  501  503 -0.00000000000E+00 -0.00000000000E+00 -0.15914828730E+03  0.15914828730E+03  0.00000000000E+00 0. -1.
          6    2    1    2  501    0 -0.84105818295E+02 -0.89867286521E+02 -0.22811294280E+02  0.21266032722E+03  0.17191318091E+03 0.  0.
         24    2    3    3    0    0 -0.20437070248E+02  0.14434125283E+02  0.14796795746E+02  0.84719120346E+02  0.79576167128E+02 0.  0.
         -6    2    1    2    0  502  0.84105818295E+02  0.89867286521E+02  0.22906798592E+03  0.31189293901E+03  0.17220669375E+03 0.  0.
        -24    2    5    5    0    0  0.62267205433E+02 -0.49664349942E+00  0.18025694125E+03  0.20678740660E+03  0.79943824858E+02 0.  0.
          5    1    3    3  501    0 -0.63668748047E+02 -0.10430141180E+03 -0.37608090026E+02  0.12794120688E+03  0.47000000000E+01 0. -1.
        -11    1    4    4    0    0  0.28531313641E+02 -0.52901280974E+01 -0.26027904970E+01  0.29134100840E+02  0.00000000000E+00 0.  1.
         12    1    4    4    0    0 -0.48968383889E+02  0.19724253381E+02  0.17399586243E+02  0.55585019506E+02  0.00000000000E+00 0. -1.
         -5    1    5    5    0  502  0.21838612862E+02  0.90363930020E+02  0.48811044669E+02  0.10510553240E+03  0.47000000000E+01 0.  1.
         11    1    6    6    0    0  0.79197492519E+02  0.11758428137E+02  0.14970358184E+03  0.16976944917E+03  0.00000000000E+00 0. -1.
        -12    1    6    6    0    0 -0.16930287086E+02 -0.12255071637E+02  0.30553359407E+02  0.37017957436E+02  0.00000000000E+00 0.  1.
</event>
<event>
12    1  0.8133495E-002  0.2281602E+03  0.7818608E-02  0.1128116E+00
         21   -1    0    0  501  502  0.00000000000E+00  0.00000000000E+00  0.24671686342E+03  0.24671686342E+03  0.00000000000E+00 0. -1.
         21   -1    0    0  502  503 -0.00000000000E+00 -0.00000000000E+00 -0.21433227869E+03  0.21433227869E+03  0.00000000000E+00 0. -1.
         -6    2    1    2    0  503  0.33745392844E+02  0.14430384683E+03 -0.16194464122E+02  0.22873419222E+03  0.17347829337E+03 0.  0.
        -24    2    3    3    0    0  0.24345601459E+02  0.17164481913E+03 -0.35503842519E+02  0.19365104899E+03  0.78648291126E+02 0.  0.
          6    2    1    2  501    0 -0.33745392844E+02 -0.14430384683E+03  0.48579048854E+02  0.23231494989E+03  0.17218583044E+03 0.  0.
         24    2    5    5    0    0 -0.34862824222E+02 -0.37636213900E+02 -0.31011185166E+02  0.99138645992E+02  0.78961233616E+02 0.  0.
          5    1    5    5  501    0  0.11174313779E+01 -0.10666763293E+03  0.79590234020E+02  0.13317630390E+03  0.47000000000E+01 0. -1.
        -11    1    6    6    0    0  0.15303893719E+02  0.98567571776E+01  0.79093382043E+01  0.19847479837E+02  0.00000000000E+00 0.  1.
         12    1    6    6    0    0 -0.50166717941E+02 -0.47492971078E+02 -0.38920523371E+02  0.79291166155E+02  0.00000000000E+00 0. -1.
         -5    1    3    3    0  503  0.93997913846E+01 -0.27340972298E+02  0.19309378397E+02  0.35083143223E+02  0.47000000000E+01 0.  1.
         11    1    4    4    0    0 -0.23748315883E+02  0.33506114940E+02 -0.22434582282E+02  0.46796930752E+02  0.00000000000E+00 0. -1.
        -12    1    4    4    0    0  0.48093917342E+02  0.13813870419E+03 -0.13069260238E+02  0.14685411824E+03  0.00000000000E+00 0.  1.
</event>
<event>
12    1  0.8133495E-002  0.2849198E+03  0.7818608E-02  0.1093581E+00
         21   -1    0    0  501  502  0.00000000000E+00  0.00000000000E+00  0.11829718633E+03  0.11829718633E+03  0.00000000000E+00 0. -1.
         21   -1    0    0  502  503 -0.00000000000E+00 -0.00000000000E+00 -0.74105163301E+03  0.74105163301E+03  0.00000000000E+00 0.  1.
         -6    2    1    2    0  503  0.17762237775E+03 -0.13403157511E+03 -0.43619801852E+03  0.51878666430E+03  0.17133802698E+03 0.  0.
        -24    2    3    3    0    0  0.11701117422E+03 -0.74277294053E+02 -0.14618288116E+03  0.21650341634E+03  0.79344585445E+02 0.  0.
          6    2    1    2  501    0 -0.17762237775E+03  0.13403157511E+03 -0.18655642815E+03  0.34056215504E+03  0.17794692567E+03 0.  0.
         24    2    5    5    0    0 -0.60843131352E+02  0.98855571911E+02 -0.33295936259E+02  0.14463969087E+03  0.79609736046E+02 0.  0.
          5    1    5    5  501    0 -0.11677924640E+03  0.35176003197E+02 -0.15326049190E+03  0.19592246417E+03  0.47000000000E+01 0. -1.
        -13    1    6    6    0    0 -0.98151132884E+01  0.36432157542E+02 -0.49661983280E+02  0.62369472784E+02  0.00000000000E+00 0.  1.
         14    1    6    6    0    0 -0.51028018064E+02  0.62423414370E+02  0.16366047021E+02  0.82270218088E+02  0.00000000000E+00 0. -1.
         -5    1    3    3    0  503  0.60611203537E+02 -0.59754281055E+02 -0.29001513736E+03  0.30228324796E+03  0.47000000000E+01 0.  1.
         13    1    4    4    0    0  0.75517845211E+02 -0.18359467161E+02 -0.34815144890E+02  0.85159317127E+02  0.00000000000E+00 0. -1.
        -14    1    4    4    0    0  0.41493329006E+02 -0.55917826892E+02 -0.11136773627E+03  0.13134409922E+03  0.00000000000E+00 0.  1.
</event>
<event>
12    1  0.8133495E-002  0.1742438E+03  0.7818608E-02  0.1173653E+00
         21   -1    0    0  501  502  0.00000000000E+00  0.00000000000E+00  0.34434154946E+03  0.34434154946E+03  0.00000000000E+00 0.  1.
         21   -1    0    0  502  503 -0.00000000000E+00 -0.00000000000E+00 -0.99765380404E+02  0.99765380404E+02  0.00000000000E+00 0. -1.
         -6    2    1    2    0  503 -0.16257703614E+02  0.19121045382E+02  0.19921869177E+03  0.26466766492E+03  0.17242667543E+03 0.  0.
        -24    2    3    3    0    0  0.49180170187E+02  0.19339028545E+02  0.67231751642E+02  0.11727429598E+03  0.80252507146E+02 0.  0.
          6    2    1    2  501    0  0.16257703614E+02 -0.19121045382E+02  0.45357477288E+02  0.17943926494E+03  0.17178830506E+03 0.  0.
         24    2    5    5    0    0  0.62993424402E+02  0.26388157623E+02  0.27779764957E+02  0.11171643920E+03  0.83930572895E+02 0.  0.
          5    1    5    5  501    0 -0.46735720788E+02 -0.45509203005E+02  0.17577712331E+02  0.67722825742E+02  0.47000000000E+01 0. -1.
        -11    1    6    6    0    0  0.69171595925E+02 -0.14408912783E+00 -0.46920827274E+01  0.69330700882E+02  0.00000000000E+00 0.  1.
         12    1    6    6    0    0 -0.61781715227E+01  0.26532246750E+02  0.32471847684E+02  0.42385738321E+02  0.00000000000E+00 0. -1.
         -5    1    3    3    0  503 -0.65437873801E+02 -0.21798316262E+00  0.13198694013E+03  0.14739336894E+03  0.47000000000E+01 0.  1.
         13    1    4    4    0    0 -0.48474783173E+01 -0.19630818913E+02 -0.30378358141E+01  0.20447384763E+02  0.00000000000E+00 0. -1.
        -14    1    4    4    0    0  0.54027648504E+02  0.38969847458E+02  0.70269587456E+02  0.96826911213E+02  0.00000000000E+00 0.  1.
</event>
<event>
12    1  0.8133495E-002  0.1928194E+03  0.7818608E-02  0.1156462E+00
         21   -1    0    0  501  502  0.00000000000E+00  0.00000000000E+00  0.11766929968E+03  0.11766929968E+03  0.00000000000E+00 0. -1.
         21   -1    0    0  502  503 -0.00000000000E+00 -0.00000000000E+00 -0.31879504727E+03  0.31879504727E+03  0.00000000000E+00 0. -1.
         -6    2    1    2    0  503 -0.70469766872E+01  0.85911702619E+02 -0.13146596225E+03  0.23144774165E+03  0.16986546841E+03 0.  0.
        -24    2    3    3    0    0  0.43666217497E+02  0.59592105246E+02 -0.28236341063E+02  0.11336728620E+03  0.81221259934E+02 0.  0.
          6    2    1    2  501    0  0.70469766872E+01 -0.85911702619E+02 -0.69659785338E+02  0.20501660530E+03  0.17247852686E+03 0.  0.
         24    2    5    5    0    0 -0.36102052067E+00  0.96617727892E+01 -0.94452051965E+01  0.91715884711E+02  0.90714449885E+02 0.  0.
          5    1    5    5  501    0  0.74079972079E+01 -0.95573475408E+02 -0.60214580141E+02  0.11330072059E+03  0.47000000000E+01 0. -1.
        -13    1    6    6    0    0 -0.24783857151E+02  0.42646301751E+02  0.11130307355E+01  0.49337465133E+02  0.00000000000E+00 0.  1.
         14    1    6    6    0    0  0.24422836631E+02 -0.32984528962E+02 -0.10558235932E+02  0.42378419578E+02  0.00000000000E+00 0. -1.
         -5    1    3    3    0  503 -0.50713194185E+02  0.26319597373E+02 -0.10322962119E+03  0.11808045546E+03  0.47000000000E+01 0.  1.
         11    1    4    4    0    0 -0.88364860328E+00  0.54525887452E+02  0.87665682137E+01  0.55233196137E+02  0.00000000000E+00 0. -1.
        -12    1    4    4    0    0  0.44549866101E+02  0.50662177937E+01 -0.37002909277E+02  0.58134090061E+02  0.00000000000E+00 0.  1.
</event>
<event>
12    1  0.8133495E-002  0.1980304E+03  0.7818608E-02  0.1151737E+00
         21   -1    0    0  503  502  0.00000000000E+00  0.00000000000E+00  0.88433494007E+03  0.88433494007E+03  0.00000000000E+00 0. -1.
         21   -1    0    0  501  503 -0.00000000000E+00 -0.00000000000E+00 -0.44940326091E+02  0.44940326091E+02  0.00000000000E+00 0. -1.
          6    2    1    2  501    0  0.97176519242E+02 -0.51525824777E+01  0.48825255458E+03  0.52688387213E+03  0.17247096179E+03 0.  0.
         24    2    3    3    0    0 -0.52927810098E+01  0.85412116033E+01  0.11038073926E+03  0.13509735334E+03  0.77242614237E+02 0.  0.
         -6    2    1    2    0  502 -0.97176519242E+02  0.51525824777E+01  0.35114205940E+03  0.40239139403E+03  0.17072862417E+03 0.  0.
        -24    2    5    5    0    0 -0.26366909559E+02  0.28559995630E+01  0.30922049534E+03  0.31993666312E+03  0.77709606979E+02 0.  0.
          5    1    3    3  501    0  0.10246930025E+03 -0.13693794081E+02  0.37787181532E+03  0.39178651879E+03  0.47000000000E+01 0. -1.
        -13    1    4    4    0    0 -0.18719893827E+02  0.22056578580E+02  0.11228423729E+03  0.11595118381E+03  0.00000000000E+00 0.  1.
         14    1    4    4    0    0  0.13427112817E+02 -0.13515366977E+02 -0.19034980261E+01  0.19146169535E+02  0.00000000000E+00 0. -1.
         -5    1    5    5    0  502 -0.70809609683E+02  0.22965829147E+01  0.41921564062E+02  0.82454730913E+02  0.47000000000E+01 0.  1.
         13    1    6    6    0    0 -0.36423708471E+02 -0.24992466705E+02  0.11016872780E+03  0.11869481251E+03  0.00000000000E+00 0. -1.
        -14    1    6    6    0    0  0.10056798911E+02  0.27848466268E+02  0.19905176753E+03  0.20124185061E+03  0.00000000000E+00 0.  1.
</event>
<event>
12    1  0.8133495E-002  0.1871529E+03  0.7818608E-02  0.1165072E+00
         21   -1    0    0  501  502  0.00000000000E+00  0.00000000000E+00  0.79782821181E+02  0.79782821181E+02  0.00000000000E+00 0.  1.
         21   -1    0    0  502  503 -0.00000000000E+00 -0.00000000000E+00 -0.40125558058E+03  0.40125558058E+03  0.00000000000E+00 0.  1.
         -6    2    1    2    0  503  0.64775303097E+01  0.11039930158E+02 -0.16049995300E+03  0.23418121866E+03  0.17004931580E+03 0.  0.
        -24    2    3    3    0    0  0.53703721696E+02 -0.32848924420E+02 -0.67982692561E+02  0.12131812377E+03  0.78315382318E+02 0.  0.
          6    2    1    2  501    0 -0.64775303097E+01 -0.11039930158E+02 -0.16097280640E+03  0.24685718310E+03  0.18671471820E+03 0.  0.
         24    2    5    5    0    0 -0.24012565675E+02 -0.59527733107E+02 -0.35977029645E+02  0.11156276819E+03  0.83855532107E+02 0.  0.
          5    1    5    5  501    0  0.17535035366E+02  0.48487802949E+02 -0.12499577676E+03  0.13529441491E+03  0.47000000000E+01 0. -1.
        -11    1    6    6    0    0 -0.24753378069E+01 -0.11011441542E+02 -0.54259374620E+02  0.55420744097E+02  0.00000000000E+00 0.  1.
         12    1    6    6    0    0 -0.21537227868E+02 -0.48516291564E+02  0.18282344975E+02  0.56142024093E+02  0.00000000000E+00 0. -1.
         -5    1    3    3    0  503 -0.47226191386E+02  0.43888854577E+02 -0.92517260436E+02  0.11286309489E+03  0.47000000000E+01 0.  1.
         13    1    4    4    0    0 -0.16702585877E+02 -0.22926693349E+02 -0.27457257346E+02  0.39477976441E+02  0.00000000000E+00 0. -1.
        -14    1    4    4    0    0  0.70406307573E+02 -0.99222310705E+01 -0.40525435215E+02  0.81840147329E+02  0.00000000000E+00 0.  1.
</event>
<event>
12    1  0.8133495E-002  0.2033104E+03  0.7818608E-02  0.1147270E+00
         21   -1    0    0  503  502  0.00000000000E+00  0.00000000000E+00  0.77102439262E+02  0.77102439262E+02  0.00000000000E+00 0.  1.
         21   -1    0    0  501  503 -0.00000000000E+00 -0.00000000000E+00 -0.14719479925E+04  0.14719479925E+04  0.00000000000E+00 0.  1.
          6    2    1    2  501    0 -0.78225939393E+02  0.71073145076E+02 -0.13153457086E+04  0.13307493503E+04  0.17201398341E+03 0.  0.
         24    2    3    3    0    0 -0.91086087004E+02  0.10768317536E+03 -0.11177137864E+04  0.11292893185E+04  0.78217102271E+02 0.  0.
         -6    2    1    2    0  502  0.78225939393E+02 -0.71073145076E+02 -0.79499844599E+02  0.21830108148E+03  0.17367915056E+03 0.  0.
        -24    2    5    5    0    0  0.11599217348E+03 -0.82787645017E+02 -0.66974435342E+02  0.17655789254E+03  0.79869493266E+02 0.  0.
          5    1    3    3  501    0  0.12860147611E+02 -0.36610030280E+02 -0.19763192228E+03  0.20146003181E+03  0.47000000000E+01 0. -1.
        -13    1    4    4    0    0 -0.34697486276E+01  0.48765814470E+02 -0.21876469915E+03  0.22416096317E+03  0.00000000000E+00 0.  1.
         14    1    4    4    0    0 -0.87616338376E+02  0.58917360885E+02 -0.89894908721E+03  0.90512835529E+03  0.00000000000E+00 0. -1.
         -5    1    5    5    0  502 -0.37766234083E+02  0.11714499941E+02 -0.12525409257E+02  0.41743188939E+02  0.47000000000E+01 0.  1.
         13    1    6    6    0    0  0.69230622110E+01  0.64265268584E+01 -0.29176873527E+02  0.30667882005E+02  0.00000000000E+00 0. -1.
        -14    1    6    6    0    0  0.10906911127E+03 -0.89214171876E+02 -0.37797561815E+02  0.14589001054E+03  0.00000000000E+00 0.  1.
</event>
<event>
12    1  0.8133495E-002  0.1918360E+03  0.7818608E-02  0.1157315E+00
         21   -1    0    0  503  502  0.00000000000E+00  0.00000000000E+00  0.78650752300E+03  0.78650752300E+03  0.00000000000E+00 0. -1.
         21   -1    0    0  501  503 -0.00000000000E+00 -0.00000000000E+00 -0.49700348629E+02  0.49700348629E+02  0.00000000000E+00 0. -1.
          6    2    1    2  501    0  0.80065786488E+02  0.29113208924E+02  0.26021703022E+03  0.32328617924E+03  0.17188060324E+03 0.  0.
         24    2    3    3    0    0  0.43017593180E+02 -0.50152135103E+02  0.13601477986E+03  0.17128666481E+03  0.80457139052E+02 0.  0.
         -6    2    1    2    0  502 -0.80065786488E+02 -0.29113208924E+02  0.47659014415E+03  0.51292169239E+03  0.16938827563E+03 0.  0.
        -24    2    5    5    0    0 -0.18653287470E+02  0.39537059846E+02  0.29937903296E+03  0.31314626255E+03  0.80756746701E+02 0.  0.
          5    1    3    3  501    0  0.37048193308E+02  0.79265344027E+02  0.12420225036E+03  0.15199951442E+03  0.47000000000E+01 0. -1.
        -13    1    4    4    0    0 -0.10469492811E+02 -0.27923512040E+02  0.81514296651E+01  0.30915669327E+02  0.00000000000E+00 0.  1.
         14    1    4    4    0    0  0.53487085991E+02 -0.22228623063E+02  0.12786335019E+03  0.14037099549E+03  0.00000000000E+00 0. -1.
         -5    1    5    5    0  502 -0.61412499019E+02 -0.68650268770E+02  0.17721111119E+03  0.19977542984E+03  0.47000000000E+01 0.  1.
         13    1    6    6    0    0 -0.28641102476E+02  0.19247352024E+02  0.28331007329E+03  0.28540387338E+03  0.00000000000E+00 0. -1.
        -14    1    6    6    0    0  0.99878150063E+01  0.20289707822E+02  0.16068959670E+02  0.27742389172E+02  0.00000000000E+00 0.  1.
</event>
<event>
12    1  0.8133495E-002  0.1925405E+03  0.7818608E-02  0.1156303E+00
         21   -1    0    0  501  502  0.00000000000E+00  0.00000000000E+00  0.11001500293E+03  0.11001500293E+03  0.00000000000E+00 0.  1.
         21   -1    0    0  502  503 -0.00000000000E+00 -0.00000000000E+00 -0.11026119439E+04  0.11026119439E+04  0.00000000000E+00 0.  1.
         -6    2    1    2    0  503  0.19519964609E+02  0.83759198141E+02 -0.10016329668E+04  0.10198745278E+04  0.17169397200E+03 0.  0.
        -24    2    3    3    0    0 -0.42360230097E+02  0.35235812647E+02 -0.71957139109E+03  0.72701876139E+03  0.87962156380E+02 0.  0.
          6    2    1    2  501    0 -0.19519964609E+02 -0.83759198141E+02  0.90360258385E+01  0.19275241900E+03  0.17226494994E+03 0.  0.
         24    2    5    5    0    0 -0.51560370447E+02 -0.36930903460E+02 -0.46431754045E+02  0.11326505275E+03  0.81551829897E+02 0.  0.
          5    1    5    5  501    0  0.32040405837E+02 -0.46828294680E+02  0.55467779884E+02  0.79487366255E+02  0.47000000000E+01 0. -1.
        -11    1    6    6    0    0 -0.23892541973E+02  0.18023186154E+02  0.81497534654E+01  0.31017854256E+02  0.00000000000E+00 0.  1.
         12    1    6    6    0    0 -0.27667828473E+02 -0.54954089615E+02 -0.54581507511E+02  0.82247198493E+02  0.00000000000E+00 0. -1.
         -5    1    3    3    0  503  0.61880194706E+02  0.48523385494E+02 -0.28206157569E+03  0.29285576641E+03  0.47000000000E+01 0.  1.
         13    1    4    4    0    0 -0.60344748490E+02  0.12752282953E+02 -0.29013653032E+03  0.29661981663E+03  0.00000000000E+00 0. -1.
        -14    1    4    4    0    0  0.17984518393E+02  0.22483529693E+02 -0.42943486077E+03  0.43039894476E+03  0.00000000000E+00 0.  1.
</event>
<event>
12    1  0.8133495E-002  0.2031606E+03  0.7818608E-02  0.1147330E+00
         21   -1    0    0  503  502  0.00000000000E+00  0.00000000000E+00  0.47209721139E+03  0.47209721139E+03  0.00000000000E+00 0. -1.
         21   -1    0    0  501  503 -0.00000000000E+00 -0.00000000000E+00 -0.48016645008E+03  0.48016645008E+03  0.00000000000E+00 0. -1.
          6    2    1    2  501    0  0.10637473998E+03  0.14326313228E+01 -0.43490315058E+03  0.47954662133E+03  0.17177477669E+03 0.  0.
         24    2    3    3    0    0  0.36358268187E+02 -0.36911479780E+02 -0.10756038155E+03  0.14257784590E+03  0.77941166638E+02 0.  0.
         -6    2    1    2    0  502 -0.10637473998E+03 -0.14326313228E+01  0.42683391190E+03  0.47271704013E+03  0.17307967514E+03 0.  0.
        -24    2    5    5    0    0  0.11800737636E+02  0.85534787742E+01  0.21440320907E+03  0.22937764873E+03  0.80205674791E+02 0.  0.
          5    1    3    3  501    0  0.70016471796E+02  0.38344111103E+02 -0.32734276904E+03  0.33696877544E+03  0.47000000000E+01 0. -1.
        -13    1    4    4    0    0 -0.57025194002E+01 -0.48682093090E+02 -0.46977308204E+02  0.67892064346E+02  0.00000000000E+00 0.  1.
         14    1    4    4    0    0  0.42060787587E+02  0.11770613309E+02 -0.60583073344E+02  0.74685781551E+02  0.00000000000E+00 0. -1.
         -5    1    5    5    0  502 -0.11817547762E+03 -0.99861100970E+01  0.21243070283E+03  0.24333939140E+03  0.47000000000E+01 0.  1.
         13    1    6    6    0    0  0.34870209794E+02  0.17135200961E+02  0.50909865471E+02  0.64041869471E+02  0.00000000000E+00 0. -1.
        -14    1    6    6    0    0 -0.23069472158E+02 -0.85817221867E+01  0.16349334360E+03  0.16533577926E+03  0.00000000000E+00 0.  1.
</event>
<event>
12    1  0.8133495E-002  0.2743111E+03  0.7818608E-02  0.1100424E+00
         21   -1    0    0  501  502  0.00000000000E+00  0.00000000000E+00  0.17881957923E+03  0.17881957923E+03  0.00000000000E+00 0.  1.
         21   -1    0    0  502  503 -0.00000000000E+00 -0.00000000000E+00 -0.94103093984E+03  0.94103093984E+03  0.00000000000E+00 0. -1.
         -6    2    1    2    0  503 -0.94462818912E+02  0.19156854265E+03 -0.80069245207E+03  0.84285341372E+03  0.15385624308E+03 0.  0.
        -24    2    3    3    0    0 -0.82051287514E+02  0.12927269541E+03 -0.71778367990E+03  0.73830307562E+03  0.80213320429E+02 0.  0.
          6    2    1    2  501    0  0.94462818912E+02 -0.19156854265E+03  0.38481091455E+02  0.27699710534E+03  0.17211877085E+03 0.  0.
         24    2    5    5    0    0 -0.23006201782E+01 -0.13531876529E+03 -0.30589154139E+01  0.15751964819E+03  0.80539564869E+02 0.  0.
          5    1    5    5  501    0  0.96763439090E+02 -0.56249777365E+02  0.41540006869E+02  0.11947745716E+03  0.47000000000E+01 0. -1.
        -13    1    6    6    0    0 -0.51265380197E+01 -0.14520152873E+03  0.34862785104E+01  0.14533382083E+03  0.00000000000E+00 0.  1.
         14    1    6    6    0    0  0.28259178415E+01  0.98827634446E+01 -0.65451939243E+01  0.12185827360E+02  0.00000000000E+00 0. -1.
         -5    1    3    3    0  503 -0.12411531398E+02  0.62295847242E+02 -0.82908772163E+02  0.10455033810E+03  0.47000000000E+01 0.  1.
         11    1    4    4    0    0 -0.30430774216E+02  0.11500433158E+03 -0.47319534279E+03  0.48791993271E+03  0.00000000000E+00 0. -1.
        -12    1    4    4    0    0 -0.51620513298E+02  0.14268363825E+02 -0.24458833712E+03  0.25038314291E+03  0.00000000000E+00 0.  1.
</event>
<event>
12    1  0.8133495E-002  0.2148626E+03  0.7818608E-02  0.1138012E+00
         21   -1    0    0  501  502  0.00000000000E+00  0.00000000000E+00  0.10518892076E+04  0.10518892076E+04  0.00000000000E+00 0. -1.
         21   -1    0    0  502  503 -0.00000000000E+00 -0.00000000000E+00 -0.64484272494E+02  0.64484272494E+02  0.00000000000E+00 0. -1.
         -6    2    1    2    0  503 -0.87560119781E+02  0.94062740431E+02  0.17534330361E+03  0.27636751936E+03  0.17064336472E+03 0.  0.
        -24    2    3    3    0    0 -0.89002343229E+02  0.10726716353E+03  0.19492408374E+03  0.25224421635E+03  0.78766012879E+02 0.  0.
          6    2    1    2  501    0  0.87560119781E+02 -0.94062740431E+02  0.81206163150E+03  0.84000596074E+03  0.17219566490E+03 0.  0.
         24    2    5    5    0    0 -0.99220496012E+01 -0.44558090268E+01  0.36200193633E+03  0.37084927612E+03  0.79783973280E+02 0.  0.
          5    1    5    5  501    0  0.97482169382E+02 -0.89606931404E+02  0.45005969518E+03  0.46915668462E+03  0.47000000000E+01 0. -1.
        -11    1    6    6    0    0 -0.35816918225E+02 -0.23908402491E+02  0.13929678626E+03  0.14580143348E+03  0.00000000000E+00 0.  1.
         12    1    6    6    0    0  0.25894868623E+02  0.19452593464E+02  0.22270515006E+03  0.22504784264E+03  0.00000000000E+00 0. -1.
         -5    1    3    3    0  503  0.14422234473E+01 -0.13204423102E+02 -0.19580780128E+02  0.24123303015E+02  0.47000000000E+01 0.  1.
         13    1    4    4    0    0 -0.59119513545E+02  0.41164338421E+02  0.43019312082E+02  0.83906381470E+02  0.00000000000E+00 0. -1.
        -14    1    4    4    0    0 -0.29882829684E+02  0.66102825112E+02  0.15190477166E+03  0.16833783488E+03  0.00000000000E+00 0.  1.
</event>
<event>
12    1  0.8133495E-002  0.2518749E+03  0.7818608E-02  0.1113394E+00
         21   -1    0    0  503  502  0.00000000000E+00  0.00000000000E+00  0.31537348522E+03  0.31537348522E+03  0.00000000000E+00 0.  1.
         21   -1    0    0  501  503 -0.00000000000E+00 -0.00000000000E+00 -0.41162400961E+03  0.41162400961E+03  0.00000000000E+00 0. -1.
          6    2    1    2  501    0  0.99844825405E+02 -0.13454016551E+03 -0.31226648639E+03  0.40118738972E+03  0.18807157641E+03 0.  0.
         24    2    3    3    0    0  0.12245008447E+03 -0.15984310411E+03 -0.26196268567E+03  0.34032854643E+03  0.81579591292E+02 0.  0.
         -6    2    1    2    0  502 -0.99844825405E+02  0.13454016551E+03  0.21601596201E+03  0.32581010511E+03  0.17725485454E+03 0.  0.
        -24    2    5    5    0    0 -0.61585481640E+01  0.72028138443E+02  0.34380062926E+02  0.11203788544E+03  0.78386979806E+02 0.  0.
          5    1    3    3  501    0 -0.22605259069E+02  0.25302938599E+02 -0.50303800721E+02  0.60858843288E+02  0.47000000000E+01 0. -1.
        -13    1    4    4    0    0  0.70934223062E+02 -0.31771714792E+02 -0.11394348392E+03  0.13792832701E+03  0.00000000000E+00 0.  1.
         14    1    4    4    0    0  0.51515861413E+02 -0.12807138931E+03 -0.14801920175E+03  0.20240021942E+03  0.00000000000E+00 0. -1.
         -5    1    5    5    0  502 -0.93686277241E+02  0.62512027063E+02  0.18163589908E+03  0.21377221968E+03  0.47000000000E+01 0.  1.
         11    1    6    6    0    0  0.17755569014E+02 -0.87331567303E+00  0.30393732902E+02  0.35210820936E+02  0.00000000000E+00 0. -1.
        -12    1    6    6    0    0 -0.23914117178E+02  0.72901454116E+02  0.39863300244E+01  0.76827064501E+02  0.00000000000E+00 0.  1.
</event>
<event>
12    1  0.8133495E-002  0.2263763E+03  0.7818608E-02  0.1130222E+00
         21   -1    0    0  501  502  0.00000000000E+00  0.00000000000E+00  0.48056553061E+03  0.48056553061E+03  0.00000000000E+00 0. -1.
         21   -1    0    0  502  503 -0.00000000000E+00 -0.00000000000E+00 -0.14417028685E+03  0.14417028685E+03  0.00000000000E+00 0. -1.
         -6    2    1    2    0  503  0.88191713500E+02 -0.10709451471E+03  0.19279137663E+01  0.22086129006E+03  0.17183998134E+03 0.  0.
        -24    2    3    3    0    0  0.77856545856E+02 -0.11931531138E+03 -0.46297310993E+02  0.16983261318E+03  0.80011813088E+02 0.  0.
          6    2    1    2  501    0 -0.88191713500E+02  0.10709451471E+03  0.33446732999E+03  0.40387452740E+03  0.17888327378E+03 0.  0.
         24    2    5    5    0    0  0.16908407338E+02  0.21179829458E+02  0.81149018564E+02  0.11643822933E+03  0.78982394377E+02 0.  0.
          5    1    5    5  501    0 -0.10510012084E+03  0.85914685252E+02  0.25331831143E+03  0.28743629807E+03  0.47000000000E+01 0. -1.
        -13    1    6    6    0    0  0.15910684005E+02  0.49776497879E+02  0.37795017240E+02  0.64492735520E+02  0.00000000000E+00 0.  1.
         14    1    6    6    0    0  0.99772333347E+00 -0.28596668421E+02  0.43354001323E+02  0.51945493812E+02  0.00000000000E+00 0. -1.
         -5    1    3    3    0  503  0.10335167644E+02  0.12220796665E+02  0.48225224759E+02  0.51028676883E+02  0.47000000000E+01 0.  1.
         13    1    4    4    0    0  0.42777909036E+02 -0.25332820304E+02  0.15419355193E+02  0.52052452398E+02  0.00000000000E+00 0. -1.
        -14    1    4    4    0    0  0.35078636820E+02 -0.93982491071E+02 -0.61716666186E+02  0.11778016078E+03  0.00000000000E+00 0.  1.
</event>
<event>
12    1  0.8133495E-002  0.1792017E+03  0.7818608E-02  0.1168736E+00
         21   -1    0    0  503  502  0.00000000000E+00  0.00000000000E+00  0.80343306702E+02  0.80343306702E+02  0.00000000000E+00 0.  1.
         21   -1    0    0  501  503 -0.00000000000E+00 -0.00000000000E+00 -0.47992548297E+03  0.47992548297E+03  0.00000000000E+00 0.  1.
          6    2    1    2  501    0  0.22150276840E+02  0.41411557290E+02 -0.31505266901E+03  0.36213121539E+03  0.17226514757E+03 0.  0.
         24    2    3    3    0    0  0.67459707032E+02  0.55448647932E+01 -0.13587990239E+03  0.17381144905E+03  0.84649361189E+02 0.  0.
         -6    2    1    2    0  502 -0.22150276840E+02 -0.41411557290E+02 -0.84529507264E+02  0.19813757429E+03  0.17293845410E+03 0.  0.
        -24    2    5    5    0    0  0.20003445988E+02 -0.49217542827E+02  0.12121093159E+02  0.92301388035E+02  0.74499133959E+02 0.  0.
          5    1    3    3  501    0 -0.45309430192E+02  0.35866692497E+02 -0.17917276661E+03  0.18831976633E+03  0.47000000000E+01 0. -1.
        -11    1    4    4    0    0  0.26618010685E+01  0.30055882063E+02 -0.77666755063E+02  0.83322062345E+02  0.00000000000E+00 0.  1.
         12    1    4    4    0    0  0.64797905963E+02 -0.24511017270E+02 -0.58213147330E+02  0.90489386709E+02  0.00000000000E+00 0. -1.
         -5    1    5    5    0  502 -0.42153722827E+02  0.78059855372E+01 -0.96650600424E+02  0.10583618625E+03  0.47000000000E+01 0.  1.
         13    1    6    6    0    0 -0.16061531753E+02  0.88505734656E+01  0.15282847677E+02  0.23871968625E+02  0.00000000000E+00 0. -1.
        -14    1    6    6    0    0  0.36064977740E+02 -0.58068116293E+02 -0.31617545180E+01  0.68429419410E+02  0.00000000000E+00 0.  1.
</event>
<event>
12    1  0.8133495E-002  0.1921747E+03  0.7818608E-02  0.1159612E+00
         21   -1    0    0  503  502  0.00000000000E+00  0.00000000000E+00  0.66866906846E+02  0.66866906846E+02  0.00000000000E+00 0.  1.
         21   -1    0    0  501  503 -0.00000000000E+00 -0.00000000000E+00 -0.63090541967E+03  0.63090541967E+03  0.00000000000E+00 0.  1.
          6    2    1    2  501    0 -0.37104267729E+02  0.27295046690E+02 -0.42352738282E+03  0.45970828492E+03  0.17272671179E+03 0.  0.
         24    2    3    3    0    0 -0.89669230483E+02  0.21612294502E+02 -0.33785340584E+03  0.35892391453E+03  0.78573471469E+02 0.  0.
         -6    2    1    2    0  502  0.37104267729E+02 -0.27295046690E+02 -0.14051113000E+03  0.23806404159E+03  0.18657267750E+03 0.  0.
        -24    2    5    5    0    0  0.77298673149E+02 -0.66364696388E+02 -0.67624302345E+02  0.14599554861E+03  0.79764002844E+02 0.  0.
          5    1    3    3  501    0  0.52564962754E+02  0.56827521878E+01 -0.85673976987E+02  0.10078437039E+03  0.47000000000E+01 0. -1.
        -11    1    4    4    0    0 -0.66488895797E+02  0.43362283442E+02 -0.29545905635E+03  0.30593645561E+03  0.00000000000E+00 0.  1.
         12    1    4    4    0    0 -0.23180334686E+02 -0.21749988940E+02 -0.42394349487E+02  0.52987458927E+02  0.00000000000E+00 0. -1.
         -5    1    5    5    0  502 -0.40194405420E+02  0.39069649698E+02 -0.72886827653E+02  0.92068492982E+02  0.47000000000E+01 0.  1.
         13    1    6    6    0    0 -0.58949327212E+01  0.11850469352E+02  0.97866194471E-01  0.13236065633E+02  0.00000000000E+00 0. -1.
        -14    1    6    6    0    0  0.83193605870E+02 -0.78215165739E+02 -0.67722168540E+02  0.13275948298E+03  0.00000000000E+00 0.  1.
</event>
<event>
12    1  0.8133495E-002  0.1971163E+03  0.7818608E-02  0.1152526E+00
         21   -1    0    0  501  502  0.00000000000E+00  0.00000000000E+00  0.95082350745E+02  0.95082350745E+02  0.00000000000E+00 0. -1.
         21   -1    0    0  502  503 -0.00000000000E+00 -0.00000000000E+00 -0.41042016608E+03  0.41042016608E+03  0.00000000000E+00 0. -1.
         -6    2    1    2    0  503 -0.74875851135E+02 -0.60954352365E+02 -0.18482549172E+03  0.26909547940E+03  0.17008847253E+03 0.  0.
        -24    2    3    3    0    0 -0.11341709976E+03 -0.60736952211E+02 -0.16912168911E+03  0.22721261268E+03  0.80442586672E+02 0.  0.
          6    2    1    2  501    0  0.74875851135E+02  0.60954352365E+02 -0.13051232361E+03  0.23640703743E+03  0.17185166445E+03 0.  0.
         24    2    5    5    0    0  0.12701646231E+02  0.85161633237E+02 -0.12252859924E+03  0.16904641052E+03  0.78419357852E+02 0.  0.
          5    1    5    5  501    0  0.62174204903E+02 -0.24207280872E+02 -0.79837243743E+01  0.67360626908E+02  0.47000000000E+01 0. -1.
        -11    1    6    6    0    0  0.80518702388E+01  0.13987842793E+02  0.96836111773E+01  0.18821920353E+02  0.00000000000E+00 0.  1.
         12    1    6    6    0    0  0.46497759927E+01  0.71173790444E+02 -0.13221221042E+03  0.15022449017E+03  0.00000000000E+00 0. -1.
         -5    1    3    3    0  503  0.38541248623E+02 -0.21740015409E+00 -0.15703802612E+02  0.41882866721E+02  0.47000000000E+01 0.  1.
         13    1    4    4    0    0 -0.62143329531E+02 -0.70227816331E+02 -0.76917915460E+02  0.12128522297E+03  0.00000000000E+00 0. -1.
        -14    1    4    4    0    0 -0.51273770227E+02  0.94908641198E+01 -0.92203773652E+02  0.10592738971E+03  0.00000000000E+00 0.  1.
</event>
<event>
12    1  0.8133495E-002  0.2676732E+03  0.7818608E-02  0.1102693E+00
         21   -1    0    0  503  502  0.00000000000E+00  0.00000000000E+00  0.24381456693E+03  0.24381456693E+03  0.00000000000E+00 0. -1.
         21   -1    0    0  501  503 -0.00000000000E+00 -0.00000000000E+00 -0.29544161952E+03  0.29544161952E+03  0.00000000000E+00 0. -1.
          6    2    1    2  501    0 -0.14876076779E+03 -0.13918732731E+03 -0.28897444545E+01  0.26768881550E+03  0.17362624573E+03 0.  0.
         24    2    3    3    0    0 -0.33646140124E+02 -0.26072663650E+02  0.17437561487E+02  0.10495715293E+03  0.94340282303E+02 0.  0.
         -6    2    1    2    0  502  0.14876076779E+03  0.13918732731E+03 -0.48737308141E+02  0.27156737095E+03  0.17283122878E+03 0.  0.
        -24    2    5    5    0    0  0.55821677857E+02  0.24106350304E+02 -0.67134969329E+02  0.12243028755E+03  0.82370476266E+02 0.  0.
          5    1    3    3  501    0 -0.11511462767E+03 -0.11311466366E+03 -0.20327305941E+02  0.16273166258E+03  0.47000000000E+01 0. -1.
        -11    1    4    4    0    0 -0.94561741421E+01  0.22209958310E+02  0.39766475946E+02  0.46519609700E+02  0.00000000000E+00 0.  1.
         12    1    4    4    0    0 -0.24189965982E+02 -0.48282621960E+02 -0.22328914459E+02  0.58437543227E+02  0.00000000000E+00 0. -1.
         -5    1    5    5    0  502  0.92939089932E+02  0.11508097701E+03  0.18397661188E+02  0.14913708340E+03  0.47000000000E+01 0.  1.
         13    1    6    6    0    0  0.68723223559E+02  0.41327766295E+02 -0.58413708911E+02  0.99212031085E+02  0.00000000000E+00 0. -1.
        -14    1    6    6    0    0 -0.12901545702E+02 -0.17221415991E+02 -0.87212604173E+01  0.23218256470E+02  0.00000000000E+00 0.  1.
</event>
<event>
12    1  0.8133495E-002  0.1742892E+03  0.7818608E-02  0.1173822E+00
         21   -1    0    0  501  502  0.00000000000E+00  0.00000000000E+00  0.34134766650E+03  0.34134766650E+03  0.00000000000E+00 0. -1.
         21   -1    0    0  502  503 -0.00000000000E+00 -0.00000000000E+00 -0.16507440658E+03  0.16507440658E+03  0.00000000000E+00 0. -1.
         -6    2    1    2    0  503  0.24932863227E+02  0.87058376179E+01 -0.84416637450E+02  0.19365668393E+03  0.17227682165E+03 0.  0.
        -24    2    3    3    0    0 -0.12319071817E+02 -0.17245925732E+02 -0.11287511520E+03  0.13986843576E+03  0.79832363152E+02 0.  0.
          6    2    1    2  501    0 -0.24932863227E+02 -0.87058376179E+01  0.26068989738E+03  0.31276538915E+03  0.17077917548E+03 0.  0.
         24    2    5    5    0    0 -0.46312685894E+02  0.26775233761E+02  0.58071372608E+02  0.10590224641E+03  0.70577783051E+02 0.  0.
          5    1    5    5  501    0  0.21379822667E+02 -0.35481071379E+02  0.20261852477E+03  0.20686314274E+03  0.47000000000E+01 0. -1.
        -13    1    6    6    0    0  0.14100668991E+02 -0.10392127166E+02  0.94084820343E+01  0.19883277074E+02  0.00000000000E+00 0.  1.
         14    1    6    6    0    0 -0.60413354884E+02  0.37167360927E+02  0.48662890574E+02  0.86018969336E+02  0.00000000000E+00 0. -1.
         -5    1    3    3    0  503  0.37251935044E+02  0.25951763350E+02  0.28458477749E+02  0.53788248171E+02  0.47000000000E+01 0.  1.
         13    1    4    4    0    0  0.24015902662E+02 -0.29164555095E+02 -0.83496856175E+02  0.91646384794E+02  0.00000000000E+00 0. -1.
        -14    1    4    4    0    0 -0.36334974480E+02  0.11918629363E+02 -0.29378259024E+02  0.48222050968E+02  0.00000000000E+00 0.  1.
</event>
<event>
12    1  0.8133495E-002  0.2038216E+03  0.7818608E-02  0.1149300E+00
         21   -1    0    0  501  502  0.00000000000E+00  0.00000000000E+00  0.44292655053E+03  0.44292655053E+03  0.00000000000E+00 0. -1.
         21   -1    0    0  502  503 -0.00000000000E+00 -0.00000000000E+00 -0.90349171944E+02  0.90349171944E+02  0.00000000000E+00 0. -1.
         -6    2    1    2    0  503 -0.31382507614E+02 -0.75532498082E+02  0.21404595098E+03  0.28683258983E+03  0.17253186779E+03 0.  0.
        -24    2    3    3    0    0 -0.37115927416E+02 -0.58916948065E+02  0.43171730844E+02  0.11499243820E+03  0.80688683598E+02 0.  0.
          6    2    1    2  501    0  0.31382507614E+02  0.75532498082E+02  0.13853142760E+03  0.24644313265E+03  0.18669022777E+03 0.  0.
         24    2    5    5    0    0 -0.15866171923E+02 -0.10052856625E+02 -0.86596210001E+00  0.76116937027E+02  0.73758002103E+02 0.  0.
          5    1    5    5  501    0  0.47248679536E+02  0.85585354706E+02  0.13939738970E+03  0.17032619562E+03  0.47000000000E+01 0. -1.
        -11    1    6    6    0    0 -0.25662359841E+02  0.23801479190E+02 -0.15085227726E+02  0.38113399479E+02  0.00000000000E+00 0.  1.
         12    1    6    6    0    0  0.97961879187E+01 -0.33854335815E+02  0.14219265626E+02  0.38003537548E+02  0.00000000000E+00 0. -1.
         -5    1    3    3    0  503  0.57334198028E+01 -0.16615550017E+02  0.17087422014E+03  0.17184015163E+03  0.47000000000E+01 0.  1.
         11    1    4    4    0    0 -0.56702279368E+02 -0.41442095972E+02  0.73968962055E+01  0.70620888394E+02  0.00000000000E+00 0. -1.
        -12    1    4    4    0    0  0.19586351951E+02 -0.17474852092E+02  0.35774834638E+02  0.44371549801E+02  0.00000000000E+00 0.  1.
</event>
<event>
12    1  0.8133495E-002  0.1900871E+03  0.7818608E-02  0.1158955E+00
         21   -1    0    0  501  502  0.00000000000E+00  0.00000000000E+00  0.30709807002E+03  0.30709807002E+03  0.00000000000E+00 0. -1.
         21   -1    0    0  502  503 -0.00000000000E+00 -0.00000000000E+00 -0.97515935933E+03  0.97515935933E+03  0.00000000000E+00 0. -1.
         -6    2    1    2    0  503  0.65011947948E+02 -0.32467910757E+02 -0.93604770080E+03  0.95515361126E+03  0.17564852499E+03 0.  0.
        -24    2    3    3    0    0 -0.11225149179E+02  0.34113444223E+02 -0.33365750031E+03  0.34430075217E+03  0.76980188261E+02 0.  0.
          6    2    1    2  501    0 -0.65011947948E+02  0.32467910757E+02  0.26798641149E+03  0.32710381809E+03  0.17291463925E+03 0.  0.
         24    2    5    5    0    0 -0.29008671074E+02 -0.13851834890E+02  0.49011057065E+02  0.10035715191E+03  0.81462248294E+02 0.  0.
          5    1    5    5  501    0 -0.36003276874E+02  0.46319745647E+02  0.21897535442E+03  0.22674666619E+03  0.47000000000E+01 0. -1.
        -11    1    6    6    0    0 -0.24039049229E+01  0.30918397718E+02  0.34299445101E+02  0.46240436964E+02  0.00000000000E+00 0.  1.
         12    1    6    6    0    0 -0.26604766151E+02 -0.44770232608E+02  0.14711611963E+02  0.54116714944E+02  0.00000000000E+00 0. -1.
         -5    1    3    3    0  503  0.76237097127E+02 -0.66581354979E+02 -0.60239020049E+03  0.61085285909E+03  0.47000000000E+01 0.  1.
         13    1    4    4    0    0 -0.22072881682E+02 -0.19546571342E+02 -0.13893029819E+03  0.14202432296E+03  0.00000000000E+00 0. -1.
        -14    1    4    4    0    0  0.10847732503E+02  0.53660015565E+02 -0.19472720212E+03  0.20227642922E+03  0.00000000000E+00 0.  1.
</event>
<event>
12    1  0.8133495E-002  0.1810308E+03  0.7818608E-02  0.1166980E+00
         21   -1    0    0  503  502  0.00000000000E+00  0.00000000000E+00  0.41954225535E+03  0.41954225535E+03  0.00000000000E+00 0. -1.
         21   -1    0    0  501  503 -0.00000000000E+00 -0.00000000000E+00 -0.77808511298E+02  0.77808511298E+02  0.00000000000E+00 0. -1.
          6    2    1    2  501    0 -0.53290457052E+02 -0.10573939006E+02  0.17063621347E+03  0.24877476666E+03  0.17268609145E+03 0.  0.
         24    2    3    3    0    0  0.24081654810E+02  0.16862903504E+02  0.18233174414E+02  0.75604329416E+02  0.67225607950E+02 0.  0.
         -6    2    1    2    0  502  0.53290457052E+02  0.10573939006E+02  0.17109753058E+03  0.24857599999E+03  0.17194179771E+03 0.  0.
        -24    2    5    5    0    0  0.25804081557E+02 -0.58681356578E+02  0.10061788054E+03  0.14590532319E+03  0.83994364193E+02 0.  0.
          5    1    3    3  501    0 -0.77372111862E+02 -0.27436842510E+02  0.15240303906E+03  0.17317043724E+03  0.47000000000E+01 0. -1.
        -13    1    4    4    0    0 -0.91137090353E+01 -0.15372593450E+02 -0.10892740682E+02  0.20929121370E+02  0.00000000000E+00 0.  1.
         14    1    4    4    0    0  0.33195363846E+02  0.32235496954E+02  0.29125915096E+02  0.54675208046E+02  0.00000000000E+00 0. -1.
         -5    1    5    5    0  502  0.27486375495E+02  0.69255295584E+02  0.70479650033E+02  0.10267067679E+03  0.47000000000E+01 0.  1.
         11    1    6    6    0    0  0.93055713497E+01 -0.17995085658E+02  0.99964152975E+02  0.10199631683E+03  0.00000000000E+00 0. -1.
        -12    1    6    6    0    0  0.16498510208E+02 -0.40686270921E+02  0.65372756896E+00  0.43909006368E+02  0.00000000000E+00 0.  1.
</event>
<event>
12    1  0.8133495E-002  0.1944179E+03  0.7818608E-02  0.1154886E+00
         21   -1    0    0  501  502  0.00000000000E+00  0.00000000000E+00  0.12187834112E+04  0.12187834112E+04  0.00000000000E+00 0.  1.
         21   -1    0    0  502  503 -0.00000000000E+00 -0.00000000000E+00 -0.34891408459E+02  0.34891408459E+02  0.00000000000E+00 0. -1.
         -6    2    1    2    0  503 -0.89872569723E+02  0.90069002282E+01  0.37408705965E+03  0.42085889945E+03  0.17036103430E+03 0.  0.
        -24    2    3    3    0    0 -0.10341020749E+02 -0.21544025526E+02  0.28734975013E+03  0.29918689277E+03  0.79823781908E+02 0.  0.
          6    2    1    2  501    0  0.89872569723E+02 -0.90069002282E+01  0.80980494311E+03  0.83281592023E+03  0.17216302758E+03 0.  0.
         24    2    5    5    0    0  0.36348743293E+02 -0.29803362344E+02  0.21158362771E+03  0.23182663162E+03  0.82258641280E+02 0.  0.
          5    1    5    5  501    0  0.53523826430E+02  0.20796462116E+02  0.59822131540E+03  0.60098928862E+03  0.47000000000E+01 0. -1.
        -13    1    6    6    0    0  0.29127014178E+02  0.27133762868E+01  0.18976778733E+03  0.19200926663E+03  0.00000000000E+00 0.  1.
         14    1    6    6    0    0  0.72217291144E+01 -0.32516738631E+02  0.21815840385E+02  0.39817364985E+02  0.00000000000E+00 0. -1.
         -5    1    3    3    0  503 -0.79531548973E+02  0.30550925755E+02  0.86737309515E+02  0.12167200668E+03  0.47000000000E+01 0.  1.
         13    1    4    4    0    0  0.26553216493E+02  0.15707546650E+02  0.10182945741E+03  0.10640036994E+03  0.00000000000E+00 0. -1.
        -14    1    4    4    0    0 -0.36894237242E+02 -0.37251572176E+02  0.18552029273E+03  0.19278652283E+03  0.00000000000E+00 0.  1.
</event>
<event>
12    1  0.8133495E-002  0.1767573E+03  0.7818608E-02  0.1171104E+00
         21   -1    0    0  501  502  0.00000000000E+00  0.00000000000E+00  0.18124238538E+03  0.18124238538E+03  0.00000000000E+00 0.  1.
         21   -1    0    0  502  503 -0.00000000000E+00 -0.00000000000E+00 -0.17897278258E+03  0.17897278258E+03  0.00000000000E+00 0.  1.
         -6    2    1    2    0  503 -0.24858060372E+02 -0.30524437817E+02 -0.34687831863E+02  0.18012880512E+03  0.17231795114E+03 0.  0.
        -24    2    3    3    0    0 -0.65627718900E+02 -0.55623648777E+02  0.26142619358E+01  0.11925457700E+03  0.82545938595E+02 0.  0.
          6    2    1    2  501    0  0.24858060372E+02  0.30524437817E+02  0.36957434663E+02  0.18008636284E+03  0.17180099428E+03 0.  0.
         24    2    5    5    0    0  0.74095207352E+02  0.55738014000E+02  0.29182985887E+02  0.12402788337E+03  0.77035337544E+02 0.  0.
          5    1    5    5  501    0 -0.49237146980E+02 -0.25213576183E+02  0.77744487757E+01  0.56058479470E+02  0.47000000000E+01 0. -1.
        -13    1    6    6    0    0  0.44709846553E+02  0.72146264857E+02  0.30904140569E+02  0.90327846293E+02  0.00000000000E+00 0.  1.
         14    1    6    6    0    0  0.29385360799E+02 -0.16408250857E+02 -0.17211546812E+01  0.33700037076E+02  0.00000000000E+00 0. -1.
         -5    1    3    3    0  503  0.40769658528E+02  0.25099210960E+02 -0.37302093799E+02  0.60874228119E+02  0.47000000000E+01 0.  1.
         11    1    4    4    0    0 -0.49678733616E+02 -0.48561488376E+02  0.38448402717E+02  0.79400720390E+02  0.00000000000E+00 0. -1.
        -12    1    4    4    0    0 -0.15948985284E+02 -0.70621604008E+01 -0.35834140781E+02  0.39853856609E+02  0.00000000000E+00 0.  1.
</event>
<event>
12    1  0.8133495E-002  0.1840810E+03  0.7818608E-02  0.1163972E+00
         21   -1    0    0  501  502  0.00000000000E+00  0.00000000000E+00  0.18918751538E+03  0.18918751538E+03  0.00000000000E+00 0.  1.
         21   -1    0    0  502  503 -0.00000000000E+00 -0.00000000000E+00 -0.22150992480E+03  0.22150992480E+03  0.00000000000E+00 0. -1.
         -6    2    1    2    0  503  0.17414717789E+02 -0.64679983271E+02 -0.10627797126E+03  0.21255781667E+03  0.17146149895E+03 0.  0.
        -24    2    3    3    0    0  0.52523211295E+02 -0.70018696338E+02 -0.12535773346E+03  0.17197166757E+03  0.78729838988E+02 0.  0.
          6    2    1    2  501    0 -0.17414717789E+02  0.64679983271E+02  0.73955561840E+02  0.19813962350E+03  0.17118151957E+03 0.  0.
         24    2    5    5    0    0  0.47595393858E+02  0.12252307116E+02  0.22718064846E+01  0.87977803323E+02  0.72934849192E+02 0.  0.
          5    1    5    5  501    0 -0.65010111648E+02  0.52427676155E+02  0.71683755355E+02  0.11016182018E+03  0.47000000000E+01 0. -1.
        -11    1    6    6    0    0  0.41631004796E+00  0.13914424963E+02  0.30110371248E+02  0.33172563857E+02  0.00000000000E+00 0.  1.
         12    1    6    6    0    0  0.47179083810E+02 -0.16621178469E+01 -0.27838564764E+02  0.54805239467E+02  0.00000000000E+00 0. -1.
         -5    1    3    3    0  503 -0.35108493506E+02  0.53387130671E+01  0.19079762196E+02  0.40586149102E+02  0.47000000000E+01 0.  1.
         11    1    4    4    0    0 -0.11245648187E+02 -0.14787864819E+02 -0.66654897508E+02  0.69195526668E+02  0.00000000000E+00 0. -1.
        -12    1    4    4    0    0  0.63768859482E+02 -0.55230831519E+02 -0.58702835951E+02  0.10277614090E+03  0.00000000000E+00 0.  1.
</event>
<event>
12    1  0.8133495E-002  0.2417937E+03  0.7818608E-02  0.1118686E+00
         21   -1    0    0  501  502  0.00000000000E+00  0.00000000000E+00  0.36436369455E+03  0.36436369455E+03  0.00000000000E+00 0. -1.
         21   -1    0    0  502  503 -0.00000000000E+00 -0.00000000000E+00 -0.18654070702E+03  0.18654070702E+03  0.00000000000E+00 0.  1.
         -6    2    1    2    0  503 -0.16879817877E+03  0.19600415844E+02 -0.14825012835E+02  0.24174835772E+03  0.17130524218E+03 0.  0.
        -24    2    3    3    0    0 -0.10125666832E+03  0.20933149244E+02 -0.77326104382E+02  0.14959572208E+03  0.75554245594E+02 0.  0.
          6    2    1    2  501    0  0.16879817877E+03 -0.19600415844E+02  0.19264800037E+03  0.30915604384E+03  0.17200931935E+03 0.  0.
         24    2    5    5    0    0  0.89706869485E+02 -0.19571786337E+02  0.19490885219E+03  0.22989295360E+03  0.80193093218E+02 0.  0.
          5    1    5    5  501    0  0.79091309284E+02 -0.28629506859E-01 -0.22608518206E+01  0.79263090243E+02  0.47000000000E+01 0. -1.
        -13    1    6    6    0    0  0.38437949866E+02 -0.44547678912E+02  0.63101816650E+02  0.86277522860E+02  0.00000000000E+00 0.  1.
         14    1    6    6    0    0  0.51268919619E+02  0.24975892575E+02  0.13180703554E+03  0.14361543074E+03  0.00000000000E+00 0. -1.
         -5    1    3    3    0  503 -0.67541510446E+02 -0.13327334000E+01  0.62501091547E+02  0.92152635645E+02  0.47000000000E+01 0.  1.
         11    1    4    4    0    0 -0.23813600846E+02  0.28169714908E+01  0.14572112044E+02  0.28060102692E+02  0.00000000000E+00 0. -1.
        -12    1    4    4    0    0 -0.77443067477E+02  0.18116177753E+02 -0.91898216427E+02  0.12153561938E+03  0.00000000000E+00 0.  1.
</event>
<event>
12    1  0.8133495E-002  0.2647436E+03  0.7818608E-02  0.1105009E+00
         21   -1    0    0  503  502  0.00000000000E+00  0.00000000000E+00  0.11751593114E+04  0.11751593114E+04  0.00000000000E+00 0.  1.
         21   -1    0    0  501  503 -0.00000000000E+00 -0.00000000000E+00 -0.63285158899E+02  0.63285158899E+02  0.00000000000E+00 0.  1.
          6    2    1    2  501    0  0.73647575361E+02 -0.18735429630E+03  0.38310096088E+03  0.46307387556E+03  0.16475882465E+03 0.  0.
         24    2    3    3    0    0  0.47272681111E+02 -0.48464418995E+02  0.95831158241E+02  0.14286759428E+03  0.81510933726E+02 0.  0.
         -6    2    1    2    0  502 -0.73647575361E+02  0.18735429630E+03  0.72877319157E+03  0.77537059469E+03  0.17194067774E+03 0.  0.
        -24    2    5    5    0    0 -0.76972762716E+02  0.10994493245E+03  0.28480871473E+03  0.32467134555E+03  0.79264016185E+02 0.  0.
          5    1    3    3  501    0  0.26374894250E+02 -0.13888987730E+03  0.28726980264E+03  0.32020628128E+03  0.47000000000E+01 0. -1.
        -11    1    4    4    0    0  0.69912917457E+01 -0.44958382693E+02  0.91518522973E+02  0.10220457124E+03  0.00000000000E+00 0.  1.
         12    1    4    4    0    0  0.40281389366E+02 -0.35060363029E+01  0.43126352672E+01  0.40663023040E+02  0.00000000000E+00 0. -1.
         -5    1    5    5    0  502  0.33251873545E+01  0.77409363848E+02  0.44396447684E+03  0.45069924915E+03  0.47000000000E+01 0.  1.
         11    1    6    6    0    0  0.46737627681E+01  0.46408937727E+02  0.51668550986E+02  0.69607993221E+02  0.00000000000E+00 0. -1.
        -12    1    6    6    0    0 -0.81646525484E+02  0.63535994723E+02  0.23314016374E+03  0.25506335233E+03  0.00000000000E+00 0.  1.
</event>
<event>
12    1  0.8133495E-002  0.1868562E+03  0.7818608E-02  0.1161954E+00
         21   -1    0    0  501  502  0.00000000000E+00  0.00000000000E+00  0.58234705731E+02  0.58234705731E+02  0.00000000000E+00 0. -1.
         21   -1    0    0  502  503 -0.00000000000E+00 -0.00000000000E+00 -0.14520626992E+04  0.14520626992E+04  0.00000000000E+00 0.  1.
         -6    2    1    2    0  503  0.10198571777E+02 -0.67351063922E+02 -0.12763764094E+04  0.12895936956E+04  0.17109934120E+03 0.  0.
        -24    2    3    3    0    0 -0.20317321883E+02 -0.87630295641E+02 -0.62136603675E+03  0.63354251978E+03  0.84785083942E+02 0.  0.
          6    2    1    2  501    0 -0.10198571777E+02  0.67351063922E+02 -0.11745158407E+03  0.22070370934E+03  0.17399734492E+03 0.  0.
         24    2    5    5    0    0  0.11654683610E+02 -0.28843496361E+02 -0.36794665136E+02  0.93194545862E+02  0.79772157196E+02 0.  0.
          5    1    5    5  501    0 -0.21853255387E+02  0.96194560283E+02 -0.80656918937E+02  0.12750916348E+03  0.47000000000E+01 0. -1.
        -11    1    6    6    0    0 -0.17326377798E+02  0.76575192107E+01 -0.42217821121E+02  0.46272944452E+02  0.00000000000E+00 0.  1.
         12    1    6    6    0    0  0.28981061408E+02 -0.36501015572E+02  0.54231559848E+01  0.46921601411E+02  0.00000000000E+00 0. -1.
         -5    1    3    3    0  503  0.30515893660E+02  0.20279231720E+02 -0.65501037263E+03  0.65605117580E+03  0.47000000000E+01 0.  1.
         11    1    4    4    0    0  0.25314123810E+01 -0.65282858134E+02 -0.18854690722E+03  0.19954497197E+03  0.00000000000E+00 0. -1.
        -12    1    4    4    0    0 -0.22848734264E+02 -0.22347437507E+02 -0.43281912953E+03  0.43399754781E+03  0.00000000000E+00 0.  1.
</event>
<event>
12    1  0.8133495E-002  0.2136121E+03  0.7818608E-02  0.1138819E+00
         21   -1    0    0  503  502  0.00000000000E+00  0.00000000000E+00  0.69294294869E+03  0.69294294869E+03  0.00000000000E+00 0.  1.
         21   -1    0    0  501  503 -0.00000000000E+00 -0.00000000000E+00 -0.81913930361E+02  0.81913930361E+02  0.00000000000E+00 0.  1.
          6    2    1    2  501    0 -0.10664849452E+03 -0.68244938702E+02  0.13349238403E+03  0.25189348369E+03  0.17204312683E+03 0.  0.
         24    2    3    3    0    0 -0.86252272958E+02  0.77062480248E+01  0.12694000679E+03  0.17283899447E+03  0.79124660088E+02 0.  0.
         -6    2    1    2    0  502  0.10664849452E+03  0.68244938702E+02  0.47753663430E+03  0.52296339536E+03  0.17151735406E+03 0.  0.
        -24    2    5    5    0    0  0.88460243784E+02 -0.19699217209E+02  0.32001228196E+03  0.34157707117E+03  0.77805919136E+02 0.  0.
          5    1    3    3  501    0 -0.20396221560E+02 -0.75951186727E+02  0.65523772329E+01  0.79054489225E+02  0.47000000000E+01 0. -1.
        -13    1    4    4    0    0  0.24358123766E+01  0.26242012139E+02  0.23290124183E+02  0.35171099890E+02  0.00000000000E+00 0.  1.
         14    1    4    4    0    0 -0.88688085335E+02 -0.18535764114E+02  0.10364988261E+03  0.13766789458E+03  0.00000000000E+00 0. -1.
         -5    1    5    5    0  502  0.18188250734E+02  0.87944155911E+02  0.15752435234E+03  0.18138632419E+03  0.47000000000E+01 0.  1.
         13    1    6    6    0    0  0.22967056644E+02 -0.42266109105E+02  0.10098664958E+03  0.11185800402E+03  0.00000000000E+00 0. -1.
        -14    1    6    6    0    0  0.65493187140E+02  0.22566891896E+02  0.21902563238E+03  0.22971906715E+03  0.00000000000E+00 0.  1.
</event>
<event>
12    1  0.8133495E-002  0.1764028E+03  0.7818608E-02  0.1172394E+00
         21   -1    0    0  503  502  0.00000000000E+00  0.00000000000E+00  0.19520514428E+03  0.19520514428E+03  0.00000000000E+00 0. -1.
         21   -1    0    0  501  503 -0.00000000000E+00 -0.00000000000E+00 -0.22696892013E+03  0.22696892013E+03  0.00000000000E+00 0. -1.
          6    2    1    2  501    0  0.23220688532E+02  0.30400938447E+02 -0.13409900235E+03  0.21823668379E+03  0.16787283963E+03 0.  0.
         24    2    3    3    0    0 -0.41494880328E+02  0.51539882802E+02 -0.84145641800E+02  0.13366489150E+03  0.80047670626E+02 0.  0.
         -6    2    1    2    0  502 -0.23220688532E+02 -0.30400938447E+02  0.10233522650E+03  0.20393738061E+03  0.17220493371E+03 0.  0.
        -24    2    5    5    0    0 -0.72160650762E+02  0.12183460190E+02  0.54867594373E+02  0.12341522832E+03  0.82856921546E+02 0.  0.
          5    1    3    3  501    0  0.64715568859E+02 -0.21138944355E+02 -0.49953360555E+02  0.84571792295E+02  0.47000000000E+01 0. -1.
        -11    1    4    4    0    0 -0.90086828788E+00 -0.10490143111E+02  0.95324081142E+01  0.14202868394E+02  0.00000000000E+00 0.  1.
         12    1    4    4    0    0 -0.40594012040E+02  0.62030025914E+02 -0.93678049914E+02  0.11946202310E+03  0.00000000000E+00 0. -1.
         -5    1    5    5    0  502  0.48939962231E+02 -0.42584398636E+02  0.47467632130E+02  0.80522152296E+02  0.47000000000E+01 0.  1.
         13    1    6    6    0    0 -0.78837565731E+02 -0.69122855427E+01  0.17694164527E+02  0.81093926531E+02  0.00000000000E+00 0. -1.
        -14    1    6    6    0    0  0.66769149687E+01  0.19095745732E+02  0.37173429845E+02  0.42321301788E+02  0.00000000000E+00 0.  1.
</event>
<event>
12    1  0.8133495E-002  0.2193874E+03  0.7818608E-02  0.1134547E+00
         21   -1    0    0  501  502  0.00000000000E+00  0.00000000000E+00  0.23270475228E+03  0.23270475228E+03  0.00000000000E+00 0. -1.
         21   -1    0    0  502  503 -0.00000000000E+00 -0.00000000000E+00 -0.20586195874E+03  0.20586195874E+03  0.00000000000E+00 0. -1.
         -6    2    1    2    0  503  0.13291084252E+03 -0.29588283163E+02  0.17355672107E+02  0.21897432134E+03  0.17061000995E+03 0.  0.
        -24    2    3    3    0    0  0.13381704997E+03 -0.31023867009E+02 -0.38923478297E+02  0.16247374716E+03  0.77544813935E+02 0.  0.
          6    2    1    2  501    0 -0.13291084252E+03  0.29588283163E+02  0.94871214300E+01  0.21959238968E+03  0.17201759669E+03 0.  0.
         24    2    5    5    0    0 -0.11748487093E+02 -0.11847461674E+02  0.36193657734E+02  0.88700959845E+02  0.79243233907E+02 0.  0.
          5    1    5    5  501    0 -0.12116235542E+03  0.41435744837E+02 -0.26706536304E+02  0.13089142983E+03  0.47000000000E+01 0. -1.
        -11    1    6    6    0    0  0.57182573910E+00 -0.43846209235E+02  0.31723752312E+02  0.54122209025E+02  0.00000000000E+00 0.  1.
         12    1    6    6    0    0 -0.12320312833E+02  0.31998747561E+02  0.44699054221E+01  0.34578750820E+02  0.00000000000E+00 0. -1.
         -5    1    3    3    0  503 -0.90620744750E+00  0.14355838468E+01  0.56279150404E+02  0.56500574183E+02  0.47000000000E+01 0.  1.
         11    1    4    4    0    0  0.31851730702E+02 -0.82591505827E+00  0.23109097758E+02  0.39360453295E+02  0.00000000000E+00 0. -1.
        -12    1    4    4    0    0  0.10196531926E+03 -0.30197951951E+02 -0.62032576055E+02  0.12311329387E+03  0.00000000000E+00 0.  1.
</event>
<event>
12    1  0.8133495E-002  0.1876684E+03  0.7818608E-02  0.1160753E+00
         21   -1    0    0  501  502  0.00000000000E+00  0.00000000000E+00  0.35032058698E+02  0.35032058698E+02  0.00000000000E+00 0. -1.
         21   -1    0    0  502  503 -0.00000000000E+00 -0.00000000000E+00 -0.17608311783E+04  0.17608311783E+04  0.00000000000E+00 0. -1.
         -6    2    1    2    0  503 -0.30649622505E+02  0.64759435759E+02 -0.14536013478E+04  0.14656658286E+04  0.17345391044E+03 0.  0.
        -24    2    3    3    0    0 -0.21207663901E+02 -0.46637242550E+01 -0.11905400634E+04  0.11933938046E+04  0.79571445597E+02 0.  0.
          6    2    1    2  501    0  0.30649622505E+02 -0.64759435759E+02 -0.27219777177E+03  0.33019740833E+03  0.17264274566E+03 0.  0.
         24    2    5    5    0    0  0.83414094619E+02 -0.21599333256E+02 -0.15475097977E+03  0.19431980562E+03  0.79924206208E+02 0.  0.
          5    1    5    5  501    0 -0.52764472114E+02 -0.43160102504E+02 -0.11744679200E+03  0.13587760271E+03  0.47000000000E+01 0. -1.
        -11    1    6    6    0    0  0.33537346468E+02  0.25661962126E+02 -0.92157945242E+02  0.10137246559E+03  0.00000000000E+00 0.  1.
         12    1    6    6    0    0  0.49876748151E+02 -0.47261295382E+02 -0.62593034528E+02  0.92947340031E+02  0.00000000000E+00 0. -1.
         -5    1    3    3    0  503 -0.94419586035E+01  0.69423160014E+02 -0.26306128440E+03  0.27227202404E+03  0.47000000000E+01 0.  1.
         13    1    4    4    0    0  0.27044422101E+02 -0.62729562026E+01 -0.23488408822E+03  0.23651910208E+03  0.00000000000E+00 0. -1.
        -14    1    4    4    0    0 -0.48252086002E+02  0.16092319477E+01 -0.95565597519E+03  0.95687470253E+03  0.00000000000E+00 0.  1.
</event>
<event>
12    1  0.8133495E-002  0.2240260E+03  0.7818608E-02  0.1131197E+00
         21   -1    0    0  503  502  0.00000000000E+00  0.00000000000E+00  0.76651634715E+03  0.76651634715E+03  0.00000000000E+00 0.  1.
         21   -1    0    0  501  503 -0.00000000000E+00 -0.00000000000E+00 -0.12014971482E+03  0.12014971482E+03  0.00000000000E+00 0.  1.
          6    2    1    2  501    0 -0.57616279923E+02 -0.13027951335E+03  0.23499974547E+02  0.22525515496E+03  0.17290242543E+03 0.  0.
         24    2    3    3    0    0 -0.81552117557E+02 -0.14752700678E+03 -0.14628088009E+01  0.18632405035E+03  0.79369681379E+02 0.  0.
         -6    2    1    2    0  502  0.57616279923E+02  0.13027951335E+03  0.62286665778E+03  0.66141090701E+03  0.17090677932E+03 0.  0.
        -24    2    5    5    0    0  0.19663771608E+02  0.12301200403E+02  0.13399713495E+03  0.15705510446E+03  0.78569015617E+02 0.  0.
          5    1    3    3  501    0  0.23935837634E+02  0.17247493435E+02  0.24962783348E+02  0.38931104602E+02  0.47000000000E+01 0. -1.
        -11    1    4    4    0    0 -0.41681858129E+02 -0.11171269622E+03  0.31600548576E+02  0.12335192931E+03  0.00000000000E+00 0.  1.
         12    1    4    4    0    0 -0.39870259428E+02 -0.35814310563E+02 -0.33063357376E+02  0.62972121045E+02  0.00000000000E+00 0. -1.
         -5    1    5    5    0  502  0.37952508315E+02  0.11797831295E+03  0.48886952283E+03  0.50435580255E+03  0.47000000000E+01 0.  1.
         11    1    6    6    0    0 -0.21712791626E+02 -0.84526792605E+01  0.11258209545E+02  0.25877410787E+02  0.00000000000E+00 0. -1.
        -12    1    6    6    0    0  0.41376563234E+02  0.20753879663E+02  0.12273892541E+03  0.13117769367E+03  0.00000000000E+00 0.  1.
</event>
<event>
12    1  0.8133495E-002  0.1812015E+03  0.7818608E-02  0.1166761E+00
         21   -1    0    0  501  502  0.00000000000E+00  0.00000000000E+00  0.46632419242E+02  0.46632419242E+02  0.00000000000E+00 0.  1.
         21   -1    0    0  502  503 -0.00000000000E+00 -0.00000000000E+00 -0.70325346540E+03  0.70325346540E+03  0.00000000000E+00 0.  1.
         -6    2    1    2    0  503 -0.57699445826E+02 -0.10424160279E+02 -0.34305907316E+03  0.38797357661E+03  0.17145284863E+03 0.  0.
        -24    2    3    3    0    0  0.83482544433E+01  0.34244978110E+02 -0.25703005191E+03  0.27058229443E+03  0.76862985853E+02 0.  0.
          6    2    1    2  501    0  0.57699445826E+02  0.10424160279E+02 -0.31356197299E+03  0.36191230803E+03  0.17094302743E+03 0.  0.
         24    2    5    5    0    0 -0.19905751560E+02 -0.34181705149E+02 -0.16339044500E+03  0.18702426466E+03  0.81957367841E+02 0.  0.
          5    1    5    5  501    0  0.77605197386E+02  0.44605865428E+02 -0.15017152800E+03  0.17488804337E+03  0.47000000000E+01 0. -1.
        -13    1    6    6    0    0 -0.35306981101E+01  0.18056235821E+02 -0.44621211015E+01  0.18931561105E+02  0.00000000000E+00 0.  1.
         14    1    6    6    0    0 -0.16375053450E+02 -0.52237940969E+02 -0.15892832390E+03  0.16809270356E+03  0.00000000000E+00 0. -1.
         -5    1    3    3    0  503 -0.66047700269E+02 -0.44669138389E+02 -0.86029021247E+02  0.11739128218E+03  0.47000000000E+01 0.  1.
         13    1    4    4    0    0 -0.22966071586E+02  0.19986163879E+02 -0.37173166151E+02  0.48049260893E+02  0.00000000000E+00 0. -1.
        -14    1    4    4    0    0  0.31314326029E+02  0.14258814231E+02 -0.21985688576E+03  0.22253303353E+03  0.00000000000E+00 0.  1.
</event>
<event>
12    1  0.8133495E-002  0.1840852E+03  0.7818608E-02  0.1164396E+00
         21   -1    0    0  503  502  0.00000000000E+00  0.00000000000E+00  0.30954512199E+03  0.30954512199E+03  0.00000000000E+00 0.  1.
         21   -1    0    0  501  503 -0.00000000000E+00 -0.00000000000E+00 -0.30927013356E+03  0.30927013356E+03  0.00000000000E+00 0.  1.
          6    2    1    2  501    0  0.49129598735E+02 -0.33782168821E+02 -0.24931078592E+03  0.30990842464E+03  0.17416202594E+03 0.  0.
         24    2    3    3    0    0  0.82892693667E+01 -0.25072519743E+02 -0.25387627884E+03  0.26763876394E+03  0.80498445771E+02 0.  0.
         -6    2    1    2    0  502 -0.49129598735E+02  0.33782168821E+02  0.24958577435E+03  0.30890683091E+03  0.17197505350E+03 0.  0.
        -24    2    5    5    0    0 -0.25743753145E+02  0.83685893880E+02  0.20807312698E+03  0.23974998425E+03  0.80743786860E+02 0.  0.
          5    1    3    3  501    0  0.40840329368E+02 -0.87096490777E+01  0.45654929173E+01  0.42269660698E+02  0.47000000000E+01 0. -1.
        -11    1    4    4    0    0 -0.26477479028E+02 -0.19176600221E+02 -0.20372235856E+03  0.20632885951E+03  0.00000000000E+00 0.  1.
         12    1    4    4    0    0  0.34766748395E+02 -0.58959195218E+01 -0.50153920287E+02  0.61309904429E+02  0.00000000000E+00 0. -1.
         -5    1    5    5    0  502 -0.23385845590E+02 -0.49903725059E+02  0.41512647369E+02  0.69156846663E+02  0.47000000000E+01 0.  1.
         13    1    6    6    0    0 -0.23545917448E+02 -0.46662717348E+01  0.17578732587E+02  0.29752246297E+02  0.00000000000E+00 0. -1.
        -14    1    6    6    0    0 -0.21978356974E+01  0.88352165615E+02  0.19049439439E+03  0.20999773795E+03  0.00000000000E+00 0.  1.
</event>
<event>
12    1  0.8133495E-002  0.2124468E+03  0.7818608E-02  0.1140129E+00
         21   -1    0    0  503  502  0.00000000000E+00  0.00000000000E+00  0.23903537528E+03  0.23903537528E+03  0.00000000000E+00 0. -1.
         21   -1    0    0  501  503 -0.00000000000E+00 -0.00000000000E+00 -0.21021902811E+03  0.21021902811E+03  0.00000000000E+00 0. -1.
          6    2    1    2  501    0  0.51563860330E+02  0.11235221610E+03 -0.60925794909E+02  0.21863072620E+03  0.16972209578E+03 0.  0.
         24    2    3    3    0    0  0.60304064318E+02  0.64139026367E+01 -0.48750586287E+02  0.11153430641E+03  0.79909721083E+02 0.  0.
         -6    2    1    2    0  502 -0.51563860330E+02 -0.11235221610E+03  0.89742142083E+02  0.23062367719E+03  0.17277666585E+03 0.  0.
        -24    2    5    5    0    0  0.16944867447E+02 -0.12546317045E+03  0.81721201096E+02  0.16025487445E+03  0.54544792635E+02 0.  0.
          5    1    3    3  501    0 -0.87402039883E+01  0.10593831346E+03 -0.12175208622E+02  0.10709641978E+03  0.47000000000E+01 0. -1.
        -11    1    4    4    0    0  0.44333303293E+01 -0.26862835940E+02 -0.36214196006E+02  0.45307111637E+02  0.00000000000E+00 0.  1.
         12    1    4    4    0    0  0.55870733989E+02  0.33276738576E+02 -0.12536390281E+02  0.66227194777E+02  0.00000000000E+00 0. -1.
         -5    1    5    5    0  502 -0.68508727776E+02  0.13110954350E+02  0.80209409875E+01  0.70368802745E+02  0.47000000000E+01 0.  1.
         13    1    6    6    0    0  0.71844629741E+01 -0.10742820422E+03  0.87731250561E+02  0.13888559283E+03  0.00000000000E+00 0. -1.
        -14    1    6    6    0    0  0.97604044725E+01 -0.18034966228E+02 -0.60100494652E+01  0.21369281618E+02  0.00000000000E+00 0.  1.
</event>
<event>
12    1  0.8133495E-002  0.1859108E+03  0.7818608E-02  0.1162737E+00
         21   -1    0    0  501  502  0.00000000000E+00  0.00000000000E+00  0.14887894798E+02  0.14887894798E+02  0.00000000000E+00 0.  1.
         21   -1    0    0  502  503 -0.00000000000E+00 -0.00000000000E+00 -0.23069052890E+04  0.23069052890E+04  0.00000000000E+00 0.  1.
         -6    2    1    2    0  503  0.53078073914E+02 -0.38560769856E+02 -0.12431017003E+04  0.12569266786E+04  0.17395006010E+03 0.  0.
        -24    2    3    3    0    0 -0.79661470917E+01 -0.61334912329E+01 -0.26166358706E+03  0.27304620555E+03  0.77364839265E+02 0.  0.
          6    2    1    2  501    0 -0.53078073914E+02  0.38560769856E+02 -0.10489156940E+04  0.10648665052E+04  0.17150022125E+03 0.  0.
         24    2    5    5    0    0 -0.72859384219E+02  0.75216018324E+01 -0.38257425177E+03  0.39749274349E+03  0.79198223782E+02 0.  0.
          5    1    5    5  501    0  0.19781310305E+02  0.31039168024E+02 -0.66634144220E+03  0.66737376169E+03  0.47000000000E+01 0. -1.
        -11    1    6    6    0    0 -0.15442974458E+02  0.13366994189E+02 -0.14813346549E+02  0.25230878497E+02  0.00000000000E+00 0.  1.
         12    1    6    6    0    0 -0.57416409761E+02 -0.58453923570E+01 -0.36776090522E+03  0.37226186500E+03  0.00000000000E+00 0. -1.
         -5    1    3    3    0  503  0.61044221006E+02 -0.32427278623E+02 -0.98143811319E+03  0.98388047309E+03  0.47000000000E+01 0.  1.
         13    1    4    4    0    0 -0.34148998020E+02 -0.11422032703E+02 -0.62754162510E+02  0.72351239168E+02  0.00000000000E+00 0. -1.
        -14    1    4    4    0    0  0.26182850928E+02  0.52885414701E+01 -0.19890942455E+03  0.20069496638E+03  0.00000000000E+00 0.  1.
</event>
<event>
12    1  0.8133495E-002  0.2279784E+03  0.7818608E-02  0.1128167E+00
         21   -1    0    0  503  502  0.00000000000E+00  0.00000000000E+00  0.13801349561E+03  0.13801349561E+03  0.00000000000E+00 0. -1.
         21   -1    0    0  501  503 -0.00000000000E+00 -0.00000000000E+00 -0.40289433310E+03  0.40289433310E+03  0.00000000000E+00 0. -1.
          6    2    1    2  501    0 -0.12827778456E+03 -0.80540136888E+02 -0.62020480532E+02  0.23574151904E+03  0.16966325510E+03 0.  0.
         24    2    3    3    0    0 -0.14688870643E+03 -0.93902175027E+02 -0.74525018078E+02  0.20922050972E+03  0.88460911229E+02 0.  0.
         -6    2    1    2    0  502  0.12827778456E+03  0.80540136888E+02 -0.20286035696E+03  0.30516630967E+03  0.17038852212E+03 0.  0.
        -24    2    5    5    0    0  0.15322629818E+03  0.55340951814E+02 -0.12445672471E+03  0.21898831474E+03  0.76977180163E+02 0.  0.
          5    1    3    3  501    0  0.18610921868E+02  0.13362038138E+02  0.12504537546E+02  0.26521009318E+02  0.47000000000E+01 0. -1.
        -11    1    4    4    0    0 -0.59483982763E+02  0.24747181936E+01 -0.47908565519E+02  0.76417923851E+02  0.00000000000E+00 0.  1.
         12    1    4    4    0    0 -0.87404723667E+02 -0.96376893220E+02 -0.26616452558E+02  0.13280258587E+03  0.00000000000E+00 0. -1.
         -5    1    5    5    0  502 -0.24948513622E+02  0.25199185074E+02 -0.78403632246E+02  0.86177994928E+02  0.47000000000E+01 0.  1.
         13    1    6    6    0    0  0.96685954647E+02  0.46773465657E+02 -0.35280547759E+02  0.11305152792E+03  0.00000000000E+00 0. -1.
        -14    1    6    6    0    0  0.56540343537E+02  0.85674861573E+01 -0.89176176951E+02  0.10593678682E+03  0.00000000000E+00 0.  1.
</event>
<event>
12    1  0.8133495E-002  0.2066027E+03  0.7818608E-02  0.1144374E+00
         21   -1    0    0  503  502  0.00000000000E+00  0.00000000000E+00  0.65603793552E+02  0.65603793552E+02  0.00000000000E+00 0.  1.
         21   -1    0    0  501  503 -0.00000000000E+00 -0.00000000000E+00 -0.78536547062E+03  0.78536547062E+03  0.00000000000E+00 0.  1.
          6    2    1    2  501    0 -0.29099358842E+02  0.10804270785E+03 -0.53732033788E+03  0.57567162804E+03  0.17367981582E+03 0.  0.
         24    2    3    3    0    0  0.30354437835E+02  0.33426455363E+02 -0.38542474196E+03  0.39623723575E+03  0.80081180487E+02 0.  0.
         -6    2    1    2    0  502  0.29099358842E+02 -0.10804270785E+03 -0.18244133919E+03  0.27529763613E+03  0.17315873299E+03 0.  0.
        -24    2    5    5    0    0  0.73378918163E+02 -0.68937283001E+02 -0.17196163177E+03  0.21511601191E+03  0.81038763314E+02 0.  0.
          5    1    3    3  501    0 -0.59453796677E+02  0.74616252488E+02 -0.15189559592E+03  0.17943439229E+03  0.47000000000E+01 0. -1.
        -13    1    4    4    0    0 -0.40743017863E+01  0.51498476550E+02 -0.25307887537E+03  0.25829752260E+03  0.00000000000E+00 0.  1.
         14    1    4    4    0    0  0.34428739622E+02 -0.18072021188E+02 -0.13234586659E+03  0.13793971315E+03  0.00000000000E+00 0. -1.
         -5    1    5    5    0  502 -0.44279559322E+02 -0.39105424849E+02 -0.10479707411E+02  0.60181624220E+02  0.47000000000E+01 0.  1.
         11    1    6    6    0    0  0.12957604791E+02  0.18727265965E+02 -0.29898557306E+02  0.37583689832E+02  0.00000000000E+00 0. -1.
        -12    1    6    6    0    0  0.60421313372E+02 -0.87664548966E+02 -0.14206307447E+03  0.17753232208E+03  0.00000000000E+00 0.  1.
</event>
<event>
12    1  0.8133495E-002  0.1809810E+03  0.7818608E-02  0.1166871E+00
         21   -1    0    0  501  502  0.00000000000E+00  0.00000000000E+00  0.10878615036E+03  0.10878615036E+03  0.00000000000E+00 0.  1.
         21   -1    0    0  502  503 -0.00000000000E+00 -0.00000000000E+00 -0.11030660096E+04  0.11030660096E+04  0.00000000000E+00 0.  1.
         -6    2    1    2    0  503 -0.43730815947E+01  0.56109785615E+02 -0.10138485372E+04  0.10298752249E+04  0.17200782128E+03 0.  0.
        -24    2    3    3    0    0 -0.37423769257E+02 -0.19524230298E+02 -0.38240121542E+03  0.39303877611E+03  0.80418007289E+02 0.  0.
          6    2    1    2  501    0  0.43730815947E+01 -0.56109785615E+02  0.19568677994E+02  0.18197693504E+03  0.17194545601E+03 0.  0.
         24    2    5    5    0    0  0.40182937686E+02 -0.66564297709E+02  0.60337735412E+02  0.12651660093E+03  0.79500526956E+02 0.  0.
          5    1    5    5  501    0 -0.35809856091E+02  0.10454512095E+02 -0.40769057418E+02  0.55460334107E+02  0.47000000000E+01 0. -1.
        -11    1    6    6    0    0  0.36323742200E+02  0.44449920051E+01  0.61449688928E+01  0.37107045747E+02  0.00000000000E+00 0.  1.
         12    1    6    6    0    0  0.38591954858E+01 -0.71009289714E+02  0.54192766519E+02  0.89409555186E+02  0.00000000000E+00 0. -1.
         -5    1    3    3    0  503  0.33050687662E+02  0.75634015912E+02 -0.63144732178E+03  0.63683644878E+03  0.47000000000E+01 0.  1.
         11    1    4    4    0    0 -0.50197279730E+02  0.13046816608E+02 -0.28165701250E+03  0.28639249118E+03  0.00000000000E+00 0. -1.
        -12    1    4    4    0    0  0.12773510473E+02 -0.32571046906E+02 -0.10074420292E+03  0.10664628492E+03  0.00000000000E+00 0.  1.
</event>
<event>
12    1  0.8133495E-002  0.1747996E+03  0.7818608E-02  0.1173250E+00
         21   -1    0    0  501  502  0.00000000000E+00  0.00000000000E+00  0.45970312133E+03  0.45970312133E+03  0.00000000000E+00 0.  1.
         21   -1    0    0  502  503 -0.00000000000E+00 -0.00000000000E+00 -0.83825982306E+02  0.83825982306E+02  0.00000000000E+00 0.  1.
         -6    2    1    2    0  503 -0.78636123731E+01  0.12338340371E+02  0.62044310160E+02  0.18429942798E+03  0.17292400553E+03 0.  0.
        -24    2    3    3    0    0 -0.15822680831E+02  0.14404088042E+02  0.10900114619E+03  0.13639693813E+03  0.79152004911E+02 0.  0.
          6    2    1    2  501    0  0.78636123731E+01 -0.12338340371E+02  0.31383282887E+03  0.35922967566E+03  0.17418623469E+03 0.  0.
         24    2    5    5    0    0  0.55113286845E+02 -0.19627970173E+02  0.28777676939E+03  0.30457916170E+03  0.80810055932E+02 0.  0.
          5    1    5    5  501    0 -0.47249674472E+02  0.72896298019E+01  0.26056059473E+02  0.54650513956E+02  0.47000000000E+01 0. -1.
        -11    1    6    6    0    0  0.20981228145E+02 -0.25920466914E+02  0.25389572331E+03  0.25607639652E+03  0.00000000000E+00 0.  1.
         12    1    6    6    0    0  0.34132058700E+02  0.62924967409E+01  0.33881046079E+02  0.48502765176E+02  0.00000000000E+00 0. -1.
         -5    1    3    3    0  503  0.79590684574E+01 -0.20657476713E+01 -0.46956836026E+02  0.47902489849E+02  0.47000000000E+01 0.  1.
         11    1    4    4    0    0  0.90278230216E+01  0.36429496256E+02  0.91418439766E+02  0.98822775286E+02  0.00000000000E+00 0. -1.
        -12    1    4    4    0    0 -0.24850503852E+02 -0.22025408214E+02  0.17582706421E+02  0.37574162849E+02  0.00000000000E+00 0.  1.
</event>
<event>
12    1  0.8133495E-002  0.1990320E+03  0.7818608E-02  0.1150633E+00
         21   -1    0    0  503  502  0.00000000000E+00  0.00000000000E+00  0.25550227375E+03  0.25550227375E+03  0.00000000000E+00 0.  1.
         21   -1    0    0  501  503 -0.00000000000E+00 -0.00000000000E+00 -0.16797473880E+03  0.16797473880E+03  0.00000000000E+00 0.  1.
          6    2    1    2  501    0 -0.27094959759E+02 -0.93236789791E+02 -0.15643636729E+02  0.19929402830E+03  0.17333825467E+03 0.  0.
         24    2    3    3    0    0  0.41637620182E+02 -0.28812306763E+02 -0.41900842732E+02  0.10138482329E+03  0.77196899782E+02 0.  0.
         -6    2    1    2    0  502  0.27094959759E+02  0.93236789791E+02  0.10317117168E+03  0.22418298425E+03  0.17374257954E+03 0.  0.
        -24    2    5    5    0    0 -0.27633706964E+02  0.86687514173E+02  0.17403588759E+02  0.12212276549E+03  0.79578502600E+02 0.  0.
          5    1    3    3  501    0 -0.68732579941E+02 -0.64424483028E+02  0.26257206003E+02  0.97909205011E+02  0.47000000000E+01 0. -1.
        -13    1    4    4    0    0 -0.10522868123E+02 -0.31378531944E+02 -0.35883600183E+02  0.48815732941E+02  0.00000000000E+00 0.  1.
         14    1    4    4    0    0  0.52160488305E+02  0.25662251807E+01 -0.60172425490E+01  0.52569090346E+02  0.00000000000E+00 0. -1.
         -5    1    5    5    0  502  0.54728666723E+02  0.65492756187E+01  0.85767582918E+02  0.10206021875E+03  0.47000000000E+01 0.  1.
         11    1    6    6    0    0 -0.36365305382E+01  0.32645460559E+02 -0.31409091755E+02  0.45447568629E+02  0.00000000000E+00 0. -1.
        -12    1    6    6    0    0 -0.23997176426E+02  0.54042053614E+02  0.48812680514E+02  0.76675196864E+02  0.00000000000E+00 0.  1.
</event>
<event>
12    1  0.8133495E-002  0.2005737E+03  0.7818608E-02  0.1149594E+00
         21   -1    0    0  501  502  0.00000000000E+00  0.00000000000E+00  0.61450931074E+02  0.61450931074E+02  0.00000000000E+00 0.  1.
         21   -1    0    0  502  503 -0.00000000000E+00 -0.00000000000E+00 -0.64975767142E+03  0.64975767142E+03  0.00000000000E+00 0.  1.
         -6    2    1    2    0  503 -0.12920946187E+02 -0.10013885734E+03 -0.30066735191E+03  0.36054320851E+03  0.17145205481E+03 0.  0.
        -24    2    3    3    0    0 -0.64908784203E+02 -0.10401010912E+03 -0.17350457844E+03  0.22302890799E+03  0.67873426252E+02 0.  0.
          6    2    1    2  501    0  0.12920946187E+02  0.10013885734E+03 -0.28763938844E+03  0.35066539399E+03  0.17330625828E+03 0.  0.
         24    2    5    5    0    0  0.63290838953E+02  0.46989946816E+02 -0.23016690281E+03  0.25746072999E+03  0.84234428458E+02 0.  0.
          5    1    5    5  501    0 -0.50369892765E+02  0.53148910526E+02 -0.57472485626E+02  0.93204664000E+02  0.47000000000E+01 0. -1.
        -13    1    6    6    0    0  0.77172495398E+02  0.54687434295E+02 -0.21742064736E+03  0.23710345298E+03  0.00000000000E+00 0.  1.
         14    1    6    6    0    0 -0.13881656445E+02 -0.76974874783E+01 -0.12746255452E+02  0.20357277008E+02  0.00000000000E+00 0. -1.
         -5    1    3    3    0  503  0.51987838016E+02  0.38712517817E+01 -0.12716277347E+03  0.13751430052E+03  0.47000000000E+01 0.  1.
         11    1    4    4    0    0 -0.10552345817E+00  0.44345136336E+00  0.56995641914E+01  0.57177632239E+01  0.00000000000E+00 0. -1.
        -12    1    4    4    0    0 -0.64803260745E+02 -0.10445356049E+03 -0.17920414263E+03  0.21731114476E+03  0.00000000000E+00 0.  1.
</event>
<event>
12    1  0.8133495E-002  0.1899916E+03  0.7818608E-02  0.1158570E+00
         21   -1    0    0  503  502  0.00000000000E+00  0.00000000000E+00  0.52347863544E+02  0.52347863544E+02  0.00000000000E+00 0.  1.
         21   -1    0    0  501  503 -0.00000000000E+00 -0.00000000000E+00 -0.10186629701E+04  0.10186629701E+04  0.00000000000E+00 0.  1.
          6    2    1    2  501    0 -0.83534640478E+02 -0.38074718195E+01 -0.78790142457E+03  0.81038037327E+03  0.17010338485E+03 0.  0.
         24    2    3    3    0    0 -0.10591395375E+03 -0.47575086597E+02 -0.57870008748E+03  0.59542985058E+03  0.78496886838E+02 0.  0.
         -6    2    1    2    0  502  0.83534640478E+02  0.38074718195E+01 -0.17841368202E+03  0.26063046041E+03  0.17059971266E+03 0.  0.
        -24    2    5    5    0    0  0.64224361541E+02 -0.62561447600E+02 -0.10325268044E+03  0.15841017624E+03  0.79962269707E+02 0.  0.
          5    1    3    3  501    0  0.22379313272E+02  0.43767614777E+02 -0.20920133709E+03  0.21495052270E+03  0.47000000000E+01 0. -1.
        -13    1    4    4    0    0 -0.20096042871E+02 -0.28465710930E+02 -0.32630189693E+03  0.32815708979E+03  0.00000000000E+00 0.  1.
         14    1    4    4    0    0 -0.85817910880E+02 -0.19109375667E+02 -0.25239819055E+03  0.26727276079E+03  0.00000000000E+00 0. -1.
         -5    1    5    5    0  502  0.19310278937E+02  0.66368919420E+02 -0.75161001580E+02  0.10222028417E+03  0.47000000000E+01 0.  1.
         11    1    6    6    0    0  0.47712763043E+01  0.23692143148E+01 -0.60153196218E+02  0.60388618707E+02  0.00000000000E+00 0. -1.
        -12    1    6    6    0    0  0.59453085237E+02 -0.64930661915E+02 -0.43099484226E+02  0.98021557535E+02  0.00000000000E+00 0.  1.
</event>
<event>
12    1  0.8133495E-002  0.1738547E+03  0.7818608E-02  0.1174090E+00
         21   -1    0    0  503  502  0.00000000000E+00  0.00000000000E+00  0.12400625199E+03  0.12400625199E+03  0.00000000000E+00 0. -1.
         21   -1    0    0  501  503 -0.00000000000E+00 -0.00000000000E+00 -0.29337725079E+03  0.29337725079E+03  0.00000000000E+00 0. -1.
          6    2    1    2  501    0  0.63589313200E+01 -0.20732710703E+02 -0.17132712046E+03  0.24351775717E+03  0.17169051969E+03 0.  0.
         24    2    3    3    0    0  0.13266422669E+02 -0.74914531391E+02 -0.78722958900E+02  0.13590268449E+03  0.80523601563E+02 0.  0.
         -6    2    1    2    0  502 -0.63589313200E+01  0.20732710703E+02  0.19561216579E+01  0.17386574561E+03  0.17249692688E+03 0.  0.
        -24    2    5    5    0    0 -0.31801146676E+01 -0.48517093911E+01  0.66838518621E+02  0.10389087253E+03  0.79323852718E+02 0.  0.
          5    1    3    3  501    0 -0.69074913487E+01  0.54181820687E+02 -0.92604161564E+02  0.10761507268E+03  0.47000000000E+01 0. -1.
        -11    1    4    4    0    0  0.61004337600E+00  0.16900491030E+02 -0.19959189019E+02  0.26160427678E+02  0.00000000000E+00 0.  1.
         12    1    4    4    0    0  0.12656379293E+02 -0.91815022420E+02 -0.58763769880E+02  0.10974225681E+03  0.00000000000E+00 0. -1.
         -5    1    5    5    0  502 -0.31788166524E+01  0.25584420095E+02 -0.64882396963E+02  0.69974873080E+02  0.47000000000E+01 0.  1.
         13    1    6    6    0    0  0.38029329147E+02 -0.27131814877E+01  0.35233397643E+02  0.51913230863E+02  0.00000000000E+00 0. -1.
        -14    1    6    6    0    0 -0.41209443815E+02 -0.21385279033E+01  0.31605120978E+02  0.51977641666E+02  0.00000000000E+00 0.  1.
</event>
<event>
12    1  0.8133495E-002  0.2085207E+03  0.7818608E-02  0.1143260E+00
         21   -1    0    0  501  502  0.00000000000E+00  0.00000000000E+00  0.34422602113E+03  0.34422602113E+03  0.00000000000E+00 0.  1.
         21   -1    0    0  502  503 -0.00000000000E+00 -0.00000000000E+00 -0.12538877569E+03  0.12538877569E+03  0.00000000000E+00 0.  1.
         -6    2    1    2    0  503  0.94136350330E+02 -0.60615823899E+02  0.12535884843E+03  0.24109978848E+03  0.17285351186E+03 0.  0.
        -24    2    3    3    0    0 -0.16148689900E+02 -0.56680778548E+01  0.47820391321E+02  0.95441464908E+02  0.80804554980E+02 0.  0.
          6    2    1    2  501    0 -0.94136350330E+02  0.60615823899E+02  0.93478397012E+02  0.22851500835E+03  0.17591181817E+03 0.  0.
         24    2    5    5    0    0 -0.78616219891E+02  0.28441329198E+02 -0.16701282441E+02  0.11259380959E+03  0.73545998433E+02 0.  0.
          5    1    5    5  501    0 -0.15520130439E+02  0.32174494701E+02  0.11017967945E+03  0.11592119876E+03  0.47000000000E+01 0. -1.
        -13    1    6    6    0    0 -0.12910588119E+02 -0.19692715816E+02  0.11751589601E+02  0.26317032506E+02  0.00000000000E+00 0.  1.
         14    1    6    6    0    0 -0.65705631772E+02  0.48134045014E+02 -0.28452872042E+02  0.86276777080E+02  0.00000000000E+00 0. -1.
         -5    1    3    3    0  503  0.11028504023E+03 -0.54947746044E+02  0.77538457110E+02  0.14565832357E+03  0.47000000000E+01 0.  1.
         13    1    4    4    0    0  0.22399944224E+02 -0.27489101380E+02  0.91033815340E+01  0.36609831347E+02  0.00000000000E+00 0. -1.
        -14    1    4    4    0    0 -0.38548634124E+02  0.21821023525E+02  0.38717009787E+02  0.58831633561E+02  0.00000000000E+00 0.  1.
</event>
<event>
12    1  0.8133495E-002  0.1951495E+03  0.7818608E-02  0.1154625E+00
         21   -1    0    0  503  502  0.00000000000E+00  0.00000000000E+00  0.13708221472E+03  0.13708221472E+03  0.00000000000E+00 0. -1.
         21   -1    0    0  501  503 -0.00000000000E+00 -0.00000000000E+00 -0.74165150142E+03  0.74165150142E+03  0.00000000000E+00 0.  1.
          6    2    1    2  501    0 -0.69758417859E+02 -0.61193450424E+02 -0.65245244895E+03  0.68101214311E+03  0.17167546618E+03 0.  0.
         24    2    3    3    0    0  0.12118605962E+02 -0.68203186757E+02 -0.45265613350E+03  0.46492502850E+03  0.80368971859E+02 0.  0.
         -6    2    1    2    0  502  0.69758417859E+02  0.61193450424E+02  0.47883162256E+02  0.19772157303E+03  0.16789921970E+03 0.  0.
        -24    2    5    5    0    0  0.32078719819E+02  0.52909017989E+02  0.93701959875E+02  0.13763959836E+03  0.79600209186E+02 0.  0.
          5    1    3    3  501    0 -0.81877023821E+02  0.70097363334E+01 -0.19979631545E+03  0.21608711461E+03  0.47000000000E+01 0. -1.
        -11    1    4    4    0    0 -0.13135104966E+02 -0.51353544999E+02 -0.40477223436E+03  0.40822821960E+03  0.00000000000E+00 0.  1.
         12    1    4    4    0    0  0.25253710928E+02 -0.16849641758E+02 -0.47883899134E+02  0.56696808898E+02  0.00000000000E+00 0. -1.
         -5    1    5    5    0  502  0.37679698040E+02  0.82844324346E+01 -0.45818797619E+02  0.60081974671E+02  0.47000000000E+01 0.  1.
         11    1    6    6    0    0  0.58859633024E+02  0.39340240674E+02  0.66111149434E+02  0.96864828578E+02  0.00000000000E+00 0. -1.
        -12    1    6    6    0    0 -0.26780913205E+02  0.13568777315E+02  0.27590810441E+02  0.40774769781E+02  0.00000000000E+00 0.  1.
</event>
<event>
12    1  0.8133495E-002  0.1788419E+03  0.7818608E-02  0.1169097E+00
         21   -1    0    0  501  502  0.00000000000E+00  0.00000000000E+00  0.30013651492E+02  0.30013651492E+02  0.00000000000E+00 0.  1.
         21   -1    0    0  502  503 -0.00000000000E+00 -0.00000000000E+00 -0.11461965278E+04  0.11461965278E+04  0.00000000000E+00 0.  1.
         -6    2    1    2    0  503  0.85644696139E+01  0.48852311158E+02 -0.71689834743E+03  0.73870295571E+03  0.17111083477E+03 0.  0.
        -24    2    3    3    0    0 -0.50774427563E+02  0.26194956830E+02 -0.57550106648E+03  0.58362316500E+03  0.78423867256E+02 0.  0.
          6    2    1    2  501    0 -0.85644696139E+01 -0.48852311158E+02 -0.39928452884E+03  0.43750722355E+03  0.17182705620E+03 0.  0.
         24    2    5    5    0    0  0.27570547174E+02 -0.91446880773E+02 -0.25219425487E+03  0.28009796240E+03  0.75698476050E+02 0.  0.
          5    1    5    5  501    0 -0.36135016788E+02  0.42594569615E+02 -0.14709027397E+03  0.15740926115E+03  0.47000000000E+01 0. -1.
        -11    1    6    6    0    0  0.46082961328E+02 -0.45073251103E+02 -0.18816898974E+03  0.19890401200E+03  0.00000000000E+00 0.  1.
         12    1    6    6    0    0 -0.18512414154E+02 -0.46373629670E+02 -0.64025265131E+02  0.81193950401E+02  0.00000000000E+00 0. -1.
         -5    1    3    3    0  503  0.59338897177E+02  0.22657354328E+02 -0.14139728096E+03  0.15507979071E+03  0.47000000000E+01 0.  1.
         11    1    4    4    0    0 -0.21033646718E+02  0.25759907017E+02 -0.51630125693E+03  0.51737121587E+03  0.00000000000E+00 0. -1.
        -12    1    4    4    0    0 -0.29740780844E+02  0.43504981249E+00 -0.59199809547E+02  0.66251949133E+02  0.00000000000E+00 0.  1.
</event>
<event>
12    1  0.8133495E-002  0.2996513E+03  0.7818608E-02  0.1085418E+00
         21   -1    0    0  503  502  0.00000000000E+00  0.00000000000E+00  0.42886822405E+03  0.42886822405E+03  0.00000000000E+00 0.  1.
         21   -1    0    0  501  503 -0.00000000000E+00 -0.00000000000E+00 -0.33485208154E+03  0.33485208154E+03  0.00000000000E+00 0. -1.
          6    2    1    2  501    0 -0.92845296374E+02 -0.22627214478E+03 -0.18676774632E+03  0.35309074243E+03  0.17312292961E+03 0.  0.
         24    2    3    3    0    0 -0.96256735396E+02 -0.10277182860E+03 -0.51241397613E+02  0.16964198335E+03  0.79531841562E+02 0.  0.
         -6    2    1    2    0  502  0.92845296374E+02  0.22627214478E+03  0.28078388883E+03  0.41062956316E+03  0.17308296667E+03 0.  0.
        -24    2    5    5    0    0  0.12713183694E+03  0.13266004856E+03  0.18704258136E+03  0.27370507978E+03  0.78538850314E+02 0.  0.
          5    1    3    3  501    0  0.34114390218E+01 -0.12350031618E+03 -0.13552634871E+03  0.18344875908E+03  0.47000000000E+01 0. -1.
        -13    1    4    4    0    0 -0.10063922342E+03 -0.57324975977E+02 -0.40880119695E+02  0.12282341123E+03  0.00000000000E+00 0.  1.
         14    1    4    4    0    0  0.43824880220E+01 -0.45446852627E+02 -0.10361277918E+02  0.46818572117E+02  0.00000000000E+00 0. -1.
         -5    1    5    5    0  502 -0.34286540564E+02  0.93612096224E+02  0.93741307465E+02  0.13692448338E+03  0.47000000000E+01 0.  1.
         13    1    6    6    0    0  0.65049595730E+02  0.57148519063E+02  0.14143173454E+03  0.16583226065E+03  0.00000000000E+00 0. -1.
        -14    1    6    6    0    0  0.62082241208E+02  0.75511529498E+02  0.45610846820E+02  0.10787281914E+03  0.00000000000E+00 0.  1.
</event>
<event>
12    1  0.8133495E-002  0.2505868E+03  0.7818608E-02  0.1113145E+00
         21   -1    0    0  501  502  0.00000000000E+00  0.00000000000E+00  0.84638538062E+02  0.84638538062E+02  0.00000000000E+00 0. -1.
         21   -1    0    0  502  503 -0.00000000000E+00 -0.00000000000E+00 -0.83650155321E+03  0.83650155321E+03  0.00000000000E+00 0. -1.
         -6    2    1    2    0  503 -0.79023438396E+01 -0.18275299153E+03 -0.53312471215E+03  0.58851385728E+03  0.16930888503E+03 0.  0.
        -24    2    3    3    0    0 -0.13368612257E+02 -0.15752341230E+03 -0.53328015605E+03  0.56227407981E+03  0.82292592510E+02 0.  0.
          6    2    1    2  501    0  0.79023438396E+01  0.18275299153E+03 -0.21873830300E+03  0.33262623400E+03  0.17126781189E+03 0.  0.
         24    2    5    5    0    0  0.43792762882E+01  0.14599254646E+03 -0.72950714787E+02  0.18216077881E+03  0.80794435860E+02 0.  0.
          5    1    5    5  501    0  0.35230675514E+01  0.36760445072E+02 -0.14578758821E+03  0.15046545519E+03  0.47000000000E+01 0. -1.
        -13    1    6    6    0    0  0.13568041799E+01  0.29902595751E+02 -0.57742350720E+02  0.65039874053E+02  0.00000000000E+00 0.  1.
         14    1    6    6    0    0  0.30224721083E+01  0.11608995071E+03 -0.15208364067E+02  0.11712090476E+03  0.00000000000E+00 0. -1.
         -5    1    3    3    0  503  0.54662684176E+01 -0.25229579230E+02  0.15544389637E+00  0.26239777463E+02  0.47000000000E+01 0.  1.
         11    1    4    4    0    0 -0.42208411738E+02 -0.97757291782E+02 -0.25802336941E+03  0.27913096797E+03  0.00000000000E+00 0. -1.
        -12    1    4    4    0    0  0.28839799481E+02 -0.59766120522E+02 -0.27525678663E+03  0.28314311184E+03  0.00000000000E+00 0.  1.
</event>
<event>
12    1  0.8133495E-002  0.1846412E+03  0.7818608E-02  0.1163919E+00
         21   -1    0    0  501  502  0.00000000000E+00  0.00000000000E+00  0.52338714680E+03  0.52338714680E+03  0.00000000000E+00 0. -1.
         21   -1    0    0  502  503 -0.00000000000E+00 -0.00000000000E+00 -0.83933218238E+02  0.83933218238E+02  0.00000000000E+00 0. -1.
         -6    2    1    2    0  503  0.58995769927E+02 -0.15585187904E+02  0.71976918472E+02  0.19606408691E+03  0.17186346450E+03 0.  0.
        -24    2    3    3    0    0  0.82477286279E+01 -0.16374694489E+02 -0.27110379733E+02  0.84635321852E+02  0.78051325220E+02 0.  0.
          6    2    1    2  501    0 -0.58995769927E+02  0.15585187904E+02  0.36747701009E+03  0.41125627813E+03  0.17426696304E+03 0.  0.
         24    2    5    5    0    0 -0.91749021259E+02  0.53810288540E+02  0.28053939030E+03  0.31068703071E+03  0.80688608174E+02 0.  0.
          5    1    5    5  501    0  0.32753251332E+02 -0.38225100635E+02  0.86937619794E+02  0.10056924742E+03  0.47000000000E+01 0. -1.
        -13    1    6    6    0    0  0.55012034385E+01 -0.69827703496E+01  0.15228474708E+01  0.90189459166E+01  0.00000000000E+00 0.  1.
         14    1    6    6    0    0 -0.97250224697E+02  0.60793058889E+02  0.27901654283E+03  0.30166808479E+03  0.00000000000E+00 0. -1.
         -5    1    3    3    0  503  0.50748041299E+02  0.78950658460E+00  0.99087298205E+02  0.11142876506E+03  0.47000000000E+01 0.  1.
         13    1    4    4    0    0  0.19027556781E+01  0.30916114744E+02 -0.18710156807E+02  0.36186967237E+02  0.00000000000E+00 0. -1.
        -14    1    4    4    0    0  0.63449729499E+01 -0.47290809233E+02 -0.84002229259E+01  0.48448354615E+02  0.00000000000E+00 0.  1.
</event>
<event>
12    1  0.8133495E-002  0.1786873E+03  0.7818608E-02  0.1169269E+00
         21   -1    0    0  501  502  0.00000000000E+00  0.00000000000E+00  0.70795295960E+02  0.70795295960E+02  0.00000000000E+00 0. -1.
         21   -1    0    0  502  503 -0.00000000000E+00 -0.00000000000E+00 -0.58524725761E+03  0.58524725761E+03  0.00000000000E+00 0. -1.
         -6    2    1    2    0  503  0.16182588125E+01 -0.48992617570E+02 -0.41588718760E+03  0.45264921187E+03  0.17183207168E+03 0.  0.
        -24    2    3    3    0    0 -0.55754815109E+02 -0.71982997884E+02 -0.18368076037E+03  0.21231165333E+03  0.55203849662E+02 0.  0.
          6    2    1    2  501    0 -0.16182588125E+01  0.48992617570E+02 -0.98564774044E+02  0.20339334169E+03  0.17102906602E+03 0.  0.
         24    2    5    5    0    0 -0.26457784953E+02 -0.14392379158E+02 -0.25399268723E+01  0.85590450628E+02  0.80075708225E+02 0.  0.
          5    1    5    5  501    0  0.24839526141E+02  0.63384996728E+02 -0.96024847172E+02  0.11780289107E+03  0.47000000000E+01 0. -1.
        -13    1    6    6    0    0 -0.45724298906E+02  0.16079793668E+02  0.51029120205E+01  0.48737162268E+02  0.00000000000E+00 0.  1.
         14    1    6    6    0    0  0.19266513953E+02 -0.30472172825E+02 -0.76428388928E+01  0.36853288360E+02  0.00000000000E+00 0. -1.
         -5    1    3    3    0  503  0.57373073921E+02  0.22990380314E+02 -0.23220642723E+03  0.24033755854E+03  0.47000000000E+01 0.  1.
         11    1    4    4    0    0 -0.57204037549E+02 -0.35031150025E+02 -0.13879578809E+03  0.15415496805E+03  0.00000000000E+00 0. -1.
        -12    1    4    4    0    0  0.14492224403E+01 -0.36951847859E+02 -0.44884972284E+02  0.58156685281E+02  0.00000000000E+00 0.  1.
</event>
<event>
12    1  0.8133495E-002  0.1849955E+03  0.7818608E-02  0.1163398E+00
         21   -1    0    0  503  502  0.00000000000E+00  0.00000000000E+00  0.15291919878E+04  0.15291919878E+04  0.00000000000E+00 0. -1.
         21   -1    0    0  501  503 -0.00000000000E+00 -0.00000000000E+00 -0.23252831043E+02  0.23252831043E+02  0.00000000000E+00 0. -1.
          6    2    1    2  501    0  0.62929324217E+02  0.11617080506E+02  0.59090760829E+03  0.61918910280E+03  0.17357501861E+03 0.  0.
         24    2    3    3    0    0  0.29399909884E+02  0.26340790764E+02  0.56940559491E+03  0.57646398316E+03  0.80807180359E+02 0.  0.
         -6    2    1    2    0  502 -0.62929324217E+02 -0.11617080506E+02  0.91503154846E+03  0.93325571604E+03  0.17201290774E+03 0.  0.
        -24    2    5    5    0    0 -0.97604374791E+02 -0.46048205011E+02  0.69477720736E+03  0.70759684464E+03  0.79566799053E+02 0.  0.
          5    1    3    3  501    0  0.33529414334E+02 -0.14723710258E+02  0.21502013374E+02  0.42725119643E+02  0.47000000000E+01 0. -1.
        -11    1    4    4    0    0  0.42347160706E+02 -0.16237057030E+02  0.27546217620E+03  0.27917079818E+03  0.00000000000E+00 0.  1.
         12    1    4    4    0    0 -0.12947250823E+02  0.42577847794E+02  0.29394341871E+03  0.29729318497E+03  0.00000000000E+00 0. -1.
         -5    1    5    5    0  502  0.34675050574E+02  0.34431124505E+02  0.22025434110E+03  0.22565887139E+03  0.47000000000E+01 0.  1.
         13    1    6    6    0    0 -0.76426570245E+02 -0.24144658774E+02  0.63929435317E+03  0.64429904174E+03  0.00000000000E+00 0. -1.
        -14    1    6    6    0    0 -0.21177804546E+02 -0.21903546237E+02  0.55482854190E+02  0.63297802902E+02  0.00000000000E+00 0.  1.
</event>
<event>
12    1  0.8133495E-002  0.2078397E+03  0.7818608E-02  0.1143369E+00
         21   -1    0    0  501  502  0.00000000000E+00  0.00000000000E+00  0.28931138274E+03  0.28931138274E+03  0.00000000000E+00 0. -1.
         21   -1    0    0  502  503 -0.00000000000E+00 -0.00000000000E+00 -0.17177110059E+03  0.17177110059E+03  0.00000000000E+00 0. -1.
         -6    2    1    2    0  503  0.70699513705E+02 -0.92440726081E+02 -0.25175643912E+02  0.20896117104E+03  0.17171851642E+03 0.  0.
        -24    2    3    3    0    0  0.14318217907E+02 -0.11881095443E+03 -0.51683318082E+01  0.14341254789E+03  0.78863128157E+02 0.  0.
          6    2    1    2  501    0 -0.70699513705E+02  0.92440726081E+02  0.14271592606E+03  0.25212131229E+03  0.17220224006E+03 0.  0.
         24    2    5    5    0    0 -0.22502354351E+02  0.49297858427E+02  0.15821348684E+03  0.18543894888E+03  0.80121542333E+02 0.  0.
          5    1    5    5  501    0 -0.48197159354E+02  0.43142867654E+02 -0.15497560786E+02  0.66682363407E+02  0.47000000000E+01 0. -1.
        -11    1    6    6    0    0 -0.11912531625E+02  0.73472119755E+01 -0.62872660906E+01  0.15343391034E+02  0.00000000000E+00 0.  1.
         12    1    6    6    0    0 -0.10589822726E+02  0.41950646452E+02  0.16450075294E+03  0.17009555785E+03  0.00000000000E+00 0. -1.
         -5    1    3    3    0  503  0.56381295798E+02  0.26370228349E+02 -0.20007312104E+02  0.65548623148E+02  0.47000000000E+01 0.  1.
         11    1    4    4    0    0  0.33812040030E+02 -0.40969081315E+02 -0.27911196760E+02  0.60006287832E+02  0.00000000000E+00 0. -1.
        -12    1    4    4    0    0 -0.19493822123E+02 -0.77841873115E+02  0.22742864952E+02  0.83406260061E+02  0.00000000000E+00 0.  1.
</event>
<event>
12    1  0.8133495E-002  0.1942058E+03  0.7818608E-02  0.1155383E+00
         21   -1    0    0  503  502  0.00000000000E+00  0.00000000000E+00  0.10158070907E+03  0.10158070907E+03  0.00000000000E+00 0. -1.
         21   -1    0    0  501  503 -0.00000000000E+00 -0.00000000000E+00 -0.38166640069E+03  0.38166640069E+03  0.00000000000E+00 0. -1.
          6    2    1    2  501    0 -0.30480837369E+02 -0.77453110470E+02 -0.19066957962E+03  0.27215949280E+03  0.17546462652E+03 0.  0.
         24    2    3    3    0    0 -0.78629019245E+01  0.28022274812E+01 -0.16549597393E+03  0.18493397648E+03  0.82109564406E+02 0.  0.
         -6    2    1    2    0  502  0.30480837369E+02  0.77453110470E+02 -0.89416111993E+02  0.21108761696E+03  0.17214724854E+03 0.  0.
        -24    2    5    5    0    0  0.67428920977E+02  0.57864013546E+02 -0.78618669044E+01  0.11931573405E+03  0.79243498106E+02 0.  0.
          5    1    3    3  501    0 -0.22617935445E+02 -0.80255337951E+02 -0.25173605696E+02  0.87225516319E+02  0.47000000000E+01 0. -1.
        -13    1    4    4    0    0  0.14296141475E+01  0.34867048726E+02 -0.32068635892E+02  0.47393589139E+02  0.00000000000E+00 0.  1.
         14    1    4    4    0    0 -0.92925160719E+01 -0.32064821244E+02 -0.13342733803E+03  0.13754038734E+03  0.00000000000E+00 0. -1.
         -5    1    5    5    0  502 -0.36948083608E+02  0.19589096924E+02 -0.81554245088E+02  0.91771882909E+02  0.47000000000E+01 0.  1.
         11    1    6    6    0    0  0.66111655638E+02  0.31241599153E+02 -0.35183177493E+02  0.81145822489E+02  0.00000000000E+00 0. -1.
        -12    1    6    6    0    0  0.13172653393E+01  0.26622414392E+02  0.27321310589E+02  0.38169911558E+02  0.00000000000E+00 0.  1.
</event>
<event>
12    1  0.8133495E-002  0.1978943E+03  0.7818608E-02  0.1151810E+00
         21   -1    0    0  501  502  0.00000000000E+00  0.00000000000E+00  0.30855789455E+03  0.30855789455E+03  0.00000000000E+00 0. -1.
         21   -1    0    0  502  503 -0.00000000000E+00 -0.00000000000E+00 -0.15384659286E+03  0.15384659286E+03  0.00000000000E+00 0. -1.
         -6    2    1    2    0  503 -0.95864837184E+02  0.10572802812E+02 -0.21079354144E+02  0.19770750365E+03  0.17129526164E+03 0.  0.
        -24    2    3    3    0    0  0.15519439614E+01 -0.15648701736E+02  0.26030216050E+02  0.86266944812E+02  0.80728701362E+02 0.  0.
          6    2    1    2  501    0  0.95864837184E+02 -0.10572802812E+02  0.17579065583E+03  0.26469698377E+03  0.17280129447E+03 0.  0.
         24    2    5    5    0    0 -0.58358594312E+01 -0.36556235928E+02  0.65975366008E+02  0.11271126613E+03  0.83550373734E+02 0.  0.
          5    1    5    5  501    0  0.10170069662E+03  0.25983433115E+02  0.10981528982E+03  0.15198571764E+03  0.47000000000E+01 0. -1.
        -11    1    6    6    0    0 -0.30527551328E+01  0.17560641785E+02 -0.91866293734E+01  0.20052172278E+02  0.00000000000E+00 0.  1.
         12    1    6    6    0    0 -0.27831042985E+01 -0.54116877713E+02  0.75161995382E+02  0.92659093848E+02  0.00000000000E+00 0. -1.
         -5    1    3    3    0  503 -0.97416781146E+02  0.26221504549E+02 -0.47109570194E+02  0.11144055883E+03  0.47000000000E+01 0.  1.
         13    1    4    4    0    0  0.26862423980E+00 -0.17285306399E+02 -0.27615891825E+02  0.32580538018E+02  0.00000000000E+00 0. -1.
        -14    1    4    4    0    0  0.12833197216E+01  0.16366046622E+01  0.53646107875E+02  0.53686406794E+02  0.00000000000E+00 0.  1.
</event>
<event>
12    1  0.8133495E-002  0.2510505E+03  0.7818608E-02  0.1113295E+00
         21   -1    0    0  501  502  0.00000000000E+00  0.00000000000E+00  0.96996692595E+03  0.96996692595E+03  0.00000000000E+00 0. -1.
         21   -1    0    0  502  503 -0.00000000000E+00 -0.00000000000E+00 -0.10023827184E+03  0.10023827184E+03  0.00000000000E+00 0.  1.
         -6    2    1    2    0  503 -0.14817858649E+01  0.17952953797E+03  0.11505592013E+03  0.27615974582E+03  0.17548016914E+03 0.  0.
        -24    2    3    3    0    0  0.30667793084E+02  0.16210277914E+03  0.14063561196E+03  0.23128549949E+03  0.80602620228E+02 0.  0.
          6    2    1    2  501    0  0.14817858649E+01 -0.17952953797E+03  0.75467273398E+03  0.79404545197E+03  0.16954112680E+03 0.  0.
         24    2    5    5    0    0 -0.37053018866E+02 -0.35771738059E+02  0.32650030255E+03  0.34071890603E+03  0.82670320613E+02 0.  0.
          5    1    5    5  501    0  0.38534804731E+02 -0.14375779991E+03  0.42817243143E+03  0.45332654594E+03  0.47000000000E+01 0. -1.
        -11    1    6    6    0    0 -0.61713082781E+01 -0.45087347138E+02  0.79356347293E+02  0.91478870640E+02  0.00000000000E+00 0.  1.
         12    1    6    6    0    0 -0.30881710588E+02  0.93156090791E+01  0.24714395525E+03  0.24924003539E+03  0.00000000000E+00 0. -1.
         -5    1    3    3    0  503 -0.32149578949E+02  0.17426758830E+02 -0.25579691824E+02  0.44874246330E+02  0.47000000000E+01 0.  1.
         11    1    4    4    0    0 -0.27507175959E+02  0.43156781898E+02  0.41006964362E+02  0.65579903013E+02  0.00000000000E+00 0. -1.
        -12    1    4    4    0    0  0.58174969043E+02  0.11894599724E+03  0.99628647596E+02  0.16570559648E+03  0.00000000000E+00 0.  1.
</event>
<event>
12    1  0.8133495E-002  0.1910975E+03  0.7818608E-02  0.1158145E+00
         21   -1    0    0  503  502  0.00000000000E+00  0.00000000000E+00  0.16427331233E+03  0.16427331233E+03  0.00000000000E+00 0.  1.
         21   -1    0    0  501  503 -0.00000000000E+00 -0.00000000000E+00 -0.36406330548E+03  0.36406330548E+03  0.00000000000E+00 0. -1.
          6    2    1    2  501    0  0.62506879773E+02  0.42498026147E+02 -0.26625287468E+03  0.32601119161E+03  0.17227742606E+03 0.  0.
         24    2    3    3    0    0  0.29277611506E+02  0.50329721010E+02 -0.56732246895E+02  0.11367536518E+03  0.79456160609E+02 0.  0.
         -6    2    1    2    0  502 -0.62506879773E+02 -0.42498026147E+02  0.66462881534E+02  0.20232542621E+03  0.17551373515E+03 0.  0.
        -24    2    5    5    0    0 -0.56387445278E+01  0.37201412076E+02  0.79348090189E+01  0.88160586916E+02  0.79332133407E+02 0.  0.
          5    1    3    3  501    0  0.33229268267E+02 -0.78316948633E+01 -0.20952062779E+03  0.21233582643E+03  0.47000000000E+01 0. -1.
        -13    1    4    4    0    0 -0.20726494495E+01 -0.12828864830E+02  0.10150172858E+02  0.16489440792E+02  0.00000000000E+00 0.  1.
         14    1    4    4    0    0  0.31350260955E+02  0.63158585840E+02 -0.66882419753E+02  0.97185924389E+02  0.00000000000E+00 0. -1.
         -5    1    5    5    0  502 -0.56868135245E+02 -0.79699438223E+02  0.58528072515E+02  0.11416483930E+03  0.47000000000E+01 0.  1.
         13    1    6    6    0    0  0.10736086666E+02  0.19006032625E+01 -0.31152492321E+02  0.33005357557E+02  0.00000000000E+00 0. -1.
        -14    1    6    6    0    0 -0.16374831194E+02  0.35300808814E+02  0.39087301340E+02  0.55155229359E+02  0.00000000000E+00 0.  1.
</event>
<event>
12    1  0.8133495E-002  0.2729676E+03  0.7818608E-02  0.1099650E+00
         21   -1    0    0  501  502  0.00000000000E+00  0.00000000000E+00  0.29165221834E+03  0.29165221834E+03  0.00000000000E+00 0. -1.
         21   -1    0    0  502  503 -0.00000000000E+00 -0.00000000000E+00 -0.26626476170E+03  0.26626476170E+03  0.00000000000E+00 0. -1.
         -6    2    1    2    0  503  0.14258402561E+03 -0.15431525142E+03 -0.44438314171E+02  0.27616011292E+03  0.17362673476E+03 0.  0.
        -24    2    3    3    0    0  0.15150689244E+03 -0.17730873558E+03 -0.45075043930E+02  0.25104411620E+03  0.81232152031E+02 0.  0.
          6    2    1    2  501    0 -0.14258402561E+03  0.15431525142E+03  0.69825770819E+02  0.28175686712E+03  0.17426385948E+03 0.  0.
         24    2    5    5    0    0 -0.17262910304E+03  0.11784288270E+03  0.64695787494E+02  0.23399341784E+03  0.82943489523E+02 0.  0.
          5    1    5    5  501    0  0.30045077434E+02  0.36472368719E+02  0.51299833252E+01  0.47763449277E+02  0.47000000000E+01 0. -1.
        -13    1    6    6    0    0 -0.12547976314E+03  0.12365197895E+03  0.40863434206E+02  0.18084469334E+03  0.00000000000E+00 0.  1.
         14    1    6    6    0    0 -0.47149339904E+02 -0.58090962499E+01  0.23832353288E+02  0.53148724499E+02  0.00000000000E+00 0. -1.
         -5    1    3    3    0  503 -0.89228668365E+01  0.22993484159E+02  0.63672975871E+00  0.25115996718E+02  0.47000000000E+01 0.  1.
         13    1    4    4    0    0 -0.16617634531E+01  0.62303524190E+01 -0.60170587078E+01  0.88195093136E+01  0.00000000000E+00 0. -1.
        -14    1    4    4    0    0  0.15316865590E+03 -0.18353908800E+03 -0.39057985222E+02  0.24222460689E+03  0.00000000000E+00 0.  1.
</event>
<event>
12    1  0.8133495E-002  0.1946399E+03  0.7818608E-02  0.1154497E+00
         21   -1    0    0  503  502  0.00000000000E+00  0.00000000000E+00  0.59152744475E+03  0.59152744475E+03  0.00000000000E+00 0.  1.
         21   -1    0    0  501  503 -0.00000000000E+00 -0.00000000000E+00 -0.10441033990E+03  0.10441033990E+03  0.00000000000E+00 0.  1.
          6    2    1    2  501    0 -0.83375624422E+02  0.34299850452E+02  0.26850355259E+02  0.19648317471E+03  0.17250136775E+03 0.  0.
         24    2    3    3    0    0 -0.47190647560E+02 -0.39997479025E+02 -0.13595118058E+02  0.10435624037E+03  0.82937579685E+02 0.  0.
         -6    2    1    2    0  502  0.83375624422E+02 -0.34299850452E+02  0.46026674959E+03  0.49945460995E+03  0.17170163696E+03 0.  0.
        -24    2    5    5    0    0  0.39779759118E+02  0.41900293133E+02  0.21276439376E+03  0.23680166880E+03  0.86419206743E+02 0.  0.
          5    1    3    3  501    0 -0.36184976862E+02  0.74297329477E+02  0.40445473317E+02  0.92126934334E+02  0.47000000000E+01 0. -1.
        -13    1    4    4    0    0 -0.34776690941E+02  0.21009454219E+02 -0.10777624821E+02  0.42035373153E+02  0.00000000000E+00 0.  1.
         14    1    4    4    0    0 -0.12413956620E+02 -0.61006933244E+02 -0.28174932373E+01  0.62320867219E+02  0.00000000000E+00 0. -1.
         -5    1    5    5    0  502  0.43595865304E+02 -0.76200143585E+02  0.24750235583E+03  0.26265294115E+03  0.47000000000E+01 0.  1.
         11    1    6    6    0    0  0.79786534964E+01 -0.12912280476E+02  0.39965383923E+00  0.15183728853E+02  0.00000000000E+00 0. -1.
        -12    1    6    6    0    0  0.31801105622E+02  0.54812573609E+02  0.21236473992E+03  0.22161793995E+03  0.00000000000E+00 0.  1.
</event>
<event>
12    1  0.8133495E-002  0.1739910E+03  0.7818608E-02  0.1173836E+00
         21   -1    0    0  503  502  0.00000000000E+00  0.00000000000E+00  0.66348656836E+02  0.66348656836E+02  0.00000000000E+00 0.  1.
         21   -1    0    0  501  503 -0.00000000000E+00 -0.00000000000E+00 -0.90387938819E+03  0.90387938819E+03  0.00000000000E+00 0.  1.
          6    2    1    2  501    0 -0.22970532176E+02 -0.28089308164E+01 -0.76070223374E+03  0.78034656557E+03  0.17244517546E+03 0.  0.
         24    2    3    3    0    0  0.22830696499E+02 -0.15715032887E+02 -0.68803902480E+03  0.69336178557E+03  0.81145936895E+02 0.  0.
         -6    2    1    2    0  502  0.22970532176E+02  0.28089308164E+01 -0.76828497616E+02  0.18988147946E+03  0.17209538853E+03 0.  0.
        -24    2    5    5    0    0  0.42139087635E+02 -0.51904384905E+01  0.20550378688E+02  0.90201195661E+02  0.76884941803E+02 0.  0.
          5    1    3    3  501    0 -0.45801228675E+02  0.12906102070E+02 -0.72663208936E+02  0.86984780000E+02  0.47000000000E+01 0. -1.
        -11    1    4    4    0    0  0.71323650071E+01 -0.31623380209E+02 -0.63472924089E+03  0.63555654197E+03  0.00000000000E+00 0.  1.
         12    1    4    4    0    0  0.15698331492E+02  0.15908347322E+02 -0.53309783915E+02  0.57805243597E+02  0.00000000000E+00 0. -1.
         -5    1    5    5    0  502 -0.19168555459E+02  0.79993693069E+01 -0.97378876303E+02  0.99680283797E+02  0.47000000000E+01 0.  1.
         11    1    6    6    0    0  0.29609984937E+02 -0.36509356049E+02 -0.58450680434E+01  0.47369284431E+02  0.00000000000E+00 0. -1.
        -12    1    6    6    0    0  0.12529102698E+02  0.31318917559E+02  0.26395446731E+02  0.42831911230E+02  0.00000000000E+00 0.  1.
</event>
<event>
12    1  0.8133495E-002  0.3000767E+03  0.7818608E-02  0.1085226E+00
         21   -1    0    0  503  502  0.00000000000E+00  0.00000000000E+00  0.47871998791E+03  0.47871998791E+03  0.00000000000E+00 0.  1.
         21   -1    0    0  501  503 -0.00000000000E+00 -0.00000000000E+00 -0.23032319281E+03  0.23032319281E+03  0.00000000000E+00 0.  1.
          6    2    1    2  501    0  0.59657153202E+02 -0.23908011608E+03 -0.27845212638E+02  0.30117598974E+03  0.17091911273E+03 0.  0.
         24    2    3    3    0    0  0.80078917519E+02 -0.23580080849E+03  0.46727464244E+01  0.26235189957E+03  0.82413775143E+02 0.  0.
         -6    2    1    2    0  502 -0.59657153202E+02  0.23908011608E+03  0.27624200774E+03  0.40786719097E+03  0.17125338186E+03 0.  0.
        -24    2    5    5    0    0  0.30175801755E+02  0.14980067583E+03  0.17855654814E+03  0.24785057539E+03  0.78718773768E+02 0.  0.
          5    1    3    3  501    0 -0.20421764317E+02 -0.32793075951E+01 -0.32517959063E+02  0.38824090173E+02  0.47000000000E+01 0. -1.
        -13    1    4    4    0    0  0.74880037072E+02 -0.93495924582E+02  0.61724682992E+01  0.11994418381E+03  0.00000000000E+00 0.  1.
         14    1    4    4    0    0  0.51988804479E+01 -0.14230488390E+03 -0.14997218748E+01  0.14240771576E+03  0.00000000000E+00 0. -1.
         -5    1    5    5    0  502 -0.89832954958E+02  0.89279440247E+02  0.97685459596E+02  0.16001661559E+03  0.47000000000E+01 0.  1.
         11    1    6    6    0    0 -0.24755217164E+02  0.49829786095E+02  0.77842102278E+02  0.95682920348E+02  0.00000000000E+00 0. -1.
        -12    1    6    6    0    0  0.54931018919E+02  0.99970889739E+02  0.10071444586E+03  0.15216765504E+03  0.00000000000E+00 0.  1.
</event>
<event>
12    1  0.8133495E-002  0.2659641E+03  0.7818608E-02  0.1103638E+00
         21   -1    0    0  503  502  0.00000000000E+00  0.00000000000E+00  0.14106910024E+03  0.14106910024E+03  0.00000000000E+00 0.  1.
         21   -1    0    0  501  503 -0.00000000000E+00 -0.00000000000E+00 -0.50150674420E+03  0.50150674420E+03  0.00000000000E+00 0.  1.
          6    2    1    2  501    0  0.90769829974E+02 -0.18075843611E+03 -0.17109356018E+03  0.31624340425E+03  0.17269658404E+03 0.  0.
         24    2    3    3    0    0  0.15231104335E+02 -0.45589059841E+02 -0.12001315765E+03  0.15312333536E+03  0.82056376392E+02 0.  0.
         -6    2    1    2    0  502 -0.90769829974E+02  0.18075843611E+03 -0.18934408377E+03  0.32633244019E+03  0.17242072149E+03 0.  0.
        -24    2    5    5    0    0 -0.72680255892E+02  0.10346929896E+03 -0.35251254235E+02  0.15293251652E+03  0.78469027398E+02 0.  0.
          5    1    3    3  501    0  0.75538725639E+02 -0.13516937627E+03 -0.51080402531E+02  0.16312006889E+03  0.47000000000E+01 0. -1.
        -13    1    4    4    0    0  0.30842223998E+02 -0.56549729080E+02 -0.52898989357E+02  0.83351171048E+02  0.00000000000E+00 0.  1.
         14    1    4    4    0    0 -0.15611119663E+02  0.10960669239E+02 -0.67114168292E+02  0.69772164312E+02  0.00000000000E+00 0. -1.
         -5    1    5    5    0  502 -0.18089574081E+02  0.77289137152E+02 -0.15409282954E+03  0.17339992366E+03  0.47000000000E+01 0.  1.
         13    1    6    6    0    0 -0.57743785824E+01  0.75771152606E+02 -0.12371650045E+02  0.76991354970E+02  0.00000000000E+00 0. -1.
        -14    1    6    6    0    0 -0.66905877310E+02  0.27698146354E+02 -0.22879604190E+02  0.75941161553E+02  0.00000000000E+00 0.  1.
</event>
<event>
12    1  0.8133495E-002  0.1775802E+03  0.7818608E-02  0.1170516E+00
         21   -1    0    0  503  502  0.00000000000E+00  0.00000000000E+00  0.14562977014E+03  0.14562977014E+03  0.00000000000E+00 0.  1.
         21   -1    0    0  501  503 -0.00000000000E+00 -0.00000000000E+00 -0.45460645419E+03  0.45460645419E+03  0.00000000000E+00 0.  1.
          6    2    1    2  501    0  0.14494387988E+02  0.34853987896E+02 -0.37216235760E+03  0.41174973085E+03  0.17207013885E+03 0.  0.
         24    2    3    3    0    0  0.26411081260E+02  0.37648296442E+02 -0.38380574675E+03  0.39421478717E+03  0.77353136647E+02 0.  0.
         -6    2    1    2    0  502 -0.14494387988E+02 -0.34853987896E+02  0.63185673545E+02  0.18848649349E+03  0.17352187508E+03 0.  0.
        -24    2    5    5    0    0 -0.50008926542E+01 -0.91188995650E+02  0.41641586865E+02  0.12724927259E+03  0.78217093802E+02 0.  0.
          5    1    3    3  501    0 -0.11916693271E+02 -0.27943085461E+01  0.11643389151E+02  0.17534943675E+02  0.47000000000E+01 0. -1.
        -13    1    4    4    0    0  0.13874167766E+02  0.22283978307E+02 -0.30038127635E+02  0.39891820367E+02  0.00000000000E+00 0.  1.
         14    1    4    4    0    0  0.12536913493E+02  0.15364318135E+02 -0.35376761911E+03  0.35432296680E+03  0.00000000000E+00 0. -1.
         -5    1    5    5    0  502 -0.94934953342E+01  0.56335007754E+02  0.21544086680E+02  0.61237220897E+02  0.47000000000E+01 0.  1.
         13    1    6    6    0    0  0.17871348830E+02 -0.21782472977E+00 -0.96792523530E+01  0.20325365500E+02  0.00000000000E+00 0. -1.
        -14    1    6    6    0    0 -0.22872241484E+02 -0.90971170920E+02  0.51320839218E+02  0.10692390709E+03  0.00000000000E+00 0.  1.
</event>
<event>
12    1  0.8133495E-002  0.1864272E+03  0.7818608E-02  0.1161824E+00
         21   -1    0    0  501  502  0.00000000000E+00  0.00000000000E+00  0.22520205256E+03  0.22520205256E+03  0.00000000000E+00 0. -1.
         21   -1    0    0  502  503 -0.00000000000E+00 -0.00000000000E+00 -0.17668071299E+03  0.17668071299E+03  0.00000000000E+00 0. -1.
         -6    2    1    2    0  503  0.71354031923E+02  0.52309228836E+01 -0.47808208229E+02  0.19203879375E+03  0.17168142912E+03 0.  0.
        -24    2    3    3    0    0  0.58326107460E+02  0.60366629429E+02 -0.29302168459E+01  0.11961091885E+03  0.85159385721E+02 0.  0.
          6    2    1    2  501    0 -0.71354031923E+02 -0.52309228836E+01  0.96329547800E+02  0.20984397180E+03  0.17215211383E+03 0.  0.
         24    2    5    5    0    0  0.19300525683E+02 -0.32120394617E+02  0.54683099781E+02  0.10641375795E+03  0.83243116458E+02 0.  0.
          5    1    5    5  501    0 -0.90654557606E+02  0.26889471734E+02  0.41646448019E+02  0.10343021385E+03  0.47000000000E+01 0. -1.
        -13    1    6    6    0    0  0.30201550136E+02 -0.31208878711E+02  0.73079769117E+02  0.85010472268E+02  0.00000000000E+00 0.  1.
         14    1    6    6    0    0 -0.10901024452E+02 -0.91151590627E+00 -0.18396669336E+02  0.21403285683E+02  0.00000000000E+00 0. -1.
         -5    1    3    3    0  503  0.13027924464E+02 -0.55135706545E+02 -0.44877991383E+02  0.72427874901E+02  0.47000000000E+01 0.  1.
         11    1    4    4    0    0  0.30623844457E+01 -0.20955165588E+02  0.10952264491E+01  0.21206053011E+02  0.00000000000E+00 0. -1.
        -12    1    4    4    0    0  0.55263723014E+02  0.81321795018E+02 -0.40254432950E+01  0.98404865835E+02  0.00000000000E+00 0.  1.
</event>
<event>
12    1  0.8133495E-002  0.2482302E+03  0.7818608E-02  0.1114728E+00
         21   -1    0    0  501  502  0.00000000000E+00  0.00000000000E+00  0.16544681019E+03  0.16544681019E+03  0.00000000000E+00 0. -1.
         21   -1    0    0  502  503 -0.00000000000E+00 -0.00000000000E+00 -0.56907671044E+03  0.56907671044E+03  0.00000000000E+00 0. -1.
         -6    2    1    2    0  503 -0.15638724987E+03 -0.84995559338E+02 -0.41873758278E+03  0.48583402744E+03  0.17033003834E+03 0.  0.
        -24    2    3    3    0    0 -0.10118196449E+02 -0.41468698809E+02 -0.16147124727E+03  0.18667306581E+03  0.83377688414E+02 0.  0.
          6    2    1    2  501    0  0.15638724987E+03  0.84995559338E+02  0.15107682530E+02  0.24868949319E+03  0.17302313407E+03 0.  0.
         24    2    5    5    0    0  0.87360746052E+02  0.12154468279E+03  0.43587698964E+01  0.16970768657E+03  0.79854180479E+02 0.  0.
          5    1    5    5  501    0  0.69026503819E+02 -0.36549123455E+02  0.10748912634E+02  0.78981806624E+02  0.47000000000E+01 0. -1.
        -13    1    6    6    0    0  0.43984475917E+01  0.46371685782E+02  0.29273584899E+02  0.55014746717E+02  0.00000000000E+00 0.  1.
         14    1    6    6    0    0  0.82962298461E+02  0.75172997011E+02 -0.24914815003E+02  0.11469293985E+03  0.00000000000E+00 0. -1.
         -5    1    3    3    0  503 -0.14626905342E+03 -0.43526860529E+02 -0.25726633551E+03  0.29916096163E+03  0.47000000000E+01 0.  1.
         11    1    4    4    0    0 -0.42314578451E+01 -0.99102892590E+01 -0.15312419858E+03  0.15350289659E+03  0.00000000000E+00 0. -1.
        -12    1    4    4    0    0 -0.58867386041E+01 -0.31558409550E+02 -0.83470486846E+01  0.33170169226E+02  0.00000000000E+00 0.  1.
</event>
<event>
12    1  0.8133495E-002  0.2603242E+03  0.7818608E-02  0.1107239E+00
         21   -1    0    0  501  502  0.00000000000E+00  0.00000000000E+00  0.21100366294E+03  0.21100366294E+03  0.00000000000E+00 0. -1.
         21   -1    0    0  502  503 -0.00000000000E+00 -0.00000000000E+00 -0.52507603732E+03  0.52507603732E+03  0.00000000000E+00 0. -1.
         -6    2    1    2    0  503  0.17709373765E+03  0.78382611166E+02 -0.38736085304E+03  0.46563587144E+03  0.17106229465E+03 0.  0.
        -24    2    3    3    0    0  0.12522776779E+03  0.39232222648E+02 -0.36609666566E+03  0.39710057093E+03  0.80255427901E+02 0.  0.
          6    2    1    2  501    0 -0.17709373765E+03 -0.78382611166E+02  0.73288478663E+02  0.27044382883E+03  0.17396159863E+03 0.  0.
         24    2    5    5    0    0 -0.51289986115E+02 -0.75393383946E+02 -0.82214828926E+01  0.12043888486E+03  0.78250285547E+02 0.  0.
          5    1    5    5  501    0 -0.12580375154E+03 -0.29892272200E+01  0.81509961556E+02  0.15000494396E+03  0.47000000000E+01 0. -1.
        -13    1    6    6    0    0 -0.13594974450E+02 -0.53105162611E+02 -0.38685382853E+02  0.67093520348E+02  0.00000000000E+00 0.  1.
         14    1    6    6    0    0 -0.37695011665E+02 -0.22288221334E+02  0.30463899960E+02  0.53345364517E+02  0.00000000000E+00 0. -1.
         -5    1    3    3    0  503  0.51865969864E+02  0.39150388518E+02 -0.21264187388E+02  0.68535300512E+02  0.47000000000E+01 0.  1.
         13    1    4    4    0    0  0.30051785273E+01 -0.10024627045E+02 -0.30837869420E+01  0.10910269807E+02  0.00000000000E+00 0. -1.
        -14    1    4    4    0    0  0.12222258926E+03  0.49256849693E+02 -0.36301287871E+03  0.38619030112E+03  0.00000000000E+00 0.  1.
</event>
<event>
12    1  0.8133495E-002  0.2064321E+03  0.7818608E-02  0.1144537E+00
         21   -1    0    0  501  502  0.00000000000E+00  0.00000000000E+00  0.17587726249E+03  0.17587726249E+03  0.00000000000E+00 0. -1.
         21   -1    0    0  502  503 -0.00000000000E+00 -0.00000000000E+00 -0.42213875990E+03  0.42213875990E+03  0.00000000000E+00 0.  1.
         -6    2    1    2    0  503  0.45640903072E+02  0.10410441644E+03 -0.31855809897E+03  0.37929011298E+03  0.17164179512E+03 0.  0.
        -24    2    3    3    0    0  0.93485953672E+02  0.97573627692E+02 -0.25269832272E+03  0.29748913380E+03  0.79894343141E+02 0.  0.
          6    2    1    2  501    0 -0.45640903072E+02 -0.10410441644E+03  0.72296601554E+02  0.21872590940E+03  0.17231773934E+03 0.  0.
         24    2    5    5    0    0 -0.18060956552E+02 -0.13790428779E+03  0.67292143664E+02  0.17456462147E+03  0.81245207408E+02 0.  0.
          5    1    5    5  501    0 -0.27579946519E+02  0.33799871350E+02  0.50044578897E+01  0.44161287935E+02  0.47000000000E+01 0. -1.
        -11    1    6    6    0    0  0.31554671077E+02 -0.60878693895E+02  0.19837858211E+02  0.71382443608E+02  0.00000000000E+00 0.  1.
         12    1    6    6    0    0 -0.49615627629E+02 -0.77025593896E+02  0.47454285453E+02  0.10318217786E+03  0.00000000000E+00 0. -1.
         -5    1    3    3    0  503 -0.47845050600E+02  0.65307887493E+01 -0.65859776247E+02  0.81800979187E+02  0.47000000000E+01 0.  1.
         13    1    4    4    0    0 -0.98300504964E+01  0.30638290378E+02 -0.71762906134E+02  0.78646356729E+02  0.00000000000E+00 0. -1.
        -14    1    4    4    0    0  0.10331600417E+03  0.66935337313E+02 -0.18093541659E+03  0.21884277707E+03  0.00000000000E+00 0.  1.
</event>
<event>
12    1  0.8133495E-002  0.3578211E+03  0.7818608E-02  0.1059524E+00
         21   -1    0    0  501  502  0.00000000000E+00  0.00000000000E+00  0.49426686373E+03  0.49426686373E+03  0.00000000000E+00 0.  1.
         21   -1    0    0  502  503 -0.00000000000E+00 -0.00000000000E+00 -0.29160183586E+03  0.29160183586E+03  0.00000000000E+00 0. -1.
         -6    2    1    2    0  503  0.24201607666E+03 -0.19869226000E+03 -0.30951379225E+02  0.35915722974E+03  0.17316331094E+03 0.  0.
        -24    2    3    3    0    0  0.15618614249E+03 -0.80868965418E+02  0.33496119889E+02  0.19970605701E+03  0.88468177796E+02 0.  0.
          6    2    1    2  501    0 -0.24201607666E+03  0.19869226000E+03  0.23361640710E+03  0.42671146985E+03  0.17162650522E+03 0.  0.
         24    2    5    5    0    0 -0.21109245123E+03  0.21521500114E+03  0.23589861913E+03  0.39126333766E+03  0.81001982735E+02 0.  0.
          5    1    5    5  501    0 -0.30923625430E+02 -0.16522741135E+02 -0.22822120334E+01  0.35448132195E+02  0.47000000000E+01 0. -1.
        -13    1    6    6    0    0 -0.33796986356E+02  0.47315970690E+02  0.10763591551E+02  0.59134526904E+02  0.00000000000E+00 0.  1.
         14    1    6    6    0    0 -0.17729546487E+03  0.16789903045E+03  0.22513502758E+03  0.33212881075E+03  0.00000000000E+00 0. -1.
         -5    1    3    3    0  503  0.85829934165E+02 -0.11782329458E+03 -0.64447499113E+02  0.15945117274E+03  0.47000000000E+01 0.  1.
         11    1    4    4    0    0  0.10520929273E+03 -0.95066661181E+02  0.37393676401E+02  0.14664566949E+03  0.00000000000E+00 0. -1.
        -12    1    4    4    0    0  0.50976849763E+02  0.14197695763E+02 -0.38975565123E+01  0.53060387517E+02  0.00000000000E+00 0.  1.
</event>
<event>
12    1  0.8133495E-002  0.1996883E+03  0.7818608E-02  0.1150844E+00
         21   -1    0    0  503  502  0.00000000000E+00  0.00000000000E+00  0.13213496582E+04  0.13213496582E+04  0.00000000000E+00 0.  1.
         21   -1    0    0  501  503 -0.00000000000E+00 -0.00000000000E+00 -0.29949031027E+02  0.29949031027E+02  0.00000000000E+00 0. -1.
          6    2    1    2  501    0 -0.73133148853E+02 -0.71257924351E+02  0.72648026014E+03  0.75342482840E+03  0.17160785074E+03 0.  0.
         24    2    3    3    0    0 -0.33308678093E+02 -0.23807008353E+02  0.64419664223E+03  0.65032166804E+03  0.79074119520E+02 0.  0.
         -6    2    1    2    0  502  0.73133148853E+02  0.71257924351E+02  0.56492036707E+03  0.59787386086E+03  0.16700893128E+03 0.  0.
        -24    2    5    5    0    0  0.55992625375E+02  0.14278134343E+02  0.15682655113E+03  0.18543823361E+03  0.80335123885E+02 0.  0.
          5    1    3    3  501    0 -0.39824470760E+02 -0.47450915999E+02  0.82283617905E+02  0.10310316036E+03  0.47000000000E+01 0. -1.
        -11    1    4    4    0    0 -0.24453274159E+02 -0.52337972790E+02  0.36682633930E+03  0.37134726230E+03  0.00000000000E+00 0.  1.
         12    1    4    4    0    0 -0.88554039341E+01  0.28530964437E+02  0.27737030293E+03  0.27897440574E+03  0.00000000000E+00 0. -1.
         -5    1    5    5    0  502  0.17140523479E+02  0.56979790009E+02  0.40809381594E+03  0.41243562725E+03  0.47000000000E+01 0.  1.
         13    1    6    6    0    0  0.29534938793E+02  0.22167961151E+02  0.13254021938E+02  0.39235190947E+02  0.00000000000E+00 0. -1.
        -14    1    6    6    0    0  0.26457686582E+02 -0.78898268086E+01  0.14357252919E+03  0.14620304267E+03  0.00000000000E+00 0.  1.
</event>
<event>
12    1  0.8133495E-002  0.2413605E+03  0.7818608E-02  0.1118967E+00
         21   -1    0    0  501  502  0.00000000000E+00  0.00000000000E+00  0.67323061978E+02  0.67323061978E+02  0.00000000000E+00 0. -1.
         21   -1    0    0  502  503 -0.00000000000E+00 -0.00000000000E+00 -0.13077406641E+04  0.13077406641E+04  0.00000000000E+00 0.  1.
         -6    2    1    2    0  503  0.16690670092E+03  0.24837341533E+02 -0.10212610148E+04  0.10493945565E+04  0.17256921662E+03 0.  0.
        -24    2    3    3    0    0  0.72630880432E+02 -0.31623010260E+02 -0.30906284658E+03  0.32875315992E+03  0.79268767193E+02 0.  0.
          6    2    1    2  501    0 -0.16690670092E+03 -0.24837341533E+02 -0.21915658731E+03  0.32566916956E+03  0.17191875376E+03 0.  0.
         24    2    5    5    0    0 -0.68224839446E+02 -0.45581907117E+02 -0.47839004531E+02  0.12682186393E+03  0.84040917671E+02 0.  0.
          5    1    5    5  501    0 -0.98681861479E+02  0.20744565584E+02 -0.17131758278E+03  0.19884730563E+03  0.47000000000E+01 0. -1.
        -13    1    6    6    0    0 -0.48055073083E+01 -0.16202507485E+02  0.22182370020E+02  0.27886765481E+02  0.00000000000E+00 0.  1.
         14    1    6    6    0    0 -0.63419332137E+02 -0.29379399632E+02 -0.70021374551E+02  0.98935098451E+02  0.00000000000E+00 0. -1.
         -5    1    3    3    0  503  0.94275820493E+02  0.56460351793E+02 -0.71219816824E+03  0.72064139660E+03  0.47000000000E+01 0.  1.
         11    1    4    4    0    0  0.72635428990E+02 -0.51813663687E+02 -0.27547787986E+03  0.28956626803E+03  0.00000000000E+00 0. -1.
        -12    1    4    4    0    0 -0.45485581733E-02  0.20190653427E+02 -0.33584966720E+02  0.39186891891E+02  0.00000000000E+00 0.  1.
</event>
<event>
12    1  0.8133495E-002  0.1806781E+03  0.7818608E-02  0.1167336E+00
         21   -1    0    0  501  502  0.00000000000E+00  0.00000000000E+00  0.48338028124E+02  0.48338028124E+02  0.00000000000E+00 0.  1.
         21   -1    0    0  502  503 -0.00000000000E+00 -0.00000000000E+00 -0.67332351136E+03  0.67332351136E+03  0.00000000000E+00 0.  1.
         -6    2    1    2    0  503 -0.56290023922E+02 -0.11595384259E+02 -0.29869073698E+03  0.34868319723E+03  0.17047227324E+03 0.  0.
        -24    2    3    3    0    0  0.31348510910E+02 -0.67724934517E+01 -0.10120160084E+03  0.13251700664E+03  0.79312024504E+02 0.  0.
          6    2    1    2  501    0  0.56290023922E+02  0.11595384259E+02 -0.32629474626E+03  0.37297834226E+03  0.17129379039E+03 0.  0.
         24    2    5    5    0    0 -0.15787771864E+02  0.43766346168E+02 -0.23171689746E+03  0.24970126037E+03  0.80580717694E+02 0.  0.
          5    1    5    5  501    0  0.72077795786E+02 -0.32170961909E+02 -0.94577848797E+02  0.12327708189E+03  0.47000000000E+01 0. -1.
        -11    1    6    6    0    0  0.23271231479E+02  0.28725087963E+02 -0.17695738830E+03  0.18077775905E+03  0.00000000000E+00 0.  1.
         12    1    6    6    0    0 -0.39059003343E+02  0.15041258205E+02 -0.54759509155E+02  0.68923501314E+02  0.00000000000E+00 0. -1.
         -5    1    3    3    0  503 -0.87638534831E+02 -0.48228908074E+01 -0.19748913614E+03  0.21616619059E+03  0.47000000000E+01 0.  1.
         13    1    4    4    0    0  0.27242626094E+02 -0.62664243485E+01 -0.11487716790E+03  0.11822940605E+03  0.00000000000E+00 0. -1.
        -14    1    4    4    0    0  0.41058848154E+01 -0.50606910317E+00  0.13675567058E+02  0.14287600583E+02  0.00000000000E+00 0.  1.
</event>
<event>
12    1  0.8133495E-002  0.2341849E+03  0.7818608E-02  0.1123894E+00
         21   -1    0    0  503  502  0.00000000000E+00  0.00000000000E+00  0.14085957006E+04  0.14085957006E+04  0.00000000000E+00 0. -1.
         21   -1    0    0  501  503 -0.00000000000E+00 -0.00000000000E+00 -0.76035980029E+02  0.76035980029E+02  0.00000000000E+00 0.  1.
          6    2    1    2  501    0  0.15315336486E+03 -0.40307807494E+02  0.14592934172E+03  0.27511350374E+03  0.17120570859E+03 0.  0.
         24    2    3    3    0    0  0.44361567421E+02 -0.41000069325E+02  0.13023630185E+02  0.10329338683E+03  0.82770492753E+02 0.  0.
         -6    2    1    2    0  502 -0.15315336486E+03  0.40307807494E+02  0.11866303789E+04  0.12095181769E+04  0.17251635201E+03 0.  0.
        -24    2    5    5    0    0 -0.87283460809E+01  0.38321258794E+02  0.46305616198E+03  0.47165350790E+03  0.80568725124E+02 0.  0.
          5    1    3    3  501    0  0.10879179744E+03  0.69226183162E+00  0.13290571154E+03  0.17182011691E+03  0.47000000000E+01 0. -1.
        -13    1    4    4    0    0  0.18026527839E+02  0.14495049300E+02 -0.22554297367E+02  0.32307251351E+02  0.00000000000E+00 0.  1.
         14    1    4    4    0    0  0.26335039582E+02 -0.55495118626E+02  0.35577927552E+02  0.70986135477E+02  0.00000000000E+00 0. -1.
         -5    1    5    5    0  502 -0.14442501878E+03  0.19865486996E+01  0.72357421690E+03  0.73786466902E+03  0.47000000000E+01 0.  1.
         13    1    6    6    0    0  0.15406664452E+02  0.86383388825E+01  0.18960441105E+02  0.25913018641E+02  0.00000000000E+00 0. -1.
        -14    1    6    6    0    0 -0.24135010532E+02  0.29682919912E+02  0.44409572087E+03  0.44574048926E+03  0.00000000000E+00 0.  1.
</event>
<event>
12    1  0.8133495E-002  0.2900181E+03  0.7818608E-02  0.1090449E+00
         21   -1    0    0  503  502  0.00000000000E+00  0.00000000000E+00  0.36491669967E+03  0.36491669967E+03  0.00000000000E+00 0.  1.
         21   -1    0    0  501  503 -0.00000000000E+00 -0.00000000000E+00 -0.25617908288E+03  0.25617908288E+03  0.00000000000E+00 0.  1.
          6    2    1    2  501    0  0.21728742962E+03 -0.83327051781E+02 -0.45301649143E+02  0.29270789756E+03  0.17166376802E+03 0.  0.
         24    2    3    3    0    0  0.15701269040E+03 -0.97749600671E+02 -0.85285598628E+02  0.21880349769E+03  0.79958538552E+02 0.  0.
         -6    2    1    2    0  502 -0.21728742962E+03  0.83327051781E+02  0.15403926593E+03  0.32838788499E+03  0.17307016765E+03 0.  0.
        -24    2    5    5    0    0 -0.11091453599E+03  0.17625758954E+02  0.10791995280E+02  0.13819397624E+03  0.79802294656E+02 0.  0.
          5    1    3    3  501    0  0.60274739217E+02  0.14422548891E+02  0.39983949485E+02  0.73904399874E+02  0.47000000000E+01 0. -1.
        -11    1    4    4    0    0  0.16048635549E+03 -0.76391016693E+02 -0.85336245464E+02  0.19716422728E+03  0.00000000000E+00 0.  1.
         12    1    4    4    0    0 -0.34736650824E+01 -0.21358583979E+02  0.50646835846E-01  0.21639270408E+02  0.00000000000E+00 0. -1.
         -5    1    5    5    0  502 -0.10637289363E+03  0.65701292827E+02  0.14324727065E+03  0.19019390875E+03  0.47000000000E+01 0.  1.
         13    1    6    6    0    0 -0.49323887844E+02 -0.24196135355E+02 -0.18819973206E+02  0.58073145856E+02  0.00000000000E+00 0. -1.
        -14    1    6    6    0    0 -0.61590648149E+02  0.41821894309E+02  0.29611968486E+02  0.80120830379E+02  0.00000000000E+00 0.  1.
</event>
<event>
12    1  0.8133495E-002  0.2229751E+03  0.7818608E-02  0.1131773E+00
         21   -1    0    0  503  502  0.00000000000E+00  0.00000000000E+00  0.57291592356E+03  0.57291592356E+03  0.00000000000E+00 0.  1.
         21   -1    0    0  501  503 -0.00000000000E+00 -0.00000000000E+00 -0.21380392558E+03  0.21380392558E+03  0.00000000000E+00 0.  1.
          6    2    1    2  501    0 -0.14135595535E+03  0.11844786904E+02 -0.12378672281E+03  0.25503146633E+03  0.17203514462E+03 0.  0.
         24    2    3    3    0    0 -0.91844754599E+02 -0.35661195883E+02 -0.18415928467E+02  0.12920113731E+03  0.81526729495E+02 0.  0.
         -6    2    1    2    0  502  0.14135595535E+03 -0.11844786904E+02  0.48289872078E+03  0.53168838281E+03  0.17140465803E+03 0.  0.
        -24    2    5    5    0    0  0.14231599524E+03 -0.58574211475E+02  0.35427747822E+03  0.39475747018E+03  0.81462555404E+02 0.  0.
          5    1    3    3  501    0 -0.49511200751E+02  0.47505982787E+02 -0.10537079434E+03  0.12583032902E+03  0.47000000000E+01 0. -1.
        -11    1    4    4    0    0 -0.10602397563E+03 -0.36937871535E+02 -0.22249274723E+02  0.11445750298E+03  0.00000000000E+00 0.  1.
         12    1    4    4    0    0  0.14179221033E+02  0.12766756516E+01  0.38333462555E+01  0.14743634333E+02  0.00000000000E+00 0. -1.
         -5    1    5    5    0  502 -0.96003989449E+00  0.46729424570E+02  0.12862124256E+03  0.13693091264E+03  0.47000000000E+01 0.  1.
         11    1    6    6    0    0  0.77478877198E+01 -0.36780779057E+02  0.68661513004E+02  0.78276809082E+02  0.00000000000E+00 0. -1.
        -12    1    6    6    0    0  0.13456810752E+03 -0.21793432417E+02  0.28561596522E+03  0.31648066110E+03  0.00000000000E+00 0.  1.
</event>
<event>
12    1  0.8133495E-002  0.1876563E+03  0.7818608E-02  0.1160795E+00
         21   -1    0    0  501  502  0.00000000000E+00  0.00000000000E+00  0.13579963887E+03  0.13579963887E+03  0.00000000000E+00 0. -1.
         21   -1    0    0  502  503 -0.00000000000E+00 -0.00000000000E+00 -0.46625170783E+03  0.46625170783E+03  0.00000000000E+00 0. -1.
         -6    2    1    2    0  503 -0.38976531900E+02 -0.59714517496E+02 -0.36614492455E+03  0.41103077935E+03  0.17262445412E+03 0.  0.
        -24    2    3    3    0    0 -0.52409385192E+02 -0.39701884019E+01 -0.10125963784E+03  0.13996957428E+03  0.81089218877E+02 0.  0.
          6    2    1    2  501    0  0.38976531900E+02  0.59714517496E+02  0.35692855588E+02  0.19102056735E+03  0.17357961739E+03 0.  0.
         24    2    5    5    0    0 -0.36486678210E+02  0.29643459378E+02 -0.16287334260E+02  0.94464911105E+02  0.80301493150E+02 0.  0.
          5    1    5    5  501    0  0.75463210110E+02  0.30071058119E+02  0.51980189849E+02  0.96555656246E+02  0.47000000000E+01 0. -1.
        -13    1    6    6    0    0 -0.86712154711E+01  0.52918662840E+02 -0.21595660280E+02  0.57809578769E+02  0.00000000000E+00 0.  1.
         14    1    6    6    0    0 -0.27815462739E+02 -0.23275203462E+02  0.53083260197E+01  0.36655332337E+02  0.00000000000E+00 0. -1.
         -5    1    3    3    0  503  0.13432853292E+02 -0.55744329094E+02 -0.26488528671E+03  0.27106120506E+03  0.47000000000E+01 0.  1.
         13    1    4    4    0    0  0.11127875521E+02  0.22933617133E+02 -0.41430053272E+02  0.48643907352E+02  0.00000000000E+00 0. -1.
        -14    1    4    4    0    0 -0.63537260713E+02 -0.26903805535E+02 -0.59829584566E+02  0.91325666932E+02  0.00000000000E+00 0.  1.
</event>
<event>
12    1  0.8133495E-002  0.1800585E+03  0.7818608E-02  0.1168454E+00
         21   -1    0    0  503  502  0.00000000000E+00  0.00000000000E+00  0.14958078116E+03  0.14958078116E+03  0.00000000000E+00 0.  1.
         21   -1    0    0  501  503 -0.00000000000E+00 -0.00000000000E+00 -0.23177641817E+03  0.23177641817E+03  0.00000000000E+00 0.  1.
          6    2    1    2  501    0 -0.37161326956E+02  0.14949272856E+02  0.13091856420E+02  0.17763985853E+03  0.17256905185E+03 0.  0.
         24    2    3    3    0    0 -0.85249408620E+02  0.37833876862E+02  0.11295463255E+02  0.12414700175E+03  0.81154338421E+02 0.  0.
         -6    2    1    2    0  502  0.37161326956E+02 -0.14949272856E+02 -0.95287493425E+02  0.20371734080E+03  0.17554658515E+03 0.  0.
        -24    2    5    5    0    0 -0.45942659219E+02  0.31786105462E+01 -0.24730519557E+02  0.93104189519E+02  0.77045181597E+02 0.  0.
          5    1    3    3  501    0  0.48088081664E+02 -0.22884604006E+02  0.17963931651E+01  0.53492856785E+02  0.47000000000E+01 0. -1.
        -13    1    4    4    0    0 -0.56697097364E+02  0.63329945844E+02  0.34447088855E+01  0.85071199059E+02  0.00000000000E+00 0.  1.
         14    1    4    4    0    0 -0.28552311256E+02 -0.25496068982E+02  0.78507543691E+01  0.39075802689E+02  0.00000000000E+00 0. -1.
         -5    1    5    5    0  502  0.83103986175E+02 -0.18127883403E+02 -0.70556973867E+02  0.11061315128E+03  0.47000000000E+01 0.  1.
         11    1    6    6    0    0 -0.27046260995E+02  0.34765120949E+02 -0.33413761723E+02  0.55286466164E+02  0.00000000000E+00 0. -1.
        -12    1    6    6    0    0 -0.18896398224E+02 -0.31586510403E+02  0.86832421656E+01  0.37817723355E+02  0.00000000000E+00 0.  1.
</event>
<event>
12    1  0.8133495E-002  0.2036027E+03  0.7818608E-02  0.1146744E+00
         21   -1    0    0  503  502  0.00000000000E+00  0.00000000000E+00  0.46582828754E+03  0.46582828754E+03  0.00000000000E+00 0.  1.
         21   -1    0    0  501  503 -0.00000000000E+00 -0.00000000000E+00 -0.51383654560E+03  0.51383654560E+03  0.00000000000E+00 0.  1.
          6    2    1    2  501    0  0.41349293355E+02 -0.10034001348E+03 -0.46941537214E+03  0.51164985661E+03  0.17221179343E+03 0.  0.
         24    2    3    3    0    0  0.89700125998E+02 -0.92019072900E+02 -0.38358841173E+03  0.41267815256E+03  0.81544868634E+02 0.  0.
         -6    2    1    2    0  502 -0.41349293355E+02  0.10034001348E+03  0.42140711408E+03  0.46801497653E+03  0.17226775699E+03 0.  0.
        -24    2    5    5    0    0  0.14072315216E+02 -0.79110378461E+01  0.16257397975E+03  0.18199657462E+03  0.80198751266E+02 0.  0.
          5    1    3    3  501    0 -0.48350832643E+02 -0.83209405810E+01 -0.85826960411E+02  0.98971704051E+02  0.47000000000E+01 0. -1.
        -11    1    4    4    0    0  0.75501435037E+02 -0.10233802006E+03 -0.27887908686E+03  0.30650788266E+03  0.00000000000E+00 0.  1.
         12    1    4    4    0    0  0.14198690961E+02  0.10318947160E+02 -0.10470932487E+03  0.10617026990E+03  0.00000000000E+00 0. -1.
         -5    1    5    5    0  502 -0.55421608571E+02  0.10825105133E+03  0.25883313432E+03  0.28601840191E+03  0.47000000000E+01 0.  1.
         11    1    6    6    0    0 -0.23754564938E+02 -0.22057841437E+02  0.32931938271E+02  0.46209742290E+02  0.00000000000E+00 0. -1.
        -12    1    6    6    0    0  0.37826880154E+02  0.14146803590E+02  0.12964204148E+03  0.13578683233E+03  0.00000000000E+00 0.  1.
</event>
<event>
12    1  0.8133495E-002  0.1858042E+03  0.7818608E-02  0.1165275E+00
         21   -1    0    0  501  502  0.00000000000E+00  0.00000000000E+00  0.35134991533E+03  0.35134991533E+03  0.00000000000E+00 0. -1.
         21   -1    0    0  502  503 -0.00000000000E+00 -0.00000000000E+00 -0.98379431576E+02  0.98379431576E+02  0.00000000000E+00 0.  1.
         -6    2    1    2    0  503 -0.61920628391E+02 -0.14753676907E+02  0.72584901693E+02  0.19947874408E+03  0.17456049434E+03 0.  0.
        -24    2    3    3    0    0  0.22572268034E+02  0.21393502670E+02  0.63232442791E+02  0.10698427600E+03  0.80499094713E+02 0.  0.
          6    2    1    2  501    0  0.61920628391E+02  0.14753676907E+02  0.18038558206E+03  0.25025060283E+03  0.16135231884E+03 0.  0.
         24    2    5    5    0    0 -0.14507924870E+02 -0.31330090971E+02  0.86055123152E+02  0.12030691158E+03  0.76656469198E+02 0.  0.
          5    1    5    5  501    0  0.76428553261E+02  0.46083767878E+02  0.94330458908E+02  0.12994369124E+03  0.47000000000E+01 0. -1.
        -11    1    6    6    0    0 -0.28315313375E+02 -0.28685759003E+02  0.95305392567E+02  0.10347824696E+03  0.00000000000E+00 0.  1.
         12    1    6    6    0    0  0.13807388505E+02 -0.26443319685E+01 -0.92502694146E+01  0.16828664627E+02  0.00000000000E+00 0. -1.
         -5    1    3    3    0  503 -0.84492896425E+02 -0.36147179577E+02  0.93524589025E+01  0.92494468079E+02  0.47000000000E+01 0.  1.
         11    1    4    4    0    0 -0.90590372668E+00 -0.22185517193E+02  0.51542351588E+02  0.56121580893E+02  0.00000000000E+00 0. -1.
        -12    1    4    4    0    0  0.23478171760E+02  0.43579019863E+02  0.11690091202E+02  0.50862695109E+02  0.00000000000E+00 0.  1.
</event>
<event>
12    1  0.8133495E-002  0.1852984E+03  0.7818608E-02  0.1163060E+00
         21   -1    0    0  503  502  0.00000000000E+00  0.00000000000E+00  0.15255387980E+03  0.15255387980E+03  0.00000000000E+00 0.  1.
         21   -1    0    0  501  503 -0.00000000000E+00 -0.00000000000E+00 -0.29376115435E+03  0.29376115435E+03  0.00000000000E+00 0.  1.
          6    2    1    2  501    0  0.60955528974E+02  0.13955365280E+02 -0.17986271958E+03  0.25823649541E+03  0.17442809675E+03 0.  0.
         24    2    3    3    0    0 -0.57946043671E+01  0.63331534544E+02 -0.88653215125E+02  0.13480696047E+03  0.79177416809E+02 0.  0.
         -6    2    1    2    0  502 -0.60955528974E+02 -0.13955365280E+02  0.38655445029E+02  0.18807853873E+03  0.17311546600E+03 0.  0.
        -24    2    5    5    0    0 -0.77614512995E+02  0.44586688273E+02  0.41535454687E+02  0.12696325228E+03  0.79890475239E+02 0.  0.
          5    1    3    3  501    0  0.66750133341E+02 -0.49376169264E+02 -0.91209504456E+02  0.12342953494E+03  0.47000000000E+01 0. -1.
        -13    1    4    4    0    0  0.30471291365E+02  0.17987364045E+02 -0.60943226108E+02  0.70470714990E+02  0.00000000000E+00 0.  1.
         14    1    4    4    0    0 -0.36265895732E+02  0.45344170499E+02 -0.27709989017E+02  0.64336245483E+02  0.00000000000E+00 0. -1.
         -5    1    5    5    0  502  0.16658984020E+02 -0.58542053553E+02 -0.28800096578E+01  0.61115286455E+02  0.47000000000E+01 0.  1.
         13    1    6    6    0    0  0.77571910944E+01  0.87314768590E+01 -0.14587550431E+02  0.18687143425E+02  0.00000000000E+00 0. -1.
        -14    1    6    6    0    0 -0.85371704089E+02  0.35855211414E+02  0.56123005118E+02  0.10827610885E+03  0.00000000000E+00 0.  1.
</event>
<event>
12    1  0.8133495E-002  0.2440681E+03  0.7818608E-02  0.1117200E+00
         21   -1    0    0  501  502  0.00000000000E+00  0.00000000000E+00  0.93677463846E+02  0.93677463846E+02  0.00000000000E+00 0.  1.
         21   -1    0    0  502  503 -0.00000000000E+00 -0.00000000000E+00 -0.72951556185E+03  0.72951556185E+03  0.00000000000E+00 0.  1.
         -6    2    1    2    0  503 -0.58018080503E+02 -0.16250532634E+03 -0.16968100213E+03  0.29725557375E+03  0.17261273096E+03 0.  0.
        -24    2    3    3    0    0 -0.13366331361E+02 -0.35283253292E+02 -0.12736568453E+03  0.15586282049E+03  0.81533026669E+02 0.  0.
          6    2    1    2  501    0  0.58018080503E+02  0.16250532634E+03 -0.46615709588E+03  0.52593745195E+03  0.17185367778E+03 0.  0.
         24    2    5    5    0    0  0.16387309281E+02  0.17081266581E+03 -0.42947321984E+03  0.46963532265E+03  0.81636872894E+02 0.  0.
          5    1    5    5  501    0  0.41630771223E+02 -0.83073394784E+01 -0.36683876046E+02  0.56302129299E+02  0.47000000000E+01 0. -1.
        -13    1    6    6    0    0  0.19105677121E+02  0.38695817476E+02 -0.20205241756E+03  0.20660971088E+03  0.00000000000E+00 0.  1.
         14    1    6    6    0    0 -0.27183678406E+01  0.13211684834E+03 -0.22742080228E+03  0.26302561177E+03  0.00000000000E+00 0. -1.
         -5    1    3    3    0  503 -0.44651749143E+02 -0.12722207304E+03 -0.42315317592E+02  0.14139275326E+03  0.47000000000E+01 0.  1.
         13    1    4    4    0    0 -0.21063153570E+02 -0.59883738949E+02 -0.98283381640E+02  0.11700146040E+03  0.00000000000E+00 0. -1.
        -14    1    4    4    0    0  0.76968222092E+01  0.24600485657E+02 -0.29082302895E+02  0.38861360094E+02  0.00000000000E+00 0.  1.
</event>
<event>
12    1  0.8133495E-002  0.1979518E+03  0.7818608E-02  0.1152515E+00
         21   -1    0    0  501  502  0.00000000000E+00  0.00000000000E+00  0.99601795051E+02  0.99601795051E+02  0.00000000000E+00 0.  1.
         21   -1    0    0  502  503 -0.00000000000E+00 -0.00000000000E+00 -0.40062547113E+03  0.40062547113E+03  0.00000000000E+00 0. -1.
         -6    2    1    2    0  503 -0.75238263378E+02 -0.45003784482E+02 -0.19975543084E+03  0.27787583595E+03  0.17212382508E+03 0.  0.
        -24    2    3    3    0    0 -0.23608214863E+01 -0.68703831656E+02 -0.16081285138E+03  0.19178618345E+03  0.78710717375E+02 0.  0.
          6    2    1    2  501    0  0.75238263378E+02  0.45003784482E+02 -0.10126824524E+03  0.22235143023E+03  0.17747891181E+03 0.  0.
         24    2    5    5    0    0  0.16876040412E+00  0.74371247422E+02 -0.87034353893E+02  0.14036013911E+03  0.81208860178E+02 0.  0.
          5    1    5    5  501    0  0.75069502974E+02 -0.29367462940E+02 -0.14233891342E+02  0.81991291117E+02  0.47000000000E+01 0. -1.
        -11    1    6    6    0    0 -0.15437265719E+02 -0.13717412779E+02 -0.15736530692E+02  0.25963724395E+02  0.00000000000E+00 0.  1.
         12    1    6    6    0    0  0.15606026124E+02  0.88088660201E+02 -0.71297823201E+02  0.11439641472E+03  0.00000000000E+00 0. -1.
         -5    1    3    3    0  503 -0.72877441892E+02  0.23700047175E+02 -0.38942579463E+02  0.86089652503E+02  0.47000000000E+01 0.  1.
         11    1    4    4    0    0 -0.20167065867E+02 -0.50770300212E+02 -0.15699422265E+03  0.16622731386E+03  0.00000000000E+00 0. -1.
        -12    1    4    4    0    0  0.17806244381E+02 -0.17933531445E+02 -0.38186287330E+01  0.25558869584E+02  0.00000000000E+00 0.  1.
</event>
<event>
12    1  0.8133495E-002  0.1768081E+03  0.7818608E-02  0.1171644E+00
         21   -1    0    0  501  502  0.00000000000E+00  0.00000000000E+00  0.46674825028E+02  0.46674825028E+02  0.00000000000E+00 0. -1.
         21   -1    0    0  502  503 -0.00000000000E+00 -0.00000000000E+00 -0.14214406611E+04  0.14214406611E+04  0.00000000000E+00 0. -1.
         -6    2    1    2    0  503 -0.29558996080E+02 -0.92491840768E+01 -0.12223994028E+04  0.12347132120E+04  0.17116405612E+03 0.  0.
        -24    2    3    3    0    0 -0.10617020781E+02 -0.59400155602E+02 -0.10319525168E+04  0.10368091323E+04  0.80037991920E+02 0.  0.
          6    2    1    2  501    0  0.29558996080E+02  0.92491840768E+01 -0.15236643328E+03  0.23340227420E+03  0.17407415074E+03 0.  0.
         24    2    5    5    0    0  0.49486735631E+02 -0.45796608290E+01 -0.16611232607E+02  0.95417071137E+02  0.79740667911E+02 0.  0.
          5    1    5    5  501    0 -0.19927739551E+02  0.13828844906E+02 -0.13575520067E+03  0.13798520306E+03  0.47000000000E+01 0. -1.
        -11    1    6    6    0    0  0.14804349087E+01 -0.30444921751E+02 -0.26024829635E+02  0.40079629557E+02  0.00000000000E+00 0.  1.
         12    1    6    6    0    0  0.48006300723E+02  0.25865260922E+02  0.94135970273E+01  0.55337441580E+02  0.00000000000E+00 0. -1.
         -5    1    3    3    0  503 -0.18941975299E+02  0.50150971525E+02 -0.19044688601E+03  0.19790407971E+03  0.47000000000E+01 0.  1.
         13    1    4    4    0    0 -0.39756208586E+02 -0.57666888568E+02 -0.79093260766E+03  0.79402796929E+03  0.00000000000E+00 0. -1.
        -14    1    4    4    0    0  0.29139187805E+02 -0.17332670336E+01 -0.24101990917E+03  0.24278116298E+03  0.00000000000E+00 0.  1.
</event>
<event>
12    1  0.8133495E-002  0.2034308E+03  0.7818608E-02  0.1147168E+00
         21   -1    0    0  501  502  0.00000000000E+00  0.00000000000E+00  0.44686190640E+03  0.44686190640E+03  0.00000000000E+00 0.  1.
         21   -1    0    0  502  503 -0.00000000000E+00 -0.00000000000E+00 -0.21205660762E+03  0.21205660762E+03  0.00000000000E+00 0.  1.
         -6    2    1    2    0  503 -0.10286379377E+03  0.26025296595E+02 -0.13070125943E+03  0.24061342133E+03  0.17191196345E+03 0.  0.
        -24    2    3    3    0    0 -0.10645244377E+03  0.56197723029E+02 -0.14858951135E+03  0.20504189786E+03  0.73979930629E+02 0.  0.
          6    2    1    2  501    0  0.10286379377E+03 -0.26025296595E+02  0.36550655821E+03  0.41830509268E+03  0.17356794157E+03 0.  0.
         24    2    5    5    0    0 -0.14675560651E+02 -0.12656121686E+02  0.13542853463E+03  0.15955381904E+03  0.82103493736E+02 0.  0.
          5    1    5    5  501    0  0.11753935442E+03 -0.13369174909E+02  0.23007802358E+03  0.25875127364E+03  0.47000000000E+01 0. -1.
        -13    1    6    6    0    0 -0.13101192298E+02  0.29842872400E+02  0.96660420353E+02  0.10200723080E+03  0.00000000000E+00 0.  1.
         14    1    6    6    0    0 -0.15743683532E+01 -0.42498994086E+02  0.38768114272E+02  0.57546588242E+02  0.00000000000E+00 0. -1.
         -5    1    3    3    0  503  0.35886499944E+01 -0.30172426434E+02  0.17888251919E+02  0.35571523476E+02  0.47000000000E+01 0.  1.
         11    1    4    4    0    0  0.49450486424E+01 -0.51378603718E+01 -0.31104176569E+02  0.31911140928E+02  0.00000000000E+00 0. -1.
        -12    1    4    4    0    0 -0.11139749241E+03  0.61335583401E+02 -0.11748533478E+03  0.17313075693E+03  0.00000000000E+00 0.  1.
</event>
<event>
12    1  0.8133495E-002  0.2131136E+03  0.7818608E-02  0.1139183E+00
         21   -1    0    0  503  502  0.00000000000E+00  0.00000000000E+00  0.39948433670E+03  0.39948433670E+03  0.00000000000E+00 0. -1.
         21   -1    0    0  501  503 -0.00000000000E+00 -0.00000000000E+00 -0.16546369374E+03  0.16546369374E+03  0.00000000000E+00 0. -1.
          6    2    1    2  501    0  0.16257053552E+02  0.12372237208E+03 -0.41302083032E+02  0.21678138021E+03  0.17238557829E+03 0.  0.
         24    2    3    3    0    0  0.26891594390E+02  0.48092819511E+02 -0.85642499580E+02  0.12834448056E+03  0.78112680265E+02 0.  0.
         -6    2    1    2    0  502 -0.16257053552E+02 -0.12372237208E+03  0.27532272599E+03  0.34816665022E+03  0.17275964730E+03 0.  0.
        -24    2    5    5    0    0 -0.32509255726E+02 -0.44927000834E+02  0.51149806020E+02  0.10994735492E+03  0.79980191837E+02 0.  0.
          5    1    3    3  501    0 -0.10634540839E+02  0.75629552572E+02  0.44340416548E+02  0.88436899656E+02  0.47000000000E+01 0. -1.
        -13    1    4    4    0    0 -0.18160059817E+02  0.25147212189E+02 -0.68095639474E+02  0.74827709899E+02  0.00000000000E+00 0.  1.
         14    1    4    4    0    0  0.45051654208E+02  0.22945607322E+02 -0.17546860106E+02  0.53516770659E+02  0.00000000000E+00 0. -1.
         -5    1    5    5    0  502  0.16252202175E+02 -0.78795371250E+02  0.22417291997E+03  0.23821929530E+03  0.47000000000E+01 0.  1.
         13    1    6    6    0    0  0.13001867524E+02 -0.38383259805E+02 -0.85076428964E+00  0.40534516060E+02  0.00000000000E+00 0. -1.
        -14    1    6    6    0    0 -0.45511123250E+02 -0.65437410291E+01  0.52000570309E+02  0.69412838860E+02  0.00000000000E+00 0.  1.
</event>
<event>
12    1  0.8133495E-002  0.2345929E+03  0.7818608E-02  0.1123452E+00
         21   -1    0    0  501  502  0.00000000000E+00  0.00000000000E+00  0.17610644196E+04  0.17610644196E+04  0.00000000000E+00 0. -1.
         21   -1    0    0  502  503 -0.00000000000E+00 -0.00000000000E+00 -0.24406477017E+03  0.24406477017E+03  0.00000000000E+00 0. -1.
         -6    2    1    2    0  503 -0.19691909434E+01  0.15866760654E+03 -0.17768448211E+03  0.29428833889E+03  0.17278473354E+03 0.  0.
        -24    2    3    3    0    0 -0.66233296241E+02  0.72698809576E+02 -0.86112127731E+02  0.15312143282E+03  0.79742762701E+02 0.  0.
          6    2    1    2  501    0  0.19691909434E+01 -0.15866760654E+03  0.16946841316E+04  0.17108408509E+04  0.17275075780E+03 0.  0.
         24    2    5    5    0    0 -0.17760089349E+02 -0.37318325439E+02  0.36105135636E+03  0.37154500548E+03  0.77327427066E+02 0.  0.
          5    1    5    5  501    0  0.19729280292E+02 -0.12134928110E+03  0.13336327752E+04  0.13392958455E+04  0.47000000000E+01 0. -1.
        -13    1    6    6    0    0  0.14117746481E+02  0.50947744348E+01  0.22521163622E+03  0.22571120615E+03  0.00000000000E+00 0.  1.
         14    1    6    6    0    0 -0.31877835830E+02 -0.42413099874E+02  0.13583972014E+03  0.14583379932E+03  0.00000000000E+00 0. -1.
         -5    1    3    3    0  503  0.64264105298E+02  0.85968796961E+02 -0.91572354378E+02  0.14116690606E+03  0.47000000000E+01 0.  1.
         13    1    4    4    0    0 -0.35686864342E+02  0.62034782410E+02 -0.95585402402E+02  0.11940869176E+03  0.00000000000E+00 0. -1.
        -14    1    4    4    0    0 -0.30546431899E+02  0.10664027165E+02  0.94732746710E+01  0.33712741065E+02  0.00000000000E+00 0.  1.
</event>
<event>
12    1  0.8133495E-002  0.3008200E+03  0.7818608E-02  0.1084856E+00
         21   -1    0    0  503  502  0.00000000000E+00  0.00000000000E+00  0.51349463392E+03  0.51349463392E+03  0.00000000000E+00 0. -1.
         21   -1    0    0  501  503 -0.00000000000E+00 -0.00000000000E+00 -0.57068525761E+03  0.57068525761E+03  0.00000000000E+00 0.  1.
          6    2    1    2  501    0  0.44229022241E+02  0.24224676909E+03 -0.47934181230E+03  0.56581292062E+03  0.17244124964E+03 0.  0.
         24    2    3    3    0    0  0.40991128522E+02  0.14722033070E+03 -0.41938895697E+03  0.45330984151E+03  0.79048192816E+02 0.  0.
         -6    2    1    2    0  502 -0.44229022241E+02 -0.24224676909E+03  0.42215118861E+03  0.51836697091E+03  0.17278016941E+03 0.  0.
        -24    2    5    5    0    0 -0.32356072058E+02 -0.25507337964E+03  0.42143360556E+03  0.50025361093E+03  0.80858190403E+02 0.  0.
          5    1    3    3  501    0  0.32378937184E+01  0.95026438384E+02 -0.59952855331E+02  0.11250307911E+03  0.47000000000E+01 0. -1.
        -11    1    4    4    0    0  0.91497375863E+01  0.12808407844E+03 -0.26442881328E+03  0.29395891913E+03  0.00000000000E+00 0.  1.
         12    1    4    4    0    0  0.31841390936E+02  0.19136252267E+02 -0.15496014369E+03  0.15935092237E+03  0.00000000000E+00 0. -1.
         -5    1    5    5    0  502 -0.11872950182E+02  0.12826610552E+02  0.71758305233E+00  0.18113359979E+02  0.47000000000E+01 0.  1.
         11    1    6    6    0    0  0.81655552917E+01 -0.52387766915E+02  0.14989716323E+03  0.15899784262E+03  0.00000000000E+00 0. -1.
        -12    1    6    6    0    0 -0.40521627350E+02 -0.20268561272E+03  0.27153644233E+03  0.34125576831E+03  0.00000000000E+00 0.  1.
</event>
<event>
12    1  0.8133495E-002  0.2274273E+03  0.7818608E-02  0.1128520E+00
         21   -1    0    0  503  502  0.00000000000E+00  0.00000000000E+00  0.33356013957E+03  0.33356013957E+03  0.00000000000E+00 0.  1.
         21   -1    0    0  501  503 -0.00000000000E+00 -0.00000000000E+00 -0.15588570322E+03  0.15588570322E+03  0.00000000000E+00 0. -1.
          6    2    1    2  501    0  0.14625015117E+03  0.23017561385E+02  0.68821161626E+02  0.23731056255E+03  0.17222379615E+03 0.  0.
         24    2    3    3    0    0  0.61978396209E+02  0.45279050085E+02  0.94666268730E+02  0.14627561254E+03  0.80890904397E+02 0.  0.
         -6    2    1    2    0  502 -0.14625015117E+03 -0.23017561385E+02  0.10885327472E+03  0.25213528024E+03  0.17263907227E+03 0.  0.
        -24    2    5    5    0    0 -0.10564128337E+03 -0.14268791445E+02  0.14423326872E+03  0.19736799899E+03  0.82384537737E+02 0.  0.
          5    1    3    3  501    0  0.84271754959E+02 -0.22261488700E+02 -0.25845107104E+02  0.91034950015E+02  0.47000000000E+01 0. -1.
        -13    1    4    4    0    0 -0.21912282851E+00 -0.20048129649E+02  0.93652877656E+01  0.22128807744E+02  0.00000000000E+00 0.  1.
         14    1    4    4    0    0  0.62197519037E+02  0.65327179734E+02  0.85300980965E+02  0.12414680479E+03  0.00000000000E+00 0. -1.
         -5    1    5    5    0  502 -0.40608867793E+02 -0.87487699402E+01 -0.35379994006E+02  0.54767281243E+02  0.47000000000E+01 0.  1.
         11    1    6    6    0    0 -0.45627386034E+02 -0.47708494938E+02  0.69537561010E+02  0.95882382306E+02  0.00000000000E+00 0. -1.
        -12    1    6    6    0    0 -0.60013897341E+02  0.33439703493E+02  0.74695707713E+02  0.10148561669E+03  0.00000000000E+00 0.  1.
</event>
<event>
12    1  0.8133495E-002  0.2702149E+03  0.7818608E-02  0.1101378E+00
         21   -1    0    0  501  502  0.00000000000E+00  0.00000000000E+00  0.79270372452E+03  0.79270372452E+03  0.00000000000E+00 0.  1.
         21   -1    0    0  502  503 -0.00000000000E+00 -0.00000000000E+00 -0.92253877767E+02  0.92253877767E+02  0.00000000000E+00 0. -1.
         -6    2    1    2    0  503 -0.13927872632E+03  0.15269424583E+03  0.31155506201E+03  0.41140163401E+03  0.17167018231E+03 0.  0.
        -24    2    3    3    0    0 -0.67371690400E+02  0.15428356387E+03  0.27179601059E+03  0.32908505053E+03  0.77984205867E+02 0.  0.
          6    2    1    2  501    0  0.13927872632E+03 -0.15269424583E+03  0.38889478475E+03  0.47355596827E+03  0.17407471145E+03 0.  0.
         24    2    5    5    0    0  0.76695909142E+02 -0.16029147739E+03  0.34086148759E+03  0.39416066256E+03  0.87180582616E+02 0.  0.
          5    1    5    5  501    0  0.62582817178E+02  0.75972315612E+01  0.48033297159E+02  0.79395305714E+02  0.47000000000E+01 0. -1.
        -13    1    6    6    0    0  0.66909965317E+02 -0.42193762557E+02  0.12551123809E+03  0.14835878115E+03  0.00000000000E+00 0.  1.
         14    1    6    6    0    0  0.97859438250E+01 -0.11809771483E+03  0.21535024950E+03  0.24580188141E+03  0.00000000000E+00 0. -1.
         -5    1    3    3    0  503 -0.71907035920E+02 -0.15893180376E+01  0.39759051416E+02  0.82316583482E+02  0.47000000000E+01 0.  1.
         11    1    4    4    0    0  0.12105256938E+01  0.33610696209E+02  0.11434768951E+03  0.11919118411E+03  0.00000000000E+00 0. -1.
        -12    1    4    4    0    0 -0.68582216094E+02  0.12067286766E+03  0.15744832108E+03  0.20989386643E+03  0.00000000000E+00 0.  1.
</event>
<event>
12    1  0.8133495E-002  0.1834239E+03  0.7818608E-02  0.1165114E+00
         21   -1    0    0  501  502  0.00000000000E+00  0.00000000000E+00  0.85079785658E+03  0.85079785658E+03  0.00000000000E+00 0.  1.
         21   -1    0    0  502  503 -0.00000000000E+00 -0.00000000000E+00 -0.56338683621E+02  0.56338683621E+02  0.00000000000E+00 0.  1.
         -6    2    1    2    0  503 -0.63014209405E+02  0.12265565136E+02  0.14387664092E+03  0.23119129900E+03  0.16919720522E+03 0.  0.
        -24    2    3    3    0    0 -0.64433632439E+02 -0.52690440376E+02  0.98024027311E+02  0.15153045800E+03  0.80154814420E+02 0.  0.
          6    2    1    2  501    0  0.63014209405E+02 -0.12265565136E+02  0.65058253203E+03  0.67594524120E+03  0.17182288392E+03 0.  0.
         24    2    5    5    0    0  0.40289183258E+02 -0.72446827828E+02  0.34429788463E+03  0.36294270698E+03  0.79464545801E+02 0.  0.
          5    1    5    5  501    0  0.22725026147E+02  0.60181262692E+02  0.30628464740E+03  0.31300253422E+03  0.47000000000E+01 0. -1.
        -13    1    6    6    0    0 -0.82315590802E+01 -0.64713398859E+02  0.21232524758E+03  0.22212067287E+03  0.00000000000E+00 0.  1.
         14    1    6    6    0    0  0.48520742338E+02 -0.77334289690E+01  0.13197263705E+03  0.14082203411E+03  0.00000000000E+00 0. -1.
         -5    1    3    3    0  503  0.14194230335E+01  0.64956005513E+02  0.45852613613E+02  0.79660841001E+02  0.47000000000E+01 0.  1.
         13    1    4    4    0    0 -0.33581382740E+02 -0.43563404672E+02  0.10506752380E+03  0.11859453635E+03  0.00000000000E+00 0. -1.
        -14    1    4    4    0    0 -0.30852249698E+02 -0.91270357040E+01 -0.70434964920E+01  0.32935921651E+02  0.00000000000E+00 0.  1.
</event>
<event>
12    1  0.8133495E-002  0.2073833E+03  0.7818608E-02  0.1143771E+00
         21   -1    0    0  501  502  0.00000000000E+00  0.00000000000E+00  0.49801535385E+02  0.49801535385E+02  0.00000000000E+00 0. -1.
         21   -1    0    0  502  503 -0.00000000000E+00 -0.00000000000E+00 -0.11158186072E+04  0.11158186072E+04  0.00000000000E+00 0. -1.
         -6    2    1    2    0  503 -0.10115009805E+03 -0.52162138773E+02 -0.25517177942E+03  0.32881678391E+03  0.17336553669E+03 0.  0.
        -24    2    3    3    0    0 -0.12485836396E+03 -0.78119401485E+02 -0.23272688948E+03  0.28684388260E+03  0.80158318109E+02 0.  0.
          6    2    1    2  501    0  0.10115009805E+03  0.52162138773E+02 -0.81084529238E+03  0.83680335866E+03  0.17267756608E+03 0.  0.
         24    2    5    5    0    0  0.97242197531E+02 -0.26433592594E+02 -0.50745393158E+03  0.52333730231E+03  0.78852137017E+02 0.  0.
          5    1    5    5  501    0  0.39079005235E+01  0.78595731367E+02 -0.30339136080E+03  0.31346605635E+03  0.47000000000E+01 0. -1.
        -11    1    6    6    0    0  0.26540482007E+02  0.25403781691E+01 -0.31712567193E+03  0.31824446971E+03  0.00000000000E+00 0.  1.
         12    1    6    6    0    0  0.70701715524E+02 -0.28973970763E+02 -0.19032825965E+03  0.20509283260E+03  0.00000000000E+00 0. -1.
         -5    1    3    3    0  503  0.23708265905E+02  0.25957262712E+02 -0.22444889940E+02  0.41972901307E+02  0.47000000000E+01 0.  1.
         13    1    4    4    0    0 -0.10845930796E+03 -0.45378653159E+02 -0.21738567063E+03  0.24714201068E+03  0.00000000000E+00 0. -1.
        -14    1    4    4    0    0 -0.16399056000E+02 -0.32740748326E+02 -0.15341218843E+02  0.39701871924E+02  0.00000000000E+00 0.  1.
</event>
<event>
12    1  0.8133495E-002  0.1907233E+03  0.7818608E-02  0.1157915E+00
         21   -1    0    0  501  502  0.00000000000E+00  0.00000000000E+00  0.11856992467E+04  0.11856992467E+04  0.00000000000E+00 0. -1.
         21   -1    0    0  502  503 -0.00000000000E+00 -0.00000000000E+00 -0.31076109200E+02  0.31076109200E+02  0.00000000000E+00 0. -1.
         -6    2    1    2    0  503 -0.81407279801E+02 -0.12569406262E+02  0.65162817769E+03  0.67883546585E+03  0.17150268965E+03 0.  0.
        -24    2    3    3    0    0 -0.37437845347E+02  0.36072548508E+02  0.54841666306E+03  0.55646693361E+03  0.78687933394E+02 0.  0.
          6    2    1    2  501    0  0.81407279801E+02  0.12569406262E+02  0.50299495979E+03  0.53793989003E+03  0.17201819826E+03 0.  0.
         24    2    5    5    0    0  0.11252331607E+02  0.35610081653E+02  0.40545627244E+03  0.41551246251E+03  0.82831906662E+02 0.  0.
          5    1    5    5  501    0  0.70154948194E+02 -0.23040675392E+02  0.97538687351E+02  0.12242742752E+03  0.47000000000E+01 0. -1.
        -11    1    6    6    0    0  0.25283999345E+02 -0.19469015979E+01  0.32124429998E+03  0.32224365210E+03  0.00000000000E+00 0.  1.
         12    1    6    6    0    0 -0.14031667738E+02  0.37556983251E+02  0.84211972457E+02  0.93268810412E+02  0.00000000000E+00 0. -1.
         -5    1    3    3    0  503 -0.43969434453E+02 -0.48641954770E+02  0.10321151464E+03  0.12236853224E+03  0.47000000000E+01 0.  1.
         13    1    4    4    0    0 -0.51160438452E+02  0.15529880301E+02  0.19527105225E+03  0.20245827099E+03  0.00000000000E+00 0. -1.
        -14    1    4    4    0    0  0.13722593104E+02  0.20542668207E+02  0.35314561081E+03  0.35400866262E+03  0.00000000000E+00 0.  1.
</event>
<event>
12    1  0.8133495E-002  0.1794519E+03  0.7818608E-02  0.1168746E+00
         21   -1    0    0  501  502  0.00000000000E+00  0.00000000000E+00  0.23478001287E+03  0.23478001287E+03  0.00000000000E+00 0. -1.
         21   -1    0    0  502  503 -0.00000000000E+00 -0.00000000000E+00 -0.14359434877E+03  0.14359434877E+03  0.00000000000E+00 0. -1.
         -6    2    1    2    0  503 -0.48301498284E+02 -0.13955268116E+02  0.19362362305E+01  0.17946229908E+03  0.17226486448E+03 0.  0.
        -24    2    3    3    0    0  0.18659483825E+02  0.40255442883E+02 -0.11281052545E+02  0.92173347688E+02  0.79999917870E+02 0.  0.
          6    2    1    2  501    0  0.48301498284E+02  0.13955268116E+02  0.89249427876E+02  0.19891206256E+03  0.17050737231E+03 0.  0.
         24    2    5    5    0    0 -0.15611186287E+02 -0.31864305362E+02  0.13224860158E+02  0.89431062112E+02  0.81018361196E+02 0.  0.
          5    1    5    5  501    0  0.63912684571E+02  0.45819573478E+02  0.76024567718E+02  0.10948100045E+03  0.47000000000E+01 0. -1.
        -13    1    6    6    0    0  0.23168847529E+02 -0.41200041249E+02 -0.43281050427E+00  0.47269717787E+02  0.00000000000E+00 0.  1.
         14    1    6    6    0    0 -0.38780033817E+02  0.93357358874E+01  0.13657670662E+02  0.42161344325E+02  0.00000000000E+00 0. -1.
         -5    1    3    3    0  503 -0.66960982109E+02 -0.54210710999E+02  0.13217288775E+02  0.87288951389E+02  0.47000000000E+01 0.  1.
         11    1    4    4    0    0 -0.11498928705E+02  0.84012704857E+01  0.29197078519E+02  0.32485013486E+02  0.00000000000E+00 0. -1.
        -12    1    4    4    0    0  0.30158412530E+02  0.31854172397E+02 -0.40478131063E+02  0.59688334202E+02  0.00000000000E+00 0.  1.
</event>
<event>
12    1  0.8133495E-002  0.2195627E+03  0.7818608E-02  0.1134760E+00
         21   -1    0    0  501  502  0.00000000000E+00  0.00000000000E+00  0.12417010448E+04  0.12417010448E+04  0.00000000000E+00 0.  1.
         21   -1    0    0  502  503 -0.00000000000E+00 -0.00000000000E+00 -0.42981242561E+02  0.42981242561E+02  0.00000000000E+00 0. -1.
         -6    2    1    2    0  503 -0.13541111295E+03 -0.20565671568E+02  0.80756130841E+03  0.83611485022E+03  0.16785011039E+03 0.  0.
        -24    2    3    3    0    0 -0.37225234768E+02  0.39399687085E+02  0.28075581995E+03  0.29687239678E+03  0.79820649533E+02 0.  0.
          6    2    1    2  501    0  0.13541111295E+03  0.20565671568E+02  0.39115849384E+03  0.44856743715E+03  0.17160612464E+03 0.  0.
         24    2    5    5    0    0  0.80275711003E+02 -0.43482874877E+02  0.30739541657E+03  0.32948565028E+03  0.75722529217E+02 0.  0.
          5    1    5    5  501    0  0.55135401948E+02  0.64048546446E+02  0.83763077271E+02  0.11908178687E+03  0.47000000000E+01 0. -1.
        -11    1    6    6    0    0  0.59674904736E+02  0.63445679820E+01  0.20705413581E+03  0.21557542289E+03  0.00000000000E+00 0.  1.
         12    1    6    6    0    0  0.20600806268E+02 -0.49827442859E+02  0.10034128076E+03  0.11391022740E+03  0.00000000000E+00 0. -1.
         -5    1    3    3    0  503 -0.98185878183E+02 -0.59965358653E+02  0.52680548847E+03  0.53924245344E+03  0.47000000000E+01 0.  1.
         11    1    4    4    0    0 -0.10191834190E+02 -0.54871651380E+01  0.31605197022E+00  0.11579393518E+02  0.00000000000E+00 0. -1.
        -12    1    4    4    0    0 -0.27033400578E+02  0.44886852223E+02  0.28043976798E+03  0.28529300326E+03  0.00000000000E+00 0.  1.
</event>
<event>
12    1  0.8133495E-002  0.1934511E+03  0.7818608E-02  0.1155511E+00
         21   -1    0    0  501  502  0.00000000000E+00  0.00000000000E+00  0.13333966580E+04  0.13333966580E+04  0.00000000000E+00 0. -1.
         21   -1    0    0  502  503 -0.00000000000E+00 -0.00000000000E+00 -0.31271461652E+02  0.31271461652E+02  0.00000000000E+00 0.  1.
         -6    2    1    2    0  503 -0.32114991136E+02  0.80882810828E+02  0.87145533405E+03  0.89254540035E+03  0.17213218964E+03 0.  0.
        -24    2    3    3    0    0 -0.81258240470E+02  0.30675211238E+02  0.43550239448E+03  0.45094273106E+03  0.78378191271E+02 0.  0.
          6    2    1    2  501    0  0.32114991136E+02 -0.80882810828E+02  0.43066986234E+03  0.47212271934E+03  0.17277132298E+03 0.  0.
         24    2    5    5    0    0  0.26813954325E+02 -0.38581865545E+02  0.11887062119E+03  0.15738738967E+03  0.91831461648E+02 0.  0.
          5    1    5    5  501    0  0.53010368110E+01 -0.42300945283E+02  0.31179924115E+03  0.31473532967E+03  0.47000000000E+01 0. -1.
        -11    1    6    6    0    0  0.60546285819E+02 -0.32661165908E+02  0.82760762307E+02  0.10761946043E+03  0.00000000000E+00 0.  1.
         12    1    6    6    0    0 -0.33732331494E+02 -0.59206996375E+01  0.36109858887E+02  0.49767929242E+02  0.00000000000E+00 0. -1.
         -5    1    3    3    0  503  0.49143249335E+02  0.50207599589E+02  0.43595293957E+03  0.44160266930E+03  0.47000000000E+01 0.  1.
         13    1    4    4    0    0 -0.55279730374E+02  0.57275469552E+02  0.30911977296E+03  0.31920426381E+03  0.00000000000E+00 0. -1.
        -14    1    4    4    0    0 -0.25978510097E+02 -0.26600258314E+02  0.12638262152E+03  0.13173846724E+03  0.00000000000E+00 0.  1.
</event>
<event>
12    1  0.8133495E-002  0.1807573E+03  0.7818608E-02  0.1167511E+00
         21   -1    0    0  501  502  0.00000000000E+00  0.00000000000E+00  0.52971659252E+02  0.52971659252E+02  0.00000000000E+00 0.  1.
         21   -1    0    0  502  503 -0.00000000000E+00 -0.00000000000E+00 -0.76756761479E+03  0.76756761479E+03  0.00000000000E+00 0.  1.
         -6    2    1    2    0  503 -0.51406890920E+02  0.19029808215E+02 -0.17322033296E+03  0.25035672528E+03  0.17224518603E+03 0.  0.
        -24    2    3    3    0    0 -0.40761805518E+02  0.29011259856E+02 -0.19930244877E+03  0.22010256879E+03  0.78870125613E+02 0.  0.
          6    2    1    2  501    0  0.51406890920E+02 -0.19029808215E+02 -0.54137562258E+03  0.57018254876E+03  0.17034016598E+03 0.  0.
         24    2    5    5    0    0  0.48782267519E+02  0.36590002293E+02 -0.19076820076E+03  0.21515000630E+03  0.78603313522E+02 0.  0.
          5    1    5    5  501    0  0.26246234014E+01 -0.55619810508E+02 -0.35060742182E+03  0.35503254246E+03  0.47000000000E+01 0. -1.
        -11    1    6    6    0    0  0.62646398433E+02  0.29324202867E+01 -0.11161043171E+03  0.12802366497E+03  0.00000000000E+00 0.  1.
         12    1    6    6    0    0 -0.13864130915E+02  0.33657582006E+02 -0.79157769050E+02  0.87126341329E+02  0.00000000000E+00 0. -1.
         -5    1    3    3    0  503 -0.10645085402E+02 -0.99814516408E+01  0.26082115813E+02  0.30254156497E+02  0.47000000000E+01 0.  1.
         11    1    4    4    0    0 -0.57450998573E+02  0.17969175359E+02 -0.85563061045E+02  0.10461618381E+03  0.00000000000E+00 0. -1.
        -12    1    4    4    0    0  0.16689193055E+02  0.11042084497E+02 -0.11373938772E+03  0.11548638498E+03  0.00000000000E+00 0.  1.
</event>
<event>
12    1  0.8133495E-002  0.4648997E+03  0.7818608E-02  0.1023496E+00
         21   -1    0    0  501  502  0.00000000000E+00  0.00000000000E+00  0.84433725489E+03  0.84433725489E+03  0.00000000000E+00 0.  1.
         21   -1    0    0  502  503 -0.00000000000E+00 -0.00000000000E+00 -0.74467565770E+03  0.74467565770E+03  0.00000000000E+00 0. -1.
         -6    2    1    2    0  503  0.43220721558E+03 -0.15134579565E+01 -0.59439998997E+03  0.75461452317E+03  0.17124941681E+03 0.  0.
        -24    2    3    3    0    0  0.17486542617E+03  0.41128751957E+01 -0.16735503815E+03  0.25597042858E+03  0.83176429957E+02 0.  0.
          6    2    1    2  501    0 -0.43220721558E+03  0.15134579565E+01  0.69406158716E+03  0.83439838942E+03  0.16641459597E+03 0.  0.
         24    2    5    5    0    0 -0.36093268876E+03  0.33425164257E+02  0.63704332533E+03  0.73759143020E+03  0.82627308647E+02 0.  0.
          5    1    5    5  501    0 -0.71274526820E+02 -0.31911706300E+02  0.57018261825E+02  0.96806959223E+02  0.47000000000E+01 0. -1.
        -11    1    6    6    0    0 -0.29001018968E+03 -0.49231651259E+01  0.52081181170E+03  0.59613345056E+03  0.00000000000E+00 0.  1.
         12    1    6    6    0    0 -0.70922499082E+02  0.38348329383E+02  0.11623151363E+03  0.14145797964E+03  0.00000000000E+00 0. -1.
         -5    1    3    3    0  503  0.25734178940E+03 -0.56263331522E+01 -0.42704495182E+03  0.49864409459E+03  0.47000000000E+01 0.  1.
         13    1    4    4    0    0  0.17450421127E+03 -0.11211781256E+02 -0.16507509456E+03  0.24047288960E+03  0.00000000000E+00 0. -1.
        -14    1    4    4    0    0  0.36121490007E+00  0.15324656452E+02 -0.22799435927E+01  0.15497538977E+02  0.00000000000E+00 0.  1.
</event>
<event>
12    1  0.8133495E-002  0.2189767E+03  0.7818608E-02  0.1134962E+00
         21   -1    0    0  503  502  0.00000000000E+00  0.00000000000E+00  0.25393681312E+03  0.25393681312E+03  0.00000000000E+00 0.  1.
         21   -1    0    0  501  503 -0.00000000000E+00 -0.00000000000E+00 -0.21640851095E+03  0.21640851095E+03  0.00000000000E+00 0. -1.
          6    2    1    2  501    0  0.98620772467E+02 -0.90687885160E+02 -0.67281317295E+02  0.22907979133E+03  0.17320631011E+03 0.  0.
         24    2    3    3    0    0 -0.52824881633E+01 -0.37713874864E+02  0.98406278938E+01  0.89179763574E+02  0.80037186578E+02 0.  0.
         -6    2    1    2    0  502 -0.98620772467E+02  0.90687885160E+02  0.10480961946E+03  0.24126553275E+03  0.17109544612E+03 0.  0.
        -24    2    5    5    0    0 -0.16593179804E+02  0.10661099664E+03  0.78565959286E+02  0.15355640473E+03  0.75932346573E+02 0.  0.
          5    1    3    3  501    0  0.10390326063E+03 -0.52974010296E+02 -0.77121945188E+02  0.13990002776E+03  0.47000000000E+01 0. -1.
        -13    1    4    4    0    0 -0.16807946177E+02  0.12070301044E+02  0.28115328535E+02  0.34909467492E+02  0.00000000000E+00 0.  1.
         14    1    4    4    0    0  0.11525458014E+02 -0.49784175908E+02 -0.18274700641E+02  0.54270296081E+02  0.00000000000E+00 0. -1.
         -5    1    5    5    0  502 -0.82027592663E+02 -0.15923111478E+02  0.26243660178E+02  0.87709128013E+02  0.47000000000E+01 0.  1.
         11    1    6    6    0    0  0.28963340964E+02  0.53466652297E+02  0.26567607658E+02  0.66358087708E+02  0.00000000000E+00 0. -1.
        -12    1    6    6    0    0 -0.45556520769E+02  0.53144344341E+02  0.51998351628E+02  0.87198317025E+02  0.00000000000E+00 0.  1.
</event>
<event>
12    1  0.8133495E-002  0.2247869E+03  0.7818608E-02  0.1130383E+00
         21   -1    0    0  503  502  0.00000000000E+00  0.00000000000E+00  0.97524908602E+03  0.97524908602E+03  0.00000000000E+00 0.  1.
         21   -1    0    0  501  503 -0.00000000000E+00 -0.00000000000E+00 -0.52198997834E+02  0.52198997834E+02  0.00000000000E+00 0. -1.
          6    2    1    2  501    0 -0.55193480126E+02  0.13624303021E+03  0.41579744783E+03  0.47261984548E+03  0.16992209154E+03 0.  0.
         24    2    3    3    0    0 -0.74942162768E+02  0.58701442587E+02  0.34117170420E+03  0.36310363714E+03  0.79899514605E+02 0.  0.
         -6    2    1    2    0  502  0.55193480126E+02 -0.13624303021E+03  0.50725264035E+03  0.55482823837E+03  0.17006072273E+03 0.  0.
        -24    2    5    5    0    0 -0.20277241014E+02 -0.26685563997E+02  0.28452968187E+03  0.29535516773E+03  0.71793101390E+02 0.  0.
          5    1    3    3  501    0  0.19748682642E+02  0.77541587626E+02  0.74625743625E+02  0.10951620834E+03  0.47000000000E+01 0. -1.
        -11    1    4    4    0    0  0.47666503415E+01 -0.11033175327E+02  0.10753601778E+02  0.16127363841E+02  0.00000000000E+00 0.  1.
         12    1    4    4    0    0 -0.79708813110E+02  0.69734617914E+02  0.33041810243E+03  0.34697627330E+03  0.00000000000E+00 0. -1.
         -5    1    5    5    0  502  0.75470721141E+02 -0.10955746622E+03  0.22272295848E+03  0.25947307064E+03  0.47000000000E+01 0.  1.
         11    1    6    6    0    0 -0.80031918118E+01 -0.40588111620E+02  0.80722381306E+02  0.90705836239E+02  0.00000000000E+00 0. -1.
        -12    1    6    6    0    0 -0.12274049203E+02  0.13902547622E+02  0.20380730057E+03  0.20464933149E+03  0.00000000000E+00 0.  1.
</event>
<event>
12    1  0.8133495E-002  0.1882873E+03  0.7818608E-02  0.1160484E+00
         21   -1    0    0  503  502  0.00000000000E+00  0.00000000000E+00  0.33306440376E+03  0.33306440376E+03  0.00000000000E+00 0.  1.
         21   -1    0    0  501  503 -0.00000000000E+00 -0.00000000000E+00 -0.24341969288E+03  0.24341969288E+03  0.00000000000E+00 0. -1.
          6    2    1    2  501    0  0.20180858555E+02  0.73131555474E+02 -0.17220171397E+03  0.25515784543E+03  0.17232702728E+03 0.  0.
         24    2    3    3    0    0  0.40995881018E+02  0.79633893256E+02 -0.48559569381E+02  0.12951941390E+03  0.79968916361E+02 0.  0.
         -6    2    1    2    0  502 -0.20180858555E+02 -0.73131555474E+02  0.26184642485E+03  0.32132625121E+03  0.17009267489E+03 0.  0.
        -24    2    5    5    0    0 -0.65212719761E+02 -0.55322770073E+02  0.24131366633E+03  0.26851805550E+03  0.80971308919E+02 0.  0.
          5    1    3    3  501    0 -0.20815022462E+02 -0.65023377821E+01 -0.12364214459E+03  0.12563843152E+03  0.47000000000E+01 0. -1.
        -13    1    4    4    0    0 -0.20974659394E+02  0.25503460164E+02 -0.31192264143E+02  0.45423784072E+02  0.00000000000E+00 0.  1.
         14    1    4    4    0    0  0.61970540411E+02  0.54130433091E+02 -0.17367305238E+02  0.84095629831E+02  0.00000000000E+00 0. -1.
         -5    1    5    5    0  502  0.45031861206E+02 -0.17808785400E+02  0.20532758526E+02  0.52808195707E+02  0.47000000000E+01 0.  1.
         13    1    6    6    0    0 -0.21343572624E+02  0.20778052948E+02  0.66997878209E+02  0.73321151527E+02  0.00000000000E+00 0. -1.
        -14    1    6    6    0    0 -0.43869147137E+02 -0.76100823021E+02  0.17431578812E+03  0.19519690398E+03  0.00000000000E+00 0.  1.
</event>
<event>
12    1  0.8133495E-002  0.3172547E+03  0.7818608E-02  0.1077009E+00
         21   -1    0    0  501  502  0.00000000000E+00  0.00000000000E+00  0.33465875147E+03  0.33465875147E+03  0.00000000000E+00 0. -1.
         21   -1    0    0  502  503 -0.00000000000E+00 -0.00000000000E+00 -0.36087801802E+03  0.36087801802E+03  0.00000000000E+00 0.  1.
         -6    2    1    2    0  503  0.24034770770E+03  0.11479027202E+03 -0.15592369447E+03  0.35350068350E+03  0.17235633900E+03 0.  0.
        -24    2    3    3    0    0  0.15537634635E+03  0.91978161035E+01 -0.51328201934E+02  0.18223420676E+03  0.79676301211E+02 0.  0.
          6    2    1    2  501    0 -0.24034770770E+03 -0.11479027202E+03  0.12970442792E+03  0.34203608599E+03  0.17094331913E+03 0.  0.
         24    2    5    5    0    0 -0.12640516096E+03  0.15346462404E+00  0.33128490587E+02  0.15350500574E+03  0.80548132376E+02 0.  0.
          5    1    5    5  501    0 -0.11394254673E+03 -0.11494373665E+03  0.96575937334E+02  0.18853108026E+03  0.47000000000E+01 0. -1.
        -11    1    6    6    0    0 -0.20330714160E+02  0.25389408931E+02 -0.13112525441E+02  0.35069906581E+02  0.00000000000E+00 0.  1.
         12    1    6    6    0    0 -0.10607444680E+03 -0.25235944307E+02  0.46241016027E+02  0.11843509916E+03  0.00000000000E+00 0. -1.
         -5    1    3    3    0  503  0.84971361347E+02  0.10559245592E+03 -0.10459549253E+03  0.17126647674E+03  0.47000000000E+01 0.  1.
         11    1    4    4    0    0  0.63813598460E+02  0.42234688504E+02 -0.32247555209E+02  0.83041249259E+02  0.00000000000E+00 0. -1.
        -12    1    4    4    0    0  0.91562747887E+02 -0.33036872400E+02 -0.19080646724E+02  0.99192957502E+02  0.00000000000E+00 0.  1.
</event>
<event>
12    1  0.8133495E-002  0.2083292E+03  0.7818608E-02  0.1143238E+00
         21   -1    0    0  503  502  0.00000000000E+00  0.00000000000E+00  0.45517613146E+03  0.45517613146E+03  0.00000000000E+00 0. -1.
         21   -1    0    0  501  503 -0.00000000000E+00 -0.00000000000E+00 -0.25706410737E+03  0.25706410737E+03  0.00000000000E+00 0. -1.
          6    2    1    2  501    0  0.86919600374E+02  0.75168003322E+02 -0.18422651649E+03  0.27682802196E+03  0.17172390256E+03 0.  0.
         24    2    3    3    0    0  0.95937025201E+02  0.82616492318E+02 -0.82663826470E+02  0.17448612466E+03  0.87078710855E+02 0.  0.
         -6    2    1    2    0  502 -0.86919600374E+02 -0.75168003322E+02  0.38233854058E+03  0.43541221688E+03  0.17376936826E+03 0.  0.
        -24    2    5    5    0    0 -0.95726847392E+02 -0.75989956889E+02  0.39433876731E+03  0.41978088139E+03  0.75992250341E+02 0.  0.
          5    1    3    3  501    0 -0.90174248271E+01 -0.74484889961E+01 -0.10156269002E+03  0.10234189730E+03  0.47000000000E+01 0. -1.
        -13    1    4    4    0    0  0.25596512555E+02  0.64837270787E+02 -0.76484879319E+01  0.70125262964E+02  0.00000000000E+00 0.  1.
         14    1    4    4    0    0  0.70340512646E+02  0.17779221531E+02 -0.75015338539E+02  0.10436086169E+03  0.00000000000E+00 0. -1.
         -5    1    5    5    0  502  0.88072470177E+01  0.82195356663E+00 -0.12000226733E+02  0.15631335495E+02  0.47000000000E+01 0.  1.
         13    1    6    6    0    0 -0.40155484326E+01  0.86596114848E+01  0.94827056375E+02  0.95306264857E+02  0.00000000000E+00 0. -1.
        -14    1    6    6    0    0 -0.91711298959E+02 -0.84649568373E+02  0.29951171094E+03  0.32447461653E+03  0.00000000000E+00 0.  1.
</event>
<event>
12    1  0.8133495E-002  0.1940771E+03  0.7818608E-02  0.1154956E+00
         21   -1    0    0  501  502  0.00000000000E+00  0.00000000000E+00  0.16831862620E+03  0.16831862620E+03  0.00000000000E+00 0.  1.
         21   -1    0    0  502  503 -0.00000000000E+00 -0.00000000000E+00 -0.23716697856E+03  0.23716697856E+03  0.00000000000E+00 0.  1.
         -6    2    1    2    0  503  0.79881737209E+02 -0.42423354052E+02 -0.83774483492E+02  0.21138613622E+03  0.17171226396E+03 0.  0.
        -24    2    3    3    0    0  0.38436266855E+02  0.43315783840E+02 -0.34076891453E+02  0.10386466193E+03  0.79202460363E+02 0.  0.
          6    2    1    2  501    0 -0.79881737209E+02  0.42423354052E+02  0.14926131129E+02  0.19409946854E+03  0.17108764241E+03 0.  0.
         24    2    5    5    0    0 -0.25673807909E+02  0.16776453827E+02 -0.54664012909E+02  0.10211500660E+03  0.80614678877E+02 0.  0.
          5    1    5    5  501    0 -0.54207929300E+02  0.25646900225E+02  0.69590144038E+02  0.91984461934E+02  0.47000000000E+01 0. -1.
        -11    1    6    6    0    0  0.18619497322E+00  0.39980541798E+02 -0.33180602765E+01  0.40118423636E+02  0.00000000000E+00 0.  1.
         12    1    6    6    0    0 -0.25860002882E+02 -0.23204087971E+02 -0.51345952632E+02  0.61996582965E+02  0.00000000000E+00 0. -1.
         -5    1    3    3    0  503  0.41445470354E+02 -0.85739137893E+02 -0.49697592039E+02  0.10752147429E+03  0.47000000000E+01 0.  1.
         11    1    4    4    0    0 -0.45442031995E+01  0.53155719660E+02 -0.12588340019E+02  0.54814656980E+02  0.00000000000E+00 0. -1.
        -12    1    4    4    0    0  0.42980470054E+02 -0.98399358201E+01 -0.21488551433E+02  0.49050004951E+02  0.00000000000E+00 0.  1.
</event>
<event>
12    1  0.8133495E-002  0.2024288E+03  0.7818608E-02  0.1147934E+00
         21   -1    0    0  501  502  0.00000000000E+00  0.00000000000E+00  0.22538480985E+03  0.22538480985E+03  0.00000000000E+00 0.  1.
         21   -1    0    0  502  503 -0.00000000000E+00 -0.00000000000E+00 -0.59914433029E+03  0.59914433029E+03  0.00000000000E+00 0.  1.
         -6    2    1    2    0  503  0.55427518173E+02 -0.91882672343E+02 -0.53120486863E+03  0.56807941399E+03  0.17035543106E+03 0.  0.
        -24    2    3    3    0    0  0.36386901872E+02 -0.10442791743E+03 -0.52698304431E+03  0.54441843252E+03  0.80318765637E+02 0.  0.
          6    2    1    2  501    0 -0.55427518173E+02  0.91882672343E+02  0.15744534819E+03  0.25644972615E+03  0.17164728116E+03 0.  0.
         24    2    5    5    0    0 -0.11535058882E+01  0.30600091177E+02  0.74161502904E+01  0.85475829352E+02  0.79457044762E+02 0.  0.
          5    1    5    5  501    0 -0.54274012285E+02  0.61282581165E+02  0.15002919790E+03  0.17097389680E+03  0.47000000000E+01 0. -1.
        -13    1    6    6    0    0 -0.28797797118E+01 -0.13421188116E+02  0.32146210993E+02  0.34954260153E+02  0.00000000000E+00 0.  1.
         14    1    6    6    0    0  0.17262738235E+01  0.44021279293E+02 -0.24730060703E+02  0.50521569199E+02  0.00000000000E+00 0. -1.
         -5    1    3    3    0  503  0.19040616301E+02  0.12545245090E+02 -0.42218243279E+01  0.23660981470E+02  0.47000000000E+01 0.  1.
         13    1    4    4    0    0  0.14447841239E+02  0.22392695159E+01 -0.14865731733E+02  0.20850525758E+02  0.00000000000E+00 0. -1.
        -14    1    4    4    0    0  0.21939060633E+02 -0.10666718695E+03 -0.51211731257E+03  0.52356790676E+03  0.00000000000E+00 0.  1.
</event>
<event>
12    1  0.8133495E-002  0.2384082E+03  0.7818608E-02  0.1120903E+00
         21   -1    0    0  503  502  0.00000000000E+00  0.00000000000E+00  0.10695970494E+03  0.10695970494E+03  0.00000000000E+00 0.  1.
         21   -1    0    0  501  503 -0.00000000000E+00 -0.00000000000E+00 -0.15688370059E+04  0.15688370059E+04  0.00000000000E+00 0.  1.
          6    2    1    2  501    0  0.15100489173E+03  0.69752330168E+02 -0.14123664595E+04  0.14323017341E+04  0.17041530603E+03 0.  0.
         24    2    3    3    0    0  0.14494416538E+03  0.87044863725E+02 -0.13912682797E+04  0.14039647033E+04  0.83089365214E+02 0.  0.
         -6    2    1    2    0  502 -0.15100489173E+03 -0.69752330168E+02 -0.49510841467E+02  0.24349497681E+03  0.17079407313E+03 0.  0.
        -24    2    5    5    0    0 -0.94293819764E+02 -0.87062643774E+02  0.19173708735E+02  0.15263546945E+03  0.80366205836E+02 0.  0.
          5    1    3    3  501    0  0.60607263513E+01 -0.17292533557E+02 -0.21098179789E+02  0.28337030739E+02  0.47000000000E+01 0. -1.
        -13    1    4    4    0    0  0.25677098050E+02  0.61095608980E+02 -0.47320414579E+03  0.47782230001E+03  0.00000000000E+00 0.  1.
         14    1    4    4    0    0  0.11926706733E+03  0.25949254745E+02 -0.91806413394E+03  0.92614240330E+03  0.00000000000E+00 0. -1.
         -5    1    5    5    0  502 -0.56711071970E+02  0.17310313606E+02 -0.68684550202E+02  0.90859507359E+02  0.47000000000E+01 0.  1.
         13    1    6    6    0    0 -0.41349567768E+02 -0.86425247114E+02 -0.14340286540E+01  0.95818403929E+02  0.00000000000E+00 0. -1.
        -14    1    6    6    0    0 -0.52944251996E+02 -0.63739666004E+00  0.20607737389E+02  0.56817065520E+02  0.00000000000E+00 0.  1.
</event>
<event>
12    1  0.8133495E-002  0.2222523E+03  0.7818608E-02  0.1132574E+00
         21   -1    0    0  503  502  0.00000000000E+00  0.00000000000E+00  0.10611423757E+04  0.10611423757E+04  0.00000000000E+00 0.  1.
         21   -1    0    0  501  503 -0.00000000000E+00 -0.00000000000E+00 -0.75875897731E+02  0.75875897731E+02  0.00000000000E+00 0.  1.
          6    2    1    2  501    0 -0.11276615070E+03 -0.78150702000E+02  0.13807626283E+03  0.26165080943E+03  0.17484952031E+03 0.  0.
         24    2    3    3    0    0 -0.13488299962E+03 -0.56791927510E+02  0.15413714529E+03  0.22664517847E+03  0.78683103318E+02 0.  0.
         -6    2    1    2    0  502  0.11276615070E+03  0.78150702000E+02  0.84719021517E+03  0.87536746402E+03  0.17237517058E+03 0.  0.
        -24    2    5    5    0    0  0.13948657042E+03  0.61570752897E+02  0.54387685463E+03  0.57039212040E+03  0.79357904867E+02 0.  0.
          5    1    3    3  501    0  0.22116848921E+02 -0.21358774490E+02 -0.16060882461E+02  0.35005630966E+02  0.47000000000E+01 0. -1.
        -13    1    4    4    0    0 -0.77889039132E+02 -0.40981385742E+01  0.11695827979E+03  0.14057999988E+03  0.00000000000E+00 0.  1.
         14    1    4    4    0    0 -0.56993960487E+02 -0.52693788936E+02  0.37178865503E+02  0.86065178583E+02  0.00000000000E+00 0. -1.
         -5    1    5    5    0  502 -0.26720419726E+02  0.16579949103E+02  0.30331336053E+03  0.30497534363E+03  0.47000000000E+01 0.  1.
         13    1    6    6    0    0  0.36083303258E+02  0.51509295490E+02  0.14200013715E+03  0.15530373868E+03  0.00000000000E+00 0. -1.
        -14    1    6    6    0    0  0.10340326717E+03  0.10061457407E+02  0.40187671748E+03  0.41508838172E+03  0.00000000000E+00 0.  1.
</event>
<event>
12    1  0.8133495E-002  0.1852642E+03  0.7818608E-02  0.1163032E+00
         21   -1    0    0  501  502  0.00000000000E+00  0.00000000000E+00  0.45335169194E+03  0.45335169194E+03  0.00000000000E+00 0. -1.
         21   -1    0    0  502  503 -0.00000000000E+00 -0.00000000000E+00 -0.12814158365E+03  0.12814158365E+03  0.00000000000E+00 0. -1.
         -6    2    1    2    0  503 -0.28411767536E+02  0.63248551249E+02 -0.24334812438E+02  0.18588682813E+03  0.17074578181E+03 0.  0.
        -24    2    3    3    0    0 -0.74484549807E+02  0.36255167203E+02 -0.51827318638E+02  0.12564338910E+03  0.78979775631E+02 0.  0.
          6    2    1    2  501    0  0.28411767536E+02 -0.63248551249E+02  0.34954492073E+03  0.39560644747E+03  0.17179988912E+03 0.  0.
         24    2    5    5    0    0 -0.34354239991E+02 -0.49261382879E+02  0.11262354059E+03  0.15006817561E+03  0.78927167616E+02 0.  0.
          5    1    5    5  501    0  0.62766007527E+02 -0.13987168370E+02  0.23692138013E+03  0.24553827185E+03  0.47000000000E+01 0. -1.
        -11    1    6    6    0    0  0.11604429984E+02  0.15373357059E+02  0.15821692756E+02  0.24926469147E+02  0.00000000000E+00 0.  1.
         12    1    6    6    0    0 -0.45958669974E+02 -0.64634739938E+02  0.96801847839E+02  0.12514170647E+03  0.00000000000E+00 0. -1.
         -5    1    3    3    0  503  0.46072782271E+02  0.26993384046E+02  0.27492506199E+02  0.60243439025E+02  0.47000000000E+01 0.  1.
         11    1    4    4    0    0 -0.53536657515E+02 -0.17801974621E+02 -0.23474534653E+02  0.61107591799E+02  0.00000000000E+00 0. -1.
        -12    1    4    4    0    0 -0.20947892292E+02  0.54057141824E+02 -0.28352783984E+02  0.64535797301E+02  0.00000000000E+00 0.  1.
</event>
<event>
12    1  0.8133495E-002  0.1965198E+03  0.7818608E-02  0.1152894E+00
         21   -1    0    0  501  502  0.00000000000E+00  0.00000000000E+00  0.91882807069E+03  0.91882807069E+03  0.00000000000E+00 0.  1.
         21   -1    0    0  502  503 -0.00000000000E+00 -0.00000000000E+00 -0.50134108897E+02  0.50134108897E+02  0.00000000000E+00 0. -1.
         -6    2    1    2    0  503 -0.90441314698E+02  0.27433614184E+02  0.23818982417E+03  0.30879513235E+03  0.17230149979E+03 0.  0.
        -24    2    3    3    0    0 -0.37543709072E+02 -0.47890131496E+02  0.15484212457E+03  0.18453430838E+03  0.79836286499E+02 0.  0.
          6    2    1    2  501    0  0.90441314698E+02 -0.27433614184E+02  0.63050413762E+03  0.66016704724E+03  0.17132667076E+03 0.  0.
         24    2    5    5    0    0  0.22451268010E+02 -0.18018002271E+02  0.54160885471E+03  0.54775814404E+03  0.76616741074E+02 0.  0.
          5    1    5    5  501    0  0.67990046688E+02 -0.94156119136E+01  0.88895282908E+02  0.11240890320E+03  0.47000000000E+01 0. -1.
        -11    1    6    6    0    0  0.14280772259E+02  0.24947551913E+02  0.35194590709E+03  0.35311788728E+03  0.00000000000E+00 0.  1.
         12    1    6    6    0    0  0.81704957512E+01 -0.42965554184E+02  0.18966294763E+03  0.19464025675E+03  0.00000000000E+00 0. -1.
         -5    1    3    3    0  503 -0.52897605626E+02  0.75323745681E+02  0.83347699604E+02  0.12426082397E+03  0.47000000000E+01 0.  1.
         13    1    4    4    0    0 -0.17070056560E+02  0.20100593001E+01 -0.32516554988E+01  0.17492868056E+02  0.00000000000E+00 0. -1.
        -14    1    4    4    0    0 -0.20473652512E+02 -0.49900190796E+02  0.15809378007E+03  0.16704144032E+03  0.00000000000E+00 0.  1.
</event>
<event>
12    1  0.8133495E-002  0.3965676E+03  0.7818608E-02  0.1044991E+00
         21   -1    0    0  501  502  0.00000000000E+00  0.00000000000E+00  0.54428554580E+03  0.54428554580E+03  0.00000000000E+00 0. -1.
         21   -1    0    0  502  503 -0.00000000000E+00 -0.00000000000E+00 -0.29623569129E+03  0.29623569129E+03  0.00000000000E+00 0.  1.
         -6    2    1    2    0  503  0.29856669799E+02  0.35623178177E+03  0.57430483697E+02  0.40051942861E+03  0.17124558144E+03 0.  0.
        -24    2    3    3    0    0 -0.26141020340E+02  0.29721562890E+03  0.72084953469E+02  0.31772153561E+03  0.82038104990E+02 0.  0.
          6    2    1    2  501    0 -0.29856669799E+02 -0.35623178177E+03  0.19061937081E+03  0.44000180848E+03  0.17167802382E+03 0.  0.
         24    2    5    5    0    0 -0.55673560863E+02 -0.16412411458E+03  0.15105840625E+03  0.24211540780E+03  0.75927322025E+02 0.  0.
          5    1    5    5  501    0  0.25816891065E+02 -0.19210766719E+03  0.39560964564E+02  0.19788640068E+03  0.47000000000E+01 0. -1.
        -13    1    6    6    0    0 -0.10396916560E+02 -0.12740393976E+03  0.82569672587E+02  0.15217624838E+03  0.00000000000E+00 0.  1.
         14    1    6    6    0    0 -0.45276644304E+02 -0.36720174818E+02  0.68488733662E+02  0.89939159417E+02  0.00000000000E+00 0. -1.
         -5    1    3    3    0  503  0.55997690139E+02  0.59016152872E+02 -0.14654469772E+02  0.82797892998E+02  0.47000000000E+01 0.  1.
         11    1    4    4    0    0  0.17815202196E+02  0.16491111236E+03  0.64918741382E+02  0.17812214739E+03  0.00000000000E+00 0. -1.
        -12    1    4    4    0    0 -0.43956222536E+02  0.13230451654E+03  0.71662120867E+01  0.13959938822E+03  0.00000000000E+00 0.  1.
</event>
<event>
12    1  0.8133495E-002  0.2114348E+03  0.7818608E-02  0.1140606E+00
         21   -1    0    0  501  502  0.00000000000E+00  0.00000000000E+00  0.47954642956E+02  0.47954642956E+02  0.00000000000E+00 0. -1.
         21   -1    0    0  502  503 -0.00000000000E+00 -0.00000000000E+00 -0.10419294801E+04  0.10419294801E+04  0.00000000000E+00 0. -1.
         -6    2    1    2    0  503  0.11214456535E+03  0.48849952566E+02 -0.67595422438E+03  0.70799174745E+03  0.17139276413E+03 0.  0.
        -24    2    3    3    0    0  0.36891589816E+02 -0.13135059071E+01 -0.52079626319E+03  0.52833800880E+03  0.80929531602E+02 0.  0.
          6    2    1    2  501    0 -0.11214456535E+03 -0.48849952566E+02 -0.31802061277E+03  0.38189237561E+03  0.17245856024E+03 0.  0.
         24    2    5    5    0    0 -0.76067720252E+02 -0.42975825254E+02 -0.32417087554E+03  0.34452982945E+03  0.77335808048E+02 0.  0.
          5    1    5    5  501    0 -0.36076845095E+02 -0.58741273115E+01  0.61502627753E+01  0.37362546165E+02  0.47000000000E+01 0. -1.
        -13    1    6    6    0    0  0.12365328016E+02 -0.19564044331E+02 -0.94922694104E+02  0.97703485217E+02  0.00000000000E+00 0.  1.
         14    1    6    6    0    0 -0.88433048268E+02 -0.23411780923E+02 -0.22924818144E+03  0.24682634423E+03  0.00000000000E+00 0. -1.
         -5    1    3    3    0  503  0.75252975532E+02  0.50163458473E+02 -0.15515796118E+03  0.17965373865E+03  0.47000000000E+01 0.  1.
         13    1    4    4    0    0  0.62216761140E+02 -0.57603760417E+01 -0.39841315541E+03  0.40328296481E+03  0.00000000000E+00 0. -1.
        -14    1    4    4    0    0 -0.25325171324E+02  0.44468701346E+01 -0.12238310778E+03  0.12505504399E+03  0.00000000000E+00 0.  1.
</event>
<event>
12    1  0.8133495E-002  0.2011620E+03  0.7818608E-02  0.1148967E+00
         21   -1    0    0  501  502  0.00000000000E+00  0.00000000000E+00  0.20905942498E+03  0.20905942498E+03  0.00000000000E+00 0.  1.
         21   -1    0    0  502  503 -0.00000000000E+00 -0.00000000000E+00 -0.20171651280E+03  0.20171651280E+03  0.00000000000E+00 0.  1.
         -6    2    1    2    0  503 -0.90567726127E+02 -0.51673757501E+02 -0.39920801814E+02  0.20508486274E+03  0.17202744048E+03 0.  0.
        -24    2    3    3    0    0 -0.46382114735E+02 -0.54149156236E+02  0.38027312486E+02  0.11532688607E+03  0.82284764495E+02 0.  0.
          6    2    1    2  501    0  0.90567726127E+02  0.51673757501E+02  0.47263714000E+02  0.20569107504E+03  0.17088671528E+03 0.  0.
         24    2    5    5    0    0 -0.19207807954E+02  0.39369102700E+02  0.17156786679E+02  0.91102290745E+02  0.78015421014E+02 0.  0.
          5    1    5    5  501    0  0.10977553408E+03  0.12304654801E+02  0.30106927322E+02  0.11458878429E+03  0.47000000000E+01 0. -1.
        -13    1    6    6    0    0  0.13721252392E+02  0.10944293080E+02 -0.24986873758E+02  0.30535130235E+02  0.00000000000E+00 0.  1.
         14    1    6    6    0    0 -0.32929060347E+02  0.28424809620E+02  0.42143660437E+02  0.60567160510E+02  0.00000000000E+00 0. -1.
         -5    1    3    3    0  503 -0.44185611392E+02  0.24753987348E+01 -0.77948114300E+02  0.89757976670E+02  0.47000000000E+01 0.  1.
         13    1    4    4    0    0  0.22357295466E+02 -0.26571846634E+02  0.10013957455E+02  0.36141265031E+02  0.00000000000E+00 0. -1.
        -14    1    4    4    0    0 -0.68739410201E+02 -0.27577309602E+02  0.28013355031E+02  0.79185621042E+02  0.00000000000E+00 0.  1.
</event>
<event>
12    1  0.8133495E-002  0.2175968E+03  0.7818608E-02  0.1135885E+00
         21   -1    0    0  503  502  0.00000000000E+00  0.00000000000E+00  0.24578417100E+03  0.24578417100E+03  0.00000000000E+00 0.  1.
         21   -1    0    0  501  503 -0.00000000000E+00 -0.00000000000E+00 -0.29071750114E+03  0.29071750114E+03  0.00000000000E+00 0.  1.
          6    2    1    2  501    0 -0.16304609340E+01 -0.13092348171E+03 -0.17896793481E+03  0.28093634885E+03  0.17248795306E+03 0.  0.
         24    2    3    3    0    0  0.48540826124E+02 -0.10211852361E+03 -0.17442099389E+03  0.22271566242E+03  0.79969860040E+02 0.  0.
         -6    2    1    2    0  502  0.16304609340E+01  0.13092348171E+03  0.13403460467E+03  0.25556532329E+03  0.17379511717E+03 0.  0.
        -24    2    5    5    0    0 -0.54858313594E+02  0.47178331023E+02  0.28430675023E+02  0.10935139827E+03  0.76903807017E+02 0.  0.
          5    1    3    3  501    0 -0.50171287058E+02 -0.28804958098E+02 -0.45469409209E+01  0.58220686425E+02  0.47000000000E+01 0. -1.
        -13    1    4    4    0    0 -0.90051407570E+01 -0.73633808484E+02 -0.89308005650E+02  0.11609888107E+03  0.00000000000E+00 0.  1.
         14    1    4    4    0    0  0.57545966881E+02 -0.28484715129E+02 -0.85112988237E+02  0.10661678136E+03  0.00000000000E+00 0. -1.
         -5    1    5    5    0  502  0.56488774528E+02  0.83745150688E+02  0.10560392965E+03  0.14621392502E+03  0.47000000000E+01 0.  1.
         11    1    6    6    0    0 -0.40990123788E+02 -0.30061281994E+01  0.38506145787E+02  0.56320070297E+02  0.00000000000E+00 0. -1.
        -12    1    6    6    0    0 -0.13868189806E+02  0.50184459222E+02 -0.10075470763E+02  0.53031327977E+02  0.00000000000E+00 0.  1.
</event>
<event>
12    1  0.8133495E-002  0.2679957E+03  0.7818608E-02  0.1102481E+00
         21   -1    0    0  503  502  0.00000000000E+00  0.00000000000E+00  0.22118791813E+03  0.22118791813E+03  0.00000000000E+00 0. -1.
         21   -1    0    0  501  503 -0.00000000000E+00 -0.00000000000E+00 -0.72097279800E+03  0.72097279800E+03  0.00000000000E+00 0. -1.
          6    2    1    2  501    0  0.45468972170E+02  0.20018569482E+03 -0.59924468939E+03  0.65630420479E+03  0.17175351998E+03 0.  0.
         24    2    3    3    0    0 -0.30886528378E+01  0.13612730982E+03 -0.51964607548E+03  0.54308164091E+03  0.79783711845E+02 0.  0.
         -6    2    1    2    0  502 -0.45468972170E+02 -0.20018569482E+03  0.99459809514E+02  0.28585651134E+03  0.17227870305E+03 0.  0.
        -24    2    5    5    0    0 -0.82888276477E+02 -0.19465442185E+03  0.10035092434E+03  0.24772931106E+03  0.80862186592E+02 0.  0.
          5    1    3    3  501    0  0.48557625008E+02  0.64058385004E+02 -0.79598613904E+02  0.11322256388E+03  0.47000000000E+01 0. -1.
        -13    1    4    4    0    0 -0.21889018025E+02  0.14996995507E+02 -0.39858418504E+02  0.47882486464E+02  0.00000000000E+00 0.  1.
         14    1    4    4    0    0  0.18800365187E+02  0.12113031431E+03 -0.47978765698E+03  0.49519915445E+03  0.00000000000E+00 0. -1.
         -5    1    5    5    0  502  0.37419304306E+02 -0.55312729785E+01 -0.89111482387E+00  0.38127200280E+02  0.47000000000E+01 0.  1.
         13    1    6    6    0    0  0.67984074210E+01  0.41089460736E+01  0.67665960464E+01  0.10434970213E+02  0.00000000000E+00 0. -1.
        -14    1    6    6    0    0 -0.89686683898E+02 -0.19876336792E+03  0.93584328291E+02  0.23729434084E+03  0.00000000000E+00 0.  1.
</event>
<event>
12    1  0.8133495E-002  0.1964646E+03  0.7818608E-02  0.1152837E+00
         21   -1    0    0  501  502  0.00000000000E+00  0.00000000000E+00  0.11569131169E+03  0.11569131169E+03  0.00000000000E+00 0. -1.
         21   -1    0    0  502  503 -0.00000000000E+00 -0.00000000000E+00 -0.33604364966E+03  0.33604364966E+03  0.00000000000E+00 0. -1.
         -6    2    1    2    0  503  0.60774283452E+02 -0.70895388971E+02 -0.13157700853E+03  0.23614410758E+03  0.17242929178E+03 0.  0.
        -24    2    3    3    0    0 -0.22250800978E+01 -0.18424941408E+02 -0.13036510075E+03  0.15401234517E+03  0.79876864761E+02 0.  0.
          6    2    1    2  501    0 -0.60774283452E+02  0.70895388971E+02 -0.88775329436E+02  0.21559085377E+03  0.17285452671E+03 0.  0.
         24    2    5    5    0    0 -0.37638195452E+02 -0.10835172111E+02 -0.11059979930E+03  0.12776397481E+03  0.50569585150E+02 0.  0.
          5    1    5    5  501    0 -0.23136088001E+02  0.81730561082E+02  0.21824469864E+02  0.87826878958E+02  0.47000000000E+01 0. -1.
        -11    1    6    6    0    0 -0.17691751961E+02  0.19135020174E+02 -0.31686856806E+02  0.41026868986E+02  0.00000000000E+00 0.  1.
         12    1    6    6    0    0 -0.19946443491E+02 -0.29970192285E+02 -0.78912942494E+02  0.86737105823E+02  0.00000000000E+00 0. -1.
         -5    1    3    3    0  503  0.62999363550E+02 -0.52470447562E+02 -0.12119077770E+01  0.82131762404E+02  0.47000000000E+01 0.  1.
         11    1    4    4    0    0  0.34841181613E+02 -0.17099086201E+02 -0.95595090657E+02  0.10317319440E+03  0.00000000000E+00 0. -1.
        -12    1    4    4    0    0 -0.37066261711E+02 -0.13258552072E+01 -0.34770010097E+02  0.50839150774E+02  0.00000000000E+00 0.  1.
</event>
<event>
12    1  0.8133495E-002  0.2558052E+03  0.7818608E-02  0.1109915E+00
         21   -1    0    0  501  502  0.00000000000E+00  0.00000000000E+00  0.18314494782E+03  0.18314494782E+03  0.00000000000E+00 0.  1.
         21   -1    0    0  502  503 -0.00000000000E+00 -0.00000000000E+00 -0.65959629457E+03  0.65959629457E+03  0.00000000000E+00 0. -1.
         -6    2    1    2    0  503  0.96329701917E+01 -0.18752055729E+03 -0.52482018628E+03  0.58384291034E+03  0.17372265974E+03 0.  0.
        -24    2    3    3    0    0 -0.30552260723E+02 -0.15277961901E+03 -0.26164184568E+03  0.31531597586E+03  0.81808658499E+02 0.  0.
          6    2    1    2  501    0 -0.96329701917E+01  0.18752055729E+03  0.48368839526E+02  0.25889833205E+03  0.17155771093E+03 0.  0.
         24    2    5    5    0    0 -0.42669123844E+02  0.15432905715E+03 -0.14091409517E+02  0.18069068639E+03  0.82537532753E+02 0.  0.
          5    1    5    5  501    0  0.33036153652E+02  0.33191500136E+02  0.62460249042E+02  0.78207645661E+02  0.47000000000E+01 0. -1.
        -13    1    6    6    0    0 -0.13307122405E+02  0.38616496793E+02  0.32847559442E+02  0.52414458812E+02  0.00000000000E+00 0.  1.
         14    1    6    6    0    0 -0.29362001439E+02  0.11571256036E+03 -0.46938968958E+02  0.12827622757E+03  0.00000000000E+00 0. -1.
         -5    1    3    3    0  503  0.40185230915E+02 -0.34740938278E+02 -0.26317834061E+03  0.26852693448E+03  0.47000000000E+01 0.  1.
         13    1    4    4    0    0 -0.47385610438E+01 -0.86363075932E+02 -0.21058556359E+03  0.22765613200E+03  0.00000000000E+00 0. -1.
        -14    1    4    4    0    0 -0.25813699679E+02 -0.66416543081E+02 -0.51056282091E+02  0.87659843867E+02  0.00000000000E+00 0.  1.
</event>
<event>
12    1  0.8133495E-002  0.1977425E+03  0.7818608E-02  0.1151819E+00
         21   -1    0    0  503  502  0.00000000000E+00  0.00000000000E+00  0.45716634611E+03  0.45716634611E+03  0.00000000000E+00 0.  1.
         21   -1    0    0  501  503 -0.00000000000E+00 -0.00000000000E+00 -0.14414216767E+03  0.14414216767E+03  0.00000000000E+00 0.  1.
          6    2    1    2  501    0  0.97487281682E+02 -0.30393376226E+01 -0.35910493278E+02  0.20023804557E+03  0.17115111365E+03 0.  0.
         24    2    3    3    0    0  0.70230151399E+02 -0.63246261866E+02  0.19854073494E+01  0.12390971424E+03  0.80108124658E+02 0.  0.
         -6    2    1    2    0  502 -0.97487281682E+02  0.30393376226E+01  0.34893467172E+03  0.40107046821E+03  0.17201484726E+03 0.  0.
        -24    2    5    5    0    0  0.15100743575E+02 -0.92722219519E+01  0.11100984453E+03  0.13752170361E+03  0.79215066899E+02 0.  0.
          5    1    3    3  501    0  0.27257130283E+02  0.60206924244E+02 -0.37895900627E+02  0.76328331323E+02  0.47000000000E+01 0. -1.
        -13    1    4    4    0    0  0.32808236669E+02 -0.48098526213E+02 -0.36019904462E+02  0.68463728606E+02  0.00000000000E+00 0.  1.
         14    1    4    4    0    0  0.37421914730E+02 -0.15147735653E+02  0.38005311812E+02  0.55445985638E+02  0.00000000000E+00 0. -1.
         -5    1    5    5    0  502 -0.11258802526E+03  0.12311559575E+02  0.23792482719E+03  0.26354876461E+03  0.47000000000E+01 0.  1.
         11    1    6    6    0    0 -0.39258324056E+01 -0.40164373429E+02  0.80769951064E+02  0.90290498104E+02  0.00000000000E+00 0. -1.
        -12    1    6    6    0    0  0.19026575980E+02  0.30892151477E+02  0.30239893466E+02  0.47231205503E+02  0.00000000000E+00 0.  1.
</event>
<event>
12    1  0.8133495E-002  0.2014672E+03  0.7818608E-02  0.1148824E+00
         21   -1    0    0  503  502  0.00000000000E+00  0.00000000000E+00  0.18377250317E+03  0.18377250317E+03  0.00000000000E+00 0. -1.
         21   -1    0    0  501  503 -0.00000000000E+00 -0.00000000000E+00 -0.24291179648E+03  0.24291179648E+03  0.00000000000E+00 0.  1.
          6    2    1    2  501    0  0.31436661819E+01 -0.10219214460E+03 -0.96105241263E+02  0.22185382428E+03  0.17184232568E+03 0.  0.
         24    2    3    3    0    0  0.10014206964E+02 -0.13363480368E+03 -0.10559386750E+03  0.18797213057E+03  0.78898111022E+02 0.  0.
         -6    2    1    2    0  502 -0.31436661819E+01  0.10219214460E+03  0.36965947953E+02  0.20483047536E+03  0.17359701978E+03 0.  0.
        -24    2    5    5    0    0 -0.47835852151E+02  0.78409976903E+02  0.73734950454E+02  0.14208469836E+03  0.79465875448E+02 0.  0.
          5    1    3    3  501    0 -0.68705407823E+01  0.31442659080E+02  0.94886262380E+01  0.33881693708E+02  0.47000000000E+01 0. -1.
        -11    1    4    4    0    0  0.23851654106E+01 -0.69700556358E+02 -0.10189715732E+03  0.12347828651E+03  0.00000000000E+00 0.  1.
         12    1    4    4    0    0  0.76290415537E+01 -0.63934247320E+02 -0.36967101835E+01  0.64493844060E+02  0.00000000000E+00 0. -1.
         -5    1    5    5    0  502  0.44692185969E+02  0.23782167695E+02 -0.36769002500E+02  0.62745777004E+02  0.47000000000E+01 0.  1.
         11    1    6    6    0    0 -0.58472716290E+01  0.46728307716E+02  0.76031598799E+02  0.89434497502E+02  0.00000000000E+00 0. -1.
        -12    1    6    6    0    0 -0.41988580522E+02  0.31681669187E+02 -0.22966483455E+01  0.52650200858E+02  0.00000000000E+00 0.  1.
</event>
<event>
12    1  0.8133495E-002  0.2327803E+03  0.7818608E-02  0.1124776E+00
         21   -1    0    0  503  502  0.00000000000E+00  0.00000000000E+00  0.22955854373E+04  0.22955854373E+04  0.00000000000E+00 0.  1.
         21   -1    0    0  501  503 -0.00000000000E+00 -0.00000000000E+00 -0.23617255343E+02  0.23617255343E+02  0.00000000000E+00 0. -1.
          6    2    1    2  501    0 -0.15025586333E+03 -0.43838912353E+02  0.10774174685E+04  0.11021825278E+04  0.17169521959E+03 0.  0.
         24    2    3    3    0    0 -0.10153864618E+03 -0.75607166184E+02  0.95024380362E+03  0.96226176365E+03  0.83413879044E+02 0.  0.
         -6    2    1    2    0  502  0.15025586333E+03  0.43838912353E+02  0.11945507134E+04  0.12170201648E+04  0.17230206017E+03 0.  0.
        -24    2    5    5    0    0  0.13483219828E+03  0.75425231169E+02  0.11308700424E+04  0.11441305027E+04  0.79365403434E+02 0.  0.
          5    1    3    3  501    0 -0.48717217155E+02  0.31768253831E+02  0.12717366490E+03  0.13992076416E+03  0.47000000000E+01 0. -1.
        -11    1    4    4    0    0 -0.79693031422E+02 -0.74585564370E+01  0.50281588520E+03  0.50914676050E+03  0.00000000000E+00 0.  1.
         12    1    4    4    0    0 -0.21845614758E+02 -0.68148609747E+02  0.44742791842E+03  0.45311500315E+03  0.00000000000E+00 0. -1.
         -5    1    5    5    0  502  0.15423665053E+02 -0.31586318815E+02  0.63680671051E+02  0.72889662131E+02  0.47000000000E+01 0.  1.
         11    1    6    6    0    0  0.10797807554E+03  0.91814122990E+02  0.89017594475E+03  0.90138910055E+03  0.00000000000E+00 0. -1.
        -12    1    6    6    0    0  0.26854122744E+02 -0.16388891822E+02  0.24069409763E+03  0.24274140215E+03  0.00000000000E+00 0.  1.
</event>
<event>
12    1  0.8133495E-002  0.2122223E+03  0.7818608E-02  0.1139907E+00
         21   -1    0    0  501  502  0.00000000000E+00  0.00000000000E+00  0.27626886435E+03  0.27626886435E+03  0.00000000000E+00 0. -1.
         21   -1    0    0  502  503 -0.00000000000E+00 -0.00000000000E+00 -0.16924561502E+03  0.16924561502E+03  0.00000000000E+00 0. -1.
         -6    2    1    2    0  503  0.12487060218E+03 -0.92006746268E+01  0.95590428553E+01  0.21198170506E+03  0.17078509383E+03 0.  0.
        -24    2    3    3    0    0  0.50114206769E+02  0.41032848646E+02 -0.37701889343E+02  0.11016023764E+03  0.80738572617E+02 0.  0.
          6    2    1    2  501    0 -0.12487060218E+03  0.92006746268E+01  0.97464206474E+02  0.23353277432E+03  0.17135041708E+03 0.  0.
         24    2    5    5    0    0 -0.53655715099E+02  0.58513499801E+02  0.96585326426E+02  0.14677923088E+03  0.76893770327E+02 0.  0.
          5    1    5    5  501    0 -0.71214887083E+02 -0.49312825174E+02  0.87888004815E+00  0.86753543438E+02  0.47000000000E+01 0. -1.
        -11    1    6    6    0    0  0.12845813155E+02  0.16694533622E+02 -0.14940179048E+01  0.21117633816E+02  0.00000000000E+00 0.  1.
         12    1    6    6    0    0 -0.66501528254E+02  0.41818966179E+02  0.98079344331E+02  0.12566159706E+03  0.00000000000E+00 0. -1.
         -5    1    3    3    0  503  0.74756395413E+02 -0.50233523273E+02  0.47260932198E+02  0.10182146742E+03  0.47000000000E+01 0.  1.
         11    1    4    4    0    0 -0.21453270776E+02  0.98236106911E+00 -0.87085185413E+01  0.23174256308E+02  0.00000000000E+00 0. -1.
        -12    1    4    4    0    0  0.71567477545E+02  0.40050487577E+02 -0.28993370802E+02  0.86985981329E+02  0.00000000000E+00 0.  1.
</event>
<event>
12    1  0.8133495E-002  0.2109202E+03  0.7818608E-02  0.1142932E+00
         21   -1    0    0  503  502  0.00000000000E+00  0.00000000000E+00  0.12827944241E+03  0.12827944241E+03  0.00000000000E+00 0.  1.
         21   -1    0    0  501  503 -0.00000000000E+00 -0.00000000000E+00 -0.33067627287E+03  0.33067627287E+03  0.00000000000E+00 0. -1.
          6    2    1    2  501    0 -0.85764007612E+02 -0.55811763381E+02 -0.93343496866E+02  0.23065196655E+03  0.18443671904E+03 0.  0.
         24    2    3    3    0    0 -0.63599895945E+02 -0.90827949354E+02 -0.78561918688E+01  0.13553335406E+03  0.77542937550E+02 0.  0.
         -6    2    1    2    0  502  0.85764007612E+02  0.55811763381E+02 -0.10905333359E+03  0.22830374873E+03  0.17250957708E+03 0.  0.
        -24    2    5    5    0    0  0.20344422578E+02  0.40086445970E+02  0.11677032450E+02  0.90010874736E+02  0.77102437078E+02 0.  0.
          5    1    3    3  501    0 -0.22164111667E+02  0.35016185973E+02 -0.85487304997E+02  0.95118612488E+02  0.47000000000E+01 0. -1.
        -11    1    4    4    0    0  0.13217142358E+02 -0.30215475773E+02 -0.17275471323E+02  0.37230494728E+02  0.00000000000E+00 0.  1.
         12    1    4    4    0    0 -0.76817038302E+02 -0.60612473581E+02  0.94192794538E+01  0.98302859331E+02  0.00000000000E+00 0. -1.
         -5    1    5    5    0  502  0.65419585034E+02  0.15725317411E+02 -0.12073036604E+03  0.13829287400E+03  0.47000000000E+01 0.  1.
         13    1    6    6    0    0 -0.26210072028E+02  0.25406924466E+02  0.18155391463E+02  0.40768835226E+02  0.00000000000E+00 0. -1.
        -14    1    6    6    0    0  0.46554494606E+02  0.14679521504E+02 -0.64783590135E+01  0.49242039510E+02  0.00000000000E+00 0.  1.
</event>
<event>
12    1  0.8133495E-002  0.2240997E+03  0.7818608E-02  0.1133080E+00
         21   -1    0    0  503  502  0.00000000000E+00  0.00000000000E+00  0.22078459863E+03  0.22078459863E+03  0.00000000000E+00 0.  1.
         21   -1    0    0  501  503 -0.00000000000E+00 -0.00000000000E+00 -0.22662752210E+03  0.22662752210E+03  0.00000000000E+00 0.  1.
          6    2    1    2  501    0  0.14274679221E+03  0.23660327544E+02 -0.52155565112E+02  0.21857693890E+03  0.15530362989E+03 0.  0.
         24    2    3    3    0    0  0.11101551756E+03  0.65976091997E+01  0.19579771601E+02  0.13816513204E+03  0.79613206624E+02 0.  0.
         -6    2    1    2    0  502 -0.14274679221E+03 -0.23660327544E+02  0.46312641637E+02  0.22883518183E+03  0.17112633310E+03 0.  0.
        -24    2    5    5    0    0 -0.43355369347E+02 -0.15150838432E+02  0.81122057499E+02  0.12307672223E+03  0.80360782629E+02 0.  0.
          5    1    3    3  501    0  0.31731274650E+02  0.17062718345E+02 -0.71735336713E+02  0.80411806854E+02  0.47000000000E+01 0. -1.
        -11    1    4    4    0    0  0.71799357868E+02 -0.33286397192E+02  0.22120234191E+02  0.82173212113E+02  0.00000000000E+00 0.  1.
         12    1    4    4    0    0  0.39216159697E+02  0.39884006391E+02 -0.25404625897E+01  0.55991919929E+02  0.00000000000E+00 0. -1.
         -5    1    5    5    0  502 -0.99391422868E+02 -0.85094891126E+01 -0.34809415862E+02  0.10575845960E+03  0.47000000000E+01 0.  1.
         13    1    6    6    0    0  0.12364455872E+02  0.22209787819E+02  0.24174182237E+02  0.35079132412E+02  0.00000000000E+00 0. -1.
        -14    1    6    6    0    0 -0.55719825219E+02 -0.37360626250E+02  0.56947875262E+02  0.87997589814E+02  0.00000000000E+00 0.  1.
</event>
<event>
12    1  0.8133495E-002  0.1804758E+03  0.7818608E-02  0.1167472E+00
         21   -1    0    0  503  502  0.00000000000E+00  0.00000000000E+00  0.89563450668E+03  0.89563450668E+03  0.00000000000E+00 0.  1.
         21   -1    0    0  501  503 -0.00000000000E+00 -0.00000000000E+00 -0.20168909934E+03  0.20168909934E+03  0.00000000000E+00 0.  1.
          6    2    1    2  501    0  0.55956569562E+02  0.14767586105E+02 -0.14983590776E+03  0.23456838754E+03  0.17094534186E+03 0.  0.
         24    2    3    3    0    0  0.20589435562E+02 -0.28479478455E+02 -0.20618460183E+02  0.93712498352E+02  0.84391385207E+02 0.  0.
         -6    2    1    2    0  502 -0.55956569562E+02 -0.14767586105E+02  0.84378131511E+03  0.86275521847E+03  0.17038321516E+03 0.  0.
        -24    2    5    5    0    0 -0.97962420146E+02 -0.83207660046E+01  0.47921353377E+03  0.49568872564E+03  0.79973938709E+02 0.  0.
          5    1    3    3  501    0  0.35367134000E+02  0.43247064560E+02 -0.12921744758E+03  0.14085588919E+03  0.47000000000E+01 0. -1.
        -13    1    4    4    0    0  0.52689943358E+02 -0.19449194228E+02 -0.22042764382E+02  0.60335601006E+02  0.00000000000E+00 0.  1.
         14    1    4    4    0    0 -0.32100507796E+02 -0.90302842274E+01  0.14243041996E+01  0.33376897346E+02  0.00000000000E+00 0. -1.
         -5    1    5    5    0  502  0.42005850583E+02 -0.64468201001E+01  0.36456778133E+03  0.36706649283E+03  0.47000000000E+01 0.  1.
         13    1    6    6    0    0 -0.30124065441E+02 -0.40611572978E+02  0.16247201025E+03  0.17015849462E+03  0.00000000000E+00 0. -1.
        -14    1    6    6    0    0 -0.67838354705E+02  0.32290806974E+02  0.31674152352E+03  0.32553023102E+03  0.00000000000E+00 0.  1.
</event>
<event>
12    1  0.8133495E-002  0.2312101E+03  0.7818608E-02  0.1126387E+00
         21   -1    0    0  503  502  0.00000000000E+00  0.00000000000E+00  0.15861843903E+03  0.15861843903E+03  0.00000000000E+00 0.  1.
         21   -1    0    0  501  503 -0.00000000000E+00 -0.00000000000E+00 -0.51475490668E+03  0.51475490668E+03  0.00000000000E+00 0.  1.
          6    2    1    2  501    0  0.83111581054E+02  0.12905678612E+03 -0.37946541035E+03  0.44435583795E+03  0.17290148674E+03 0.  0.
         24    2    3    3    0    0  0.11256007962E+03  0.12740921837E+03 -0.25761477354E+03  0.31889829039E+03  0.80173983433E+02 0.  0.
         -6    2    1    2    0  502 -0.83111581054E+02 -0.12905678612E+03  0.23328942703E+02  0.22901750776E+03  0.16834960750E+03 0.  0.
        -24    2    5    5    0    0 -0.64160358156E+02 -0.24300927263E+02  0.54717328032E+02  0.11793078692E+03  0.78781964259E+02 0.  0.
          5    1    3    3  501    0 -0.29448498569E+02  0.16475677495E+01 -0.12185063681E+03  0.12545754756E+03  0.47000000000E+01 0. -1.
        -13    1    4    4    0    0  0.69815214314E+02  0.12113380181E+03 -0.16208853260E+03  0.21405666187E+03  0.00000000000E+00 0.  1.
         14    1    4    4    0    0  0.42744865308E+02  0.62754165583E+01 -0.95526240935E+02  0.10484162852E+03  0.00000000000E+00 0. -1.
         -5    1    5    5    0  502 -0.18951222897E+02 -0.10475585886E+03 -0.31388385329E+02  0.11108672084E+03  0.47000000000E+01 0.  1.
         13    1    6    6    0    0 -0.32343654232E+02  0.23695297552E+02  0.24603376200E+01  0.40170043021E+02  0.00000000000E+00 0. -1.
        -14    1    6    6    0    0 -0.31816703924E+02 -0.47996224814E+02  0.52256990412E+02  0.77760743901E+02  0.00000000000E+00 0.  1.
</event>
<event>
12    1  0.8133495E-002  0.2049893E+03  0.7818608E-02  0.1145639E+00
         21   -1    0    0  503  502  0.00000000000E+00  0.00000000000E+00  0.11589626980E+04  0.11589626980E+04  0.00000000000E+00 0.  1.
         21   -1    0    0  501  503 -0.00000000000E+00 -0.00000000000E+00 -0.95031702171E+02  0.95031702171E+02  0.00000000000E+00 0.  1.
          6    2    1    2  501    0  0.10629997217E+03  0.38068595975E+02  0.38620816099E+02  0.20839333751E+03  0.17084295010E+03 0.  0.
         24    2    3    3    0    0  0.12107397829E+03  0.74716002560E+02  0.42965210683E+02  0.16836500466E+03  0.79116219622E+02 0.  0.
         -6    2    1    2    0  502 -0.10629997217E+03 -0.38068595975E+02  0.10253101797E+04  0.10456010626E+04  0.17108978784E+03 0.  0.
        -24    2    5    5    0    0 -0.89127373039E+02  0.20876830050E+02  0.51325088228E+03  0.52985279508E+03  0.94540920432E+02 0.  0.
          5    1    3    3  501    0 -0.14774006120E+02 -0.36647406585E+02 -0.43443945850E+01  0.40028332847E+02  0.47000000000E+01 0. -1.
        -11    1    4    4    0    0  0.59997796942E+02 -0.37937222857E+01  0.32518471802E+02  0.68348950065E+02  0.00000000000E+00 0.  1.
         12    1    4    4    0    0  0.61076181348E+02  0.78509724845E+02  0.10446738882E+02  0.10001605459E+03  0.00000000000E+00 0. -1.
         -5    1    5    5    0  502 -0.17172599131E+02 -0.58945426024E+02  0.51205929742E+03  0.51574826755E+03  0.47000000000E+01 0.  1.
         13    1    6    6    0    0  0.14922088617E+02 -0.14936610485E+02  0.67793536569E+02  0.71005173488E+02  0.00000000000E+00 0. -1.
        -14    1    6    6    0    0 -0.10404946166E+03  0.35813440535E+02  0.44545734571E+03  0.45884762159E+03  0.00000000000E+00 0.  1.
</event>
<event>
12    1  0.8133495E-002  0.2258262E+03  0.7818608E-02  0.1130298E+00
         21   -1    0    0  503  502  0.00000000000E+00  0.00000000000E+00  0.38646013864E+03  0.38646013864E+03  0.00000000000E+00 0.  1.
         21   -1    0    0  501  503 -0.00000000000E+00 -0.00000000000E+00 -0.16606192481E+03  0.16606192481E+03  0.00000000000E+00 0. -1.
          6    2    1    2  501    0 -0.12853149240E+01  0.14748828495E+03 -0.19677355250E+02  0.22292572729E+03  0.16599468470E+03 0.  0.
         24    2    3    3    0    0 -0.59606041135E+02  0.58798299953E+02 -0.82314181072E+01  0.11605982992E+03  0.79950032275E+02 0.  0.
         -6    2    1    2    0  502  0.12853149240E+01 -0.14748828495E+03  0.24007556908E+03  0.32959633615E+03  0.17100590546E+03 0.  0.
        -24    2    5    5    0    0  0.99001685639E+01 -0.12267487954E+03  0.25720061316E+03  0.29789021804E+03  0.86251302515E+02 0.  0.
          5    1    3    3  501    0  0.58320726211E+02  0.88689984993E+02 -0.11445937143E+02  0.10686589737E+03  0.47000000000E+01 0. -1.
        -13    1    4    4    0    0  0.88920608639E-01 -0.12284565982E+02 -0.18987266534E+02  0.22614923362E+02  0.00000000000E+00 0.  1.
         14    1    4    4    0    0 -0.59694961743E+02  0.71082865935E+02  0.10755848426E+02  0.93444906562E+02  0.00000000000E+00 0. -1.
         -5    1    5    5    0  502 -0.86148536399E+01 -0.24813405409E+02 -0.17125044078E+02  0.31706118114E+02  0.47000000000E+01 0.  1.
         11    1    6    6    0    0  0.46280513298E+02 -0.85950958668E+02  0.15150868849E+03  0.18023411413E+03  0.00000000000E+00 0. -1.
        -12    1    6    6    0    0 -0.36380344734E+02 -0.36723920869E+02  0.10569192467E+03  0.11765610391E+03  0.00000000000E+00 0.  1.
</event>
<event>
12    1  0.8133495E-002  0.1749714E+03  0.7818608E-02  0.1173169E+00
         21   -1    0    0  503  502  0.00000000000E+00  0.00000000000E+00  0.90778157840E+02  0.90778157840E+02  0.00000000000E+00 0.  1.
         21   -1    0    0  501  503 -0.00000000000E+00 -0.00000000000E+00 -0.47064013184E+03  0.47064013184E+03  0.00000000000E+00 0.  1.
          6    2    1    2  501    0  0.25366380246E+02 -0.48792609409E+01 -0.34173557706E+03  0.38392473205E+03  0.17305413840E+03 0.  0.
         24    2    3    3    0    0  0.31851636892E+02  0.67348939815E+00 -0.35654241820E+03  0.36619836371E+03  0.77225418406E+02 0.  0.
         -6    2    1    2    0  502 -0.25366380246E+02  0.48792609409E+01 -0.38126396945E+02  0.17749355764E+03  0.17141493641E+03 0.  0.
        -24    2    5    5    0    0 -0.48449146496E+02 -0.45340830090E+02 -0.38695439288E+02  0.12202027172E+03  0.94807694939E+02 0.  0.
          5    1    3    3  501    0 -0.64852566458E+01 -0.55527503391E+01  0.14806841137E+02  0.17726368341E+02  0.47000000000E+01 0. -1.
        -11    1    4    4    0    0  0.46631707881E+02 -0.16193216396E+02 -0.31630183873E+03  0.32013058214E+03  0.00000000000E+00 0.  1.
         12    1    4    4    0    0 -0.14780070989E+02  0.16866705794E+02 -0.40240579470E+02  0.46067781571E+02  0.00000000000E+00 0. -1.
         -5    1    5    5    0  502  0.23082766250E+02  0.50220091031E+02  0.56904234301E+00  0.55473285914E+02  0.47000000000E+01 0.  1.
         13    1    6    6    0    0 -0.25343407355E+02 -0.30123594402E+01 -0.63032219617E+02  0.68003112543E+02  0.00000000000E+00 0. -1.
        -14    1    6    6    0    0 -0.23105739141E+02 -0.42328470650E+02  0.24336780329E+02  0.54017159178E+02  0.00000000000E+00 0.  1.
</event>
<event>
12    1  0.8133495E-002  0.2256879E+03  0.7818608E-02  0.1129839E+00
         21   -1    0    0  503  502  0.00000000000E+00  0.00000000000E+00  0.70206805347E+03  0.70206805347E+03  0.00000000000E+00 0.  1.
         21   -1    0    0  501  503 -0.00000000000E+00 -0.00000000000E+00 -0.72908941091E+02  0.72908941091E+02  0.00000000000E+00 0. -1.
          6    2    1    2  501    0  0.38025376263E+02  0.12676833115E+03  0.34877222928E+03  0.41504390592E+03  0.18194294958E+03 0.  0.
         24    2    3    3    0    0  0.41075241466E+02  0.11208437138E+03  0.36514386701E+03  0.39234939393E+03  0.79736575906E+02 0.  0.
         -6    2    1    2    0  502 -0.38025376263E+02 -0.12676833115E+03  0.28038688310E+03  0.35993308864E+03  0.18280832876E+03 0.  0.
        -24    2    5    5    0    0 -0.10815289271E+02 -0.89254341276E+02  0.57300524729E+02  0.13203552051E+03  0.77889156003E+02 0.  0.
          5    1    3    3  501    0 -0.30498652033E+01  0.14683959775E+02 -0.16371637728E+02  0.22694511987E+02  0.47000000000E+01 0. -1.
        -11    1    4    4    0    0  0.12747508774E+02  0.25769186741E+02  0.21461523687E+03  0.21653232983E+03  0.00000000000E+00 0.  1.
         12    1    4    4    0    0  0.28327732693E+02  0.86315184635E+02  0.15052863014E+03  0.17581706410E+03  0.00000000000E+00 0. -1.
         -5    1    5    5    0  502 -0.27210086992E+02 -0.37513989875E+02  0.22308635837E+03  0.22789756814E+03  0.47000000000E+01 0.  1.
         11    1    6    6    0    0 -0.22025499777E+02 -0.97608271408E+02  0.61483703993E+02  0.11744250995E+03  0.00000000000E+00 0. -1.
        -12    1    6    6    0    0  0.11210210506E+02  0.83539301321E+01 -0.41831792637E+01  0.14593010553E+02  0.00000000000E+00 0.  1.
</event>
<event>
12    1  0.8133495E-002  0.2032791E+03  0.7818608E-02  0.1147117E+00
         21   -1    0    0  503  502  0.00000000000E+00  0.00000000000E+00  0.96303442509E+02  0.96303442509E+02  0.00000000000E+00 0.  1.
         21   -1    0    0  501  503 -0.00000000000E+00 -0.00000000000E+00 -0.44982494435E+03  0.44982494435E+03  0.00000000000E+00 0.  1.
          6    2    1    2  501    0  0.35607542510E+02 -0.10174279111E+03 -0.11625043978E+03  0.23368648139E+03  0.17168492715E+03 0.  0.
         24    2    3    3    0    0 -0.84276132464E+01 -0.56753228585E+02  0.51155161093E+01  0.96883919545E+02  0.77899754438E+02 0.  0.
         -6    2    1    2    0  502 -0.35607542510E+02  0.10174279111E+03 -0.23727106206E+03  0.31244190547E+03  0.17234527778E+03 0.  0.
        -24    2    5    5    0    0 -0.47720707879E+02  0.12042946833E+03 -0.14491937900E+03  0.21732700630E+03  0.97205341685E+02 0.  0.
          5    1    3    3  501    0  0.44035155756E+02 -0.44989562527E+02 -0.12136595589E+03  0.13680256185E+03  0.47000000000E+01 0. -1.
        -11    1    4    4    0    0 -0.31247512395E+01 -0.76270594450E+02  0.65054502504E+01  0.76611282009E+02  0.00000000000E+00 0.  1.
         12    1    4    4    0    0 -0.53028620069E+01  0.19517365865E+02 -0.13899341411E+01  0.20272637536E+02  0.00000000000E+00 0. -1.
         -5    1    5    5    0  502  0.12113165370E+02 -0.18686677220E+02 -0.92351683057E+02  0.95114899170E+02  0.47000000000E+01 0.  1.
         13    1    6    6    0    0 -0.50407766308E+02  0.73351846939E+02 -0.31358440372E+02  0.94365184979E+02  0.00000000000E+00 0. -1.
        -14    1    6    6    0    0  0.26870584286E+01  0.47077621393E+02 -0.11356093863E+03  0.12296182132E+03  0.00000000000E+00 0.  1.
</event>
<event>
12    1  0.8133495E-002  0.2228628E+03  0.7818608E-02  0.1131941E+00
         21   -1    0    0  501  502  0.00000000000E+00  0.00000000000E+00  0.42197134395E+03  0.42197134395E+03  0.00000000000E+00 0. -1.
         21   -1    0    0  502  503 -0.00000000000E+00 -0.00000000000E+00 -0.14094912713E+03  0.14094912713E+03  0.00000000000E+00 0. -1.
         -6    2    1    2    0  503  0.10892620016E+03 -0.88505637327E+02  0.24738633039E+02  0.22328966507E+03  0.17189563591E+03 0.  0.
        -24    2    3    3    0    0  0.14564268673E+03 -0.75785087507E+02  0.15534292034E+02  0.18308117508E+03  0.79512456591E+02 0.  0.
          6    2    1    2  501    0 -0.10892620016E+03  0.88505637327E+02  0.25628358379E+03  0.33963080601E+03  0.17311742878E+03 0.  0.
         24    2    5    5    0    0 -0.14696710863E+02  0.83317936611E+01  0.47106896601E+02  0.96558762519E+02  0.82577980214E+02 0.  0.
          5    1    5    5  501    0 -0.94229489296E+02  0.80173843665E+02  0.20917668719E+03  0.24307204349E+03  0.47000000000E+01 0. -1.
        -11    1    6    6    0    0 -0.43857299787E+02  0.21137455839E+02  0.14086783925E+02  0.50682267761E+02  0.00000000000E+00 0.  1.
         12    1    6    6    0    0  0.29160588925E+02 -0.12805662178E+02  0.33020112675E+02  0.45876494759E+02  0.00000000000E+00 0. -1.
         -5    1    3    3    0  503 -0.36716486574E+02 -0.12720549820E+02  0.92043410045E+01  0.40208489992E+02  0.47000000000E+01 0.  1.
         11    1    4    4    0    0  0.10955597085E+03 -0.31787422542E+02 -0.20254527987E+02  0.11585852098E+03  0.00000000000E+00 0. -1.
        -12    1    4    4    0    0  0.36086715887E+02 -0.43997664965E+02  0.35788820021E+02  0.67222654101E+02  0.00000000000E+00 0.  1.
</event>
<event>
12    1  0.8133495E-002  0.1749188E+03  0.7818608E-02  0.1174291E+00
         21   -1    0    0  503  502  0.00000000000E+00  0.00000000000E+00  0.47163407697E+03  0.47163407697E+03  0.00000000000E+00 0. -1.
         21   -1    0    0  501  503 -0.00000000000E+00 -0.00000000000E+00 -0.90038346524E+02  0.90038346524E+02  0.00000000000E+00 0. -1.
          6    2    1    2  501    0 -0.11621919581E+02 -0.23210800332E+02  0.38433912113E+02  0.17909147353E+03  0.17298202225E+03 0.  0.
         24    2    3    3    0    0 -0.70959296804E+02 -0.35111661722E+02  0.13568425584E+02  0.11349469573E+03  0.80180379107E+02 0.  0.
         -6    2    1    2    0  502  0.11621919581E+02  0.23210800332E+02  0.34316181833E+03  0.38258094996E+03  0.16713569172E+03 0.  0.
        -24    2    5    5    0    0  0.23580498206E+02  0.50726218749E+01  0.34957491851E+03  0.35944614989E+03  0.80107051101E+02 0.  0.
          5    1    3    3  501    0  0.59337377222E+02  0.11900861390E+02  0.24865486529E+02  0.65596777800E+02  0.47000000000E+01 0. -1.
        -13    1    4    4    0    0 -0.35045997787E+02 -0.56075311543E+02  0.24464812891E+02  0.70506663482E+02  0.00000000000E+00 0.  1.
         14    1    4    4    0    0 -0.35913299016E+02  0.20963649821E+02 -0.10896387307E+02  0.42988032246E+02  0.00000000000E+00 0. -1.
         -5    1    5    5    0  502 -0.11958578625E+02  0.18138178457E+02 -0.64131001746E+01  0.23134800071E+02  0.47000000000E+01 0.  1.
         13    1    6    6    0    0 -0.21170929451E+02 -0.70416919538E+01  0.23184983195E+03  0.23292088411E+03  0.00000000000E+00 0. -1.
        -14    1    6    6    0    0  0.44751427657E+02  0.12114313829E+02  0.11772508656E+03  0.12652526579E+03  0.00000000000E+00 0.  1.
</event>
<event>
12    1  0.8133495E-002  0.2074757E+03  0.7818608E-02  0.1143681E+00
         21   -1    0    0  501  502  0.00000000000E+00  0.00000000000E+00  0.43377064161E+03  0.43377064161E+03  0.00000000000E+00 0. -1.
         21   -1    0    0  502  503 -0.00000000000E+00 -0.00000000000E+00 -0.25602326576E+03  0.25602326576E+03  0.00000000000E+00 0. -1.
         -6    2    1    2    0  503 -0.11499533954E+03  0.34803605935E+01 -0.18127295644E+03  0.27513531111E+03  0.17205671639E+03 0.  0.
        -24    2    3    3    0    0 -0.85204588868E+02  0.55967412163E+01 -0.30923844177E+02  0.12177653747E+03  0.81130114401E+02 0.  0.
          6    2    1    2  501    0  0.11499533954E+03 -0.34803605935E+01  0.35902033230E+03  0.41465859627E+03  0.17265604951E+03 0.  0.
         24    2    5    5    0    0  0.62382200753E+02 -0.27338918795E+02  0.83250075999E+02  0.13286310761E+03  0.77994068733E+02 0.  0.
          5    1    5    5  501    0  0.52613138787E+02  0.23858558201E+02  0.27577025630E+03  0.28179548866E+03  0.47000000000E+01 0. -1.
        -13    1    6    6    0    0  0.49444801691E+01  0.67002476238E+01  0.62347543862E+02  0.62901171913E+02  0.00000000000E+00 0.  1.
         14    1    6    6    0    0  0.57437720584E+02 -0.34039166418E+02  0.20902532137E+02  0.69961935694E+02  0.00000000000E+00 0. -1.
         -5    1    3    3    0  503 -0.29790750673E+02 -0.21163806228E+01 -0.15034911227E+03  0.15335877364E+03  0.47000000000E+01 0.  1.
         11    1    4    4    0    0 -0.78487090102E+02  0.12754257731E+01 -0.55368516420E+02  0.96059994973E+02  0.00000000000E+00 0. -1.
        -12    1    4    4    0    0 -0.67174987655E+01  0.43213154431E+01  0.24444672243E+02  0.25716542495E+02  0.00000000000E+00 0.  1.
</event>
<event>
12    1  0.8133495E-002  0.2126691E+03  0.7818608E-02  0.1139718E+00
         21   -1    0    0  503  502  0.00000000000E+00  0.00000000000E+00  0.84234774242E+03  0.84234774242E+03  0.00000000000E+00 0. -1.
         21   -1    0    0  501  503 -0.00000000000E+00 -0.00000000000E+00 -0.55971227374E+02  0.55971227374E+02  0.00000000000E+00 0. -1.
          6    2    1    2  501    0 -0.10513280411E+03 -0.70132124339E+02  0.29526948252E+03  0.36314211132E+03  0.16946003759E+03 0.  0.
         24    2    3    3    0    0  0.13514763614E+02 -0.11160420125E+02  0.13669103091E+03  0.15644396778E+03  0.74047777228E+02 0.  0.
         -6    2    1    2    0  502  0.10513280411E+03  0.70132124339E+02  0.49110703253E+03  0.53517685847E+03  0.17104599113E+03 0.  0.
        -24    2    5    5    0    0  0.13471754224E+03  0.83879472766E+02  0.38681432952E+03  0.42579996777E+03  0.80595935986E+02 0.  0.
          5    1    3    3  501    0 -0.11864756773E+03 -0.58971704214E+02  0.15857845161E+03  0.20669814354E+03  0.47000000000E+01 0. -1.
        -11    1    4    4    0    0  0.80302322915E+01  0.27035390773E+02  0.23029636594E+02  0.36411003097E+02  0.00000000000E+00 0.  1.
         12    1    4    4    0    0  0.54845313228E+01 -0.38195810899E+02  0.11366139431E+03  0.12003296469E+03  0.00000000000E+00 0. -1.
         -5    1    5    5    0  502 -0.29584738122E+02 -0.13747348426E+02  0.10429270301E+03  0.10937689070E+03  0.47000000000E+01 0.  1.
         13    1    6    6    0    0  0.11621653063E+03  0.30441301245E+02  0.23798756729E+03  0.26659151712E+03  0.00000000000E+00 0. -1.
        -14    1    6    6    0    0  0.18501011609E+02  0.53438171521E+02  0.14882676222E+03  0.15920845065E+03  0.00000000000E+00 0.  1.
</event>
<event>
12    1  0.8133495E-002  0.1787216E+03  0.7818608E-02  0.1169486E+00
         21   -1    0    0  501  502  0.00000000000E+00  0.00000000000E+00  0.19136548415E+03  0.19136548415E+03  0.00000000000E+00 0. -1.
         21   -1    0    0  502  503 -0.00000000000E+00 -0.00000000000E+00 -0.87292982951E+03  0.87292982951E+03  0.00000000000E+00 0. -1.
         -6    2    1    2    0  503  0.28515975406E+02 -0.24942743952E+02 -0.81959634327E+03  0.83847626848E+03  0.17282646087E+03 0.  0.
        -24    2    3    3    0    0 -0.27762397302E+02 -0.67862886793E+02 -0.45836664855E+03  0.47034806222E+03  0.75836620611E+02 0.  0.
          6    2    1    2  501    0 -0.28515975406E+02  0.24942743952E+02  0.13803199791E+03  0.22581904518E+03  0.17465997650E+03 0.  0.
         24    2    5    5    0    0 -0.54873838336E+02  0.19848968390E+01  0.15789328897E+03  0.18534237826E+03  0.80040168216E+02 0.  0.
          5    1    5    5  501    0  0.26357862930E+02  0.22957847113E+02 -0.19861291060E+02  0.40476666919E+02  0.47000000000E+01 0. -1.
        -11    1    6    6    0    0 -0.33837303110E+02 -0.17033995412E+02  0.16824036003E+02  0.41450793344E+02  0.00000000000E+00 0.  1.
         12    1    6    6    0    0 -0.21036535226E+02  0.19018892251E+02  0.14106925297E+03  0.14389158492E+03  0.00000000000E+00 0. -1.
         -5    1    3    3    0  503  0.56278372708E+02  0.42920142841E+02 -0.36122969472E+03  0.36812820626E+03  0.47000000000E+01 0.  1.
         13    1    4    4    0    0 -0.35387428454E+01 -0.14067686417E+02 -0.31476958178E+03  0.31510365297E+03  0.00000000000E+00 0. -1.
        -14    1    4    4    0    0 -0.24223654456E+02 -0.53795200376E+02 -0.14359706677E+03  0.15524440925E+03  0.00000000000E+00 0.  1.
</event>
<event>
12    1  0.8133495E-002  0.2597078E+03  0.7818608E-02  0.1107354E+00
         21   -1    0    0  501  502  0.00000000000E+00  0.00000000000E+00  0.33983997688E+03  0.33983997688E+03  0.00000000000E+00 0.  1.
         21   -1    0    0  502  503 -0.00000000000E+00 -0.00000000000E+00 -0.19891304889E+03  0.19891304889E+03  0.00000000000E+00 0. -1.
         -6    2    1    2    0  503  0.16435451631E+03  0.10271066449E+03  0.85460243193E+02  0.27318812400E+03  0.17252944762E+03 0.  0.
        -24    2    3    3    0    0  0.48433493364E+02  0.10846390678E+03  0.35856933820E+02  0.14688150636E+03  0.78601748417E+02 0.  0.
          6    2    1    2  501    0 -0.16435451631E+03 -0.10271066449E+03  0.55466684790E+02  0.26556490177E+03  0.17287647700E+03 0.  0.
         24    2    5    5    0    0 -0.14491474883E+03 -0.12899412344E+02  0.11489783620E+02  0.16358439673E+03  0.73899664801E+02 0.  0.
          5    1    5    5  501    0 -0.19439767480E+02 -0.89811252148E+02  0.43976901170E+02  0.10198050504E+03  0.47000000000E+01 0. -1.
        -13    1    6    6    0    0 -0.37744045689E+02 -0.24423106072E+02  0.30235125901E+02  0.54178076132E+02  0.00000000000E+00 0.  1.
         14    1    6    6    0    0 -0.10717070314E+03  0.11523693727E+02 -0.18745342281E+02  0.10940632060E+03  0.00000000000E+00 0. -1.
         -5    1    3    3    0  503  0.11592102295E+03 -0.57532422910E+01  0.49603309372E+02  0.12630661764E+03  0.47000000000E+01 0.  1.
         13    1    4    4    0    0 -0.26865725850E+01  0.16164301582E+00 -0.16108995171E+02  0.16332284780E+02  0.00000000000E+00 0. -1.
        -14    1    4    4    0    0  0.51120065949E+02  0.10830226377E+03  0.51965928992E+02  0.13054922158E+03  0.00000000000E+00 0.  1.
</event>
<event>
12    1  0.8133495E-002  0.2072037E+03  0.7818608E-02  0.1143900E+00
         21   -1    0    0  501  502  0.00000000000E+00  0.00000000000E+00  0.53432151523E+03  0.53432151523E+03  0.00000000000E+00 0.  1.
         21   -1    0    0  502  503 -0.00000000000E+00 -0.00000000000E+00 -0.12548536928E+03  0.12548536928E+03  0.00000000000E+00 0. -1.
         -6    2    1    2    0  503 -0.71422893763E+01 -0.11564817924E+03  0.62993193678E+01  0.20729945941E+03  0.17177855159E+03 0.  0.
        -24    2    3    3    0    0 -0.15549913648E+02 -0.30169799738E+02 -0.56014385198E+02  0.10108114985E+03  0.76992018262E+02 0.  0.
          6    2    1    2  501    0  0.71422893763E+01  0.11564817924E+03  0.40253682658E+03  0.45250742510E+03  0.17117698256E+03 0.  0.
         24    2    5    5    0    0  0.26807515826E+02  0.14681441188E+03  0.34151110566E+03  0.38106315449E+03  0.79411447439E+02 0.  0.
          5    1    5    5  501    0 -0.19665226449E+02 -0.31166232640E+02  0.61025720927E+02  0.71444270609E+02  0.47000000000E+01 0. -1.
        -13    1    6    6    0    0 -0.25848446217E+02  0.73203720395E+02  0.17757086026E+03  0.19379973495E+03  0.00000000000E+00 0.  1.
         14    1    6    6    0    0  0.52655962043E+02  0.73610691484E+02  0.16394024539E+03  0.18726341954E+03  0.00000000000E+00 0. -1.
         -5    1    3    3    0  503  0.84076242716E+01 -0.85478379501E+02  0.62313704565E+02  0.10621830955E+03  0.47000000000E+01 0.  1.
         13    1    4    4    0    0 -0.33776283159E+02  0.87932208835E+01 -0.44494189129E+02  0.56549897469E+02  0.00000000000E+00 0. -1.
        -14    1    4    4    0    0  0.18226369511E+02 -0.38963020622E+02 -0.11520196069E+02  0.44531252385E+02  0.00000000000E+00 0.  1.
</event>
<event>
12    1  0.8133495E-002  0.1956772E+03  0.7818608E-02  0.1153943E+00
         21   -1    0    0  501  502  0.00000000000E+00  0.00000000000E+00  0.30212215161E+02  0.30212215161E+02  0.00000000000E+00 0. -1.
         21   -1    0    0  502  503 -0.00000000000E+00 -0.00000000000E+00 -0.13624135380E+04  0.13624135380E+04  0.00000000000E+00 0. -1.
         -6    2    1    2    0  503 -0.31580702522E+02 -0.85123280956E+02 -0.86756897025E+03  0.88936239891E+03  0.17333852633E+03 0.  0.
        -24    2    3    3    0    0 -0.45317171908E+01 -0.38861834887E+02 -0.19081050613E+03  0.21046927200E+03  0.79736356417E+02 0.  0.
          6    2    1    2  501    0  0.31580702522E+02  0.85123280956E+02 -0.46463235254E+03  0.50326335421E+03  0.17072629244E+03 0.  0.
         24    2    5    5    0    0  0.32519060717E+02 -0.19145147788E+02 -0.22910974274E+03  0.24564779669E+03  0.80171939023E+02 0.  0.
          5    1    5    5  501    0 -0.93835819551E+00  0.10426842874E+03 -0.23552260980E+03  0.25761555752E+03  0.47000000000E+01 0. -1.
        -11    1    6    6    0    0  0.66429514723E+01  0.21863956640E+02 -0.15759871784E+03  0.15924671824E+03  0.00000000000E+00 0.  1.
         12    1    6    6    0    0  0.25876109245E+02 -0.41009104428E+02 -0.71511024896E+02  0.86401078450E+02  0.00000000000E+00 0. -1.
         -5    1    3    3    0  503 -0.27048985331E+02 -0.46261446068E+02 -0.67675846413E+03  0.67889312691E+03  0.47000000000E+01 0.  1.
         11    1    4    4    0    0 -0.18515862048E+02 -0.40064837209E+02 -0.19139815095E+03  0.19642118144E+03  0.00000000000E+00 0. -1.
        -12    1    4    4    0    0  0.13984144857E+02  0.12030023220E+01  0.58764482678E+00  0.14048090561E+02  0.00000000000E+00 0.  1.
</event>
<event>
12    1  0.8133495E-002  0.1807680E+03  0.7818608E-02  0.1167341E+00
         21   -1    0    0  503  502  0.00000000000E+00  0.00000000000E+00  0.30810408440E+03  0.30810408440E+03  0.00000000000E+00 0.  1.
         21   -1    0    0  501  503 -0.00000000000E+00 -0.00000000000E+00 -0.10602502245E+03  0.10602502245E+03  0.00000000000E+00 0.  1.
          6    2    1    2  501    0 -0.25767165867E+02 -0.49085795340E+02  0.84573889271E+02  0.19852635525E+03  0.17084088750E+03 0.  0.
         24    2    3    3    0    0  0.30151416730E+02 -0.75480913069E+02  0.30283593567E+02  0.11610599170E+03  0.77181792554E+02 0.  0.
         -6    2    1    2    0  502  0.25767165867E+02  0.49085795340E+02  0.11750517268E+03  0.21560275159E+03  0.17205731239E+03 0.  0.
        -24    2    5    5    0    0  0.24976046436E+02 -0.15804039194E+02  0.12436295153E+03  0.15017771337E+03  0.78826590251E+02 0.  0.
          5    1    3    3  501    0 -0.55918582597E+02  0.26395117729E+02  0.54290295704E+02  0.82420363547E+02  0.47000000000E+01 0. -1.
        -13    1    4    4    0    0  0.79133846206E+01  0.55908845410E+01  0.30538964173E+02  0.32039163205E+02  0.00000000000E+00 0.  1.
         14    1    4    4    0    0  0.22238032110E+02 -0.81071797610E+02 -0.25537060650E+00  0.84066828500E+02  0.00000000000E+00 0. -1.
         -5    1    5    5    0  502  0.79111943003E+00  0.64889834534E+02 -0.68577788459E+01  0.65425038224E+02  0.47000000000E+01 0.  1.
         11    1    6    6    0    0 -0.16262549295E+02  0.20183618684E+02  0.62014751023E+02  0.67213676563E+02  0.00000000000E+00 0. -1.
        -12    1    6    6    0    0  0.41238595731E+02 -0.35987657878E+02  0.62348200502E+02  0.82964036807E+02  0.00000000000E+00 0.  1.
</event>
<event>
12    1  0.8133495E-002  0.1826859E+03  0.7818608E-02  0.1165305E+00
         21   -1    0    0  503  502  0.00000000000E+00  0.00000000000E+00  0.31441036135E+03  0.31441036135E+03  0.00000000000E+00 0. -1.
         21   -1    0    0  501  503 -0.00000000000E+00 -0.00000000000E+00 -0.10702433551E+03  0.10702433551E+03  0.00000000000E+00 0.  1.
          6    2    1    2  501    0 -0.29147781257E+02 -0.53495493760E+02  0.12476860284E+03  0.22122688424E+03  0.17222882758E+03 0.  0.
         24    2    3    3    0    0 -0.31588526070E+02  0.18678181348E+02  0.94954332865E+01  0.85120344232E+02  0.76214173952E+02 0.  0.
         -6    2    1    2    0  502  0.29147781257E+02  0.53495493760E+02  0.82617423000E+02  0.20020781262E+03  0.17188998996E+03 0.  0.
        -24    2    5    5    0    0 -0.13806698559E+02  0.56693050939E+01  0.10309570635E+03  0.13257733320E+03  0.82007674420E+02 0.  0.
          5    1    3    3  501    0  0.24407448132E+01 -0.72173675108E+02  0.11527316955E+03  0.13610654001E+03  0.47000000000E+01 0. -1.
        -13    1    4    4    0    0 -0.55730012898E+02  0.10050511179E+02 -0.27777783117E+01  0.56697117783E+02  0.00000000000E+00 0.  1.
         14    1    4    4    0    0  0.24141486828E+02  0.86276701687E+01  0.12273211598E+02  0.28423226449E+02  0.00000000000E+00 0. -1.
         -5    1    5    5    0  502  0.42954479816E+02  0.47826188666E+02 -0.20478283352E+02  0.67630479427E+02  0.47000000000E+01 0.  1.
         11    1    6    6    0    0  0.94660400679E+00 -0.30395464310E+02  0.83696054557E+02  0.89049479832E+02  0.00000000000E+00 0. -1.
        -12    1    6    6    0    0 -0.14753302566E+02  0.36064769404E+02  0.19399651795E+02  0.43527853365E+02  0.00000000000E+00 0.  1.
</event>
<event>
12    1  0.8133495E-002  0.1871682E+03  0.7818608E-02  0.1161586E+00
         21   -1    0    0  501  502  0.00000000000E+00  0.00000000000E+00  0.26815718865E+03  0.26815718865E+03  0.00000000000E+00 0.  1.
         21   -1    0    0  502  503 -0.00000000000E+00 -0.00000000000E+00 -0.21844444835E+03  0.21844444835E+03  0.00000000000E+00 0. -1.
         -6    2    1    2    0  503 -0.40506650911E+02 -0.59543648767E+02 -0.13092016909E+03  0.22648589276E+03  0.17020438911E+03 0.  0.
        -24    2    3    3    0    0 -0.53979621347E+02 -0.69271203275E+02 -0.27353968950E+02  0.12148973064E+03  0.79367599881E+02 0.  0.
          6    2    1    2  501    0  0.40506650911E+02  0.59543648767E+02  0.18063290938E+03  0.26011574423E+03  0.17275913166E+03 0.  0.
         24    2    5    5    0    0  0.77368603957E+02  0.44704184330E+02  0.18324599259E+03  0.22001672316E+03  0.82727865296E+02 0.  0.
          5    1    5    5  501    0 -0.36861953046E+02  0.14839464437E+02 -0.26130832065E+01  0.40099021073E+02  0.47000000000E+01 0. -1.
        -11    1    6    6    0    0  0.51988390171E+02 -0.75015485741E+01  0.41820705808E+02  0.67141919676E+02  0.00000000000E+00 0.  1.
         12    1    6    6    0    0  0.25380213786E+02  0.52205732904E+02  0.14142528678E+03  0.15287480348E+03  0.00000000000E+00 0. -1.
         -5    1    3    3    0  503  0.13472970436E+02  0.97275545080E+01 -0.10356620014E+03  0.10499616212E+03  0.47000000000E+01 0.  1.
         13    1    4    4    0    0 -0.31930294299E+02  0.25973395508E+01 -0.33139611633E+02  0.46092556079E+02  0.00000000000E+00 0. -1.
        -14    1    4    4    0    0 -0.22049327048E+02 -0.71868542826E+02  0.57856426823E+01  0.75397174565E+02  0.00000000000E+00 0.  1.
</event>
<event>
12    1  0.8133495E-002  0.3419497E+03  0.7818608E-02  0.1065977E+00
         21   -1    0    0  501  502  0.00000000000E+00  0.00000000000E+00  0.12017739842E+04  0.12017739842E+04  0.00000000000E+00 0.  1.
         21   -1    0    0  502  503 -0.00000000000E+00 -0.00000000000E+00 -0.19945318779E+03  0.19945318779E+03  0.00000000000E+00 0. -1.
         -6    2    1    2    0  503 -0.26766881622E+03 -0.12561326752E+03 -0.32472817452E+00  0.34187471489E+03  0.17161855108E+03 0.  0.
        -24    2    3    3    0    0 -0.21839340303E+03 -0.10939308866E+03 -0.58172412473E+02  0.26403124936E+03  0.81645237020E+02 0.  0.
          6    2    1    2  501    0  0.26766881622E+03  0.12561326752E+03  0.10026455246E+04  0.10593524571E+04  0.17176813506E+03 0.  0.
         24    2    5    5    0    0  0.61303743497E+02  0.80870398322E+02  0.31900239072E+03  0.34382573357E+03  0.78456608977E+02 0.  0.
          5    1    5    5  501    0  0.20636507273E+03  0.44742869194E+02  0.68364313384E+03  0.71552672349E+03  0.47000000000E+01 0. -1.
        -13    1    6    6    0    0  0.77076986542E+02  0.52700712355E+02  0.20354267996E+03  0.22393715526E+03  0.00000000000E+00 0.  1.
         14    1    6    6    0    0 -0.15773243046E+02  0.28169685968E+02  0.11545971075E+03  0.11988857831E+03  0.00000000000E+00 0. -1.
         -5    1    3    3    0  503 -0.49275413193E+02 -0.16220178852E+02  0.57847684298E+02  0.77843465532E+02  0.47000000000E+01 0.  1.
         13    1    4    4    0    0 -0.11403166791E+03 -0.47804795206E+02  0.11617994590E+02  0.12419137462E+03  0.00000000000E+00 0. -1.
        -14    1    4    4    0    0 -0.10436173512E+03 -0.61588293458E+02 -0.69790407063E+02  0.13983987474E+03  0.00000000000E+00 0.  1.
</event>
<event>
12    1  0.8133495E-002  0.2618169E+03  0.7818608E-02  0.1107155E+00
         21   -1    0    0  503  502  0.00000000000E+00  0.00000000000E+00  0.10130462343E+04  0.10130462343E+04  0.00000000000E+00 0.  1.
         21   -1    0    0  501  503 -0.00000000000E+00 -0.00000000000E+00 -0.70705483011E+02  0.70705483011E+02  0.00000000000E+00 0.  1.
          6    2    1    2  501    0  0.17645956444E+03  0.88528725310E+02  0.33461507776E+03  0.42487097691E+03  0.17196739131E+03 0.  0.
         24    2    3    3    0    0  0.21300392389E+02  0.43239411550E+02  0.17211504573E+03  0.19562473154E+03  0.79511591571E+02 0.  0.
         -6    2    1    2    0  502 -0.17645956444E+03 -0.88528725310E+02  0.60772567357E+03  0.65888074043E+03  0.16067987649E+03 0.  0.
        -24    2    5    5    0    0 -0.19632795799E+03 -0.71611145397E+02  0.49833190070E+03  0.54631944551E+03  0.80358136173E+02 0.  0.
          5    1    3    3  501    0  0.15515917205E+03  0.45289313761E+02  0.16250003202E+03  0.22924624538E+03  0.47000000000E+01 0. -1.
        -13    1    4    4    0    0  0.28895548158E+02  0.55985786600E+02  0.77616472379E+02  0.99968383948E+02  0.00000000000E+00 0.  1.
         14    1    4    4    0    0 -0.75951557690E+01 -0.12746375050E+02  0.94498573355E+02  0.95656347589E+02  0.00000000000E+00 0. -1.
         -5    1    5    5    0  502  0.19868393554E+02 -0.16917579914E+02  0.10939377287E+03  0.11256129492E+03  0.47000000000E+01 0.  1.
         13    1    6    6    0    0 -0.20536402837E+02 -0.33718737344E+02  0.13904565036E+03  0.14454200073E+03  0.00000000000E+00 0. -1.
        -14    1    6    6    0    0 -0.17579155516E+03 -0.37892408053E+02  0.35928625034E+03  0.40177744478E+03  0.00000000000E+00 0.  1.
</event>
<event>
12    1  0.8133495E-002  0.2053008E+03  0.7818608E-02  0.1145365E+00
         21   -1    0    0  503  502  0.00000000000E+00  0.00000000000E+00  0.31298749286E+03  0.31298749286E+03  0.00000000000E+00 0. -1.
         21   -1    0    0  501  503 -0.00000000000E+00 -0.00000000000E+00 -0.13460966732E+03  0.13460966732E+03  0.00000000000E+00 0.  1.
          6    2    1    2  501    0  0.11204037401E+03  0.39353008552E+01  0.86533492014E+02  0.22279239919E+03  0.17198801090E+03 0.  0.
         24    2    3    3    0    0  0.39421781749E+02  0.76247840895E+01 -0.22712747020E+02  0.91476356863E+02  0.78992662818E+02 0.  0.
         -6    2    1    2    0  502 -0.11204037401E+03 -0.39353008552E+01  0.91844333530E+02  0.22480476099E+03  0.17185245696E+03 0.  0.
        -24    2    5    5    0    0 -0.27458272553E+02  0.49160120805E+02  0.17407880410E+02  0.10016074292E+03  0.80984355977E+02 0.  0.
          5    1    3    3  501    0  0.72618592258E+02 -0.36894832343E+01  0.10924623903E+03  0.13131604232E+03  0.47000000000E+01 0. -1.
        -11    1    4    4    0    0 -0.90866527944E+01 -0.24242744350E+02 -0.21125357360E+02  0.33414946299E+02  0.00000000000E+00 0.  1.
         12    1    4    4    0    0  0.48508434544E+02  0.31867528439E+02 -0.15873896605E+01  0.58061410564E+02  0.00000000000E+00 0. -1.
         -5    1    5    5    0  502 -0.84582101454E+02 -0.53095421660E+02  0.74436453120E+02  0.12464401807E+03  0.47000000000E+01 0.  1.
         13    1    6    6    0    0 -0.14300578950E+02  0.63653633487E+02  0.34829934284E+02  0.73955499705E+02  0.00000000000E+00 0. -1.
        -14    1    6    6    0    0 -0.13157693603E+02 -0.14493512682E+02 -0.17422053874E+02  0.26205243216E+02  0.00000000000E+00 0.  1.
</event>
<event>
12    1  0.8133495E-002  0.1995232E+03  0.7818608E-02  0.1150160E+00
         21   -1    0    0  501  502  0.00000000000E+00  0.00000000000E+00  0.15647362400E+03  0.15647362400E+03  0.00000000000E+00 0. -1.
         21   -1    0    0  502  503 -0.00000000000E+00 -0.00000000000E+00 -0.31375743950E+03  0.31375743950E+03  0.00000000000E+00 0. -1.
         -6    2    1    2    0  503 -0.97387328118E+02 -0.26788955159E+02 -0.18097080117E+03  0.26930673606E+03  0.17197019339E+03 0.  0.
        -24    2    3    3    0    0 -0.90171980675E+02  0.30292170104E+02 -0.74563453968E+02  0.14824918925E+03  0.85845860577E+02 0.  0.
          6    2    1    2  501    0  0.97387328118E+02  0.26788955159E+02  0.23686985671E+02  0.20092432743E+03  0.17206851039E+03 0.  0.
         24    2    5    5    0    0 -0.15203581519E+02  0.20368112671E+02  0.24414121690E+02  0.88050243259E+02  0.80689448475E+02 0.  0.
          5    1    5    5  501    0  0.11259090964E+03  0.64208424875E+01 -0.72713601907E+00  0.11287408417E+03  0.47000000000E+01 0. -1.
        -11    1    6    6    0    0  0.21230890287E+02 -0.19829299542E+02  0.15950941724E+02  0.33141882333E+02  0.00000000000E+00 0.  1.
         12    1    6    6    0    0 -0.36434471806E+02  0.40197412213E+02  0.84631799661E+01  0.54908360926E+02  0.00000000000E+00 0. -1.
         -5    1    3    3    0  503 -0.72153474429E+01 -0.57081125262E+02 -0.10640734720E+03  0.12105754681E+03  0.47000000000E+01 0.  1.
         11    1    4    4    0    0 -0.18634086748E+02  0.13721888848E+02 -0.71060677903E+02  0.74733789992E+02  0.00000000000E+00 0. -1.
        -12    1    4    4    0    0 -0.71537893927E+02  0.16570281255E+02 -0.35027760649E+01  0.73515399261E+02  0.00000000000E+00 0.  1.
</event>
<event>
12    1  0.8133495E-002  0.2040400E+03  0.7818608E-02  0.1146814E+00
         21   -1    0    0  503  502  0.00000000000E+00  0.00000000000E+00  0.23173845400E+04  0.23173845400E+04  0.00000000000E+00 0. -1.
         21   -1    0    0  501  503 -0.00000000000E+00 -0.00000000000E+00 -0.18190782033E+02  0.18190782033E+02  0.00000000000E+00 0. -1.
          6    2    1    2  501    0 -0.83509618536E+02 -0.66318365407E+02  0.13195564001E+04  0.13349147045E+04  0.17145318066E+03 0.  0.
         24    2    3    3    0    0 -0.56564958906E+02 -0.90598205523E+02  0.52727285679E+03  0.54178745848E+03  0.64104252871E+02 0.  0.
         -6    2    1    2    0  502  0.83509618536E+02  0.66318365407E+02  0.97963735786E+03  0.10006606176E+04  0.17395498456E+03 0.  0.
        -24    2    5    5    0    0  0.26939618063E+02  0.87745702782E+02  0.83550737880E+03  0.84428019486E+03  0.79444421035E+02 0.  0.
          5    1    3    3  501    0 -0.26944659630E+02  0.24279840116E+02  0.79228354333E+03  0.79312724600E+03  0.47000000000E+01 0. -1.
        -13    1    4    4    0    0 -0.66044448572E+00 -0.62656083618E+01  0.17910730452E+03  0.17921808103E+03  0.00000000000E+00 0.  1.
         14    1    4    4    0    0 -0.55904514421E+02 -0.84332597161E+02  0.34816555227E+03  0.36256937745E+03  0.00000000000E+00 0. -1.
         -5    1    5    5    0  502  0.56570000473E+02 -0.21427337375E+02  0.14412997906E+03  0.15638042271E+03  0.47000000000E+01 0.  1.
         11    1    6    6    0    0  0.39476570548E+02  0.26934182312E+02  0.19501197408E+03  0.20078226972E+03  0.00000000000E+00 0. -1.
        -12    1    6    6    0    0 -0.12536952485E+02  0.60811520470E+02  0.64049540471E+03  0.64349792514E+03  0.00000000000E+00 0.  1.
</event>
<event>
12    1  0.8133495E-002  0.2025289E+03  0.7818608E-02  0.1147908E+00
         21   -1    0    0  503  502  0.00000000000E+00  0.00000000000E+00  0.30702502058E+03  0.30702502058E+03  0.00000000000E+00 0.  1.
         21   -1    0    0  501  503 -0.00000000000E+00 -0.00000000000E+00 -0.19122683980E+03  0.19122683980E+03  0.00000000000E+00 0. -1.
          6    2    1    2  501    0  0.30126518557E+02 -0.10106118272E+03 -0.79792340965E+02  0.21768044863E+03  0.17290746157E+03 0.  0.
         24    2    3    3    0    0 -0.43117461780E+02 -0.33468528571E+02 -0.15415785911E+02  0.98937539830E+02  0.81066222418E+02 0.  0.
         -6    2    1    2    0  502 -0.30126518557E+02  0.10106118272E+03  0.19559052174E+03  0.28057141174E+03  0.17130001495E+03 0.  0.
        -24    2    5    5    0    0 -0.60847509665E+02  0.99862806356E+02  0.20419239205E+03  0.24830226900E+03  0.79274739302E+02 0.  0.
          5    1    3    3  501    0  0.73243980337E+02 -0.67592654149E+02 -0.64376555054E+02  0.11874290880E+03  0.47000000000E+01 0. -1.
        -13    1    4    4    0    0 -0.64913002979E+02 -0.38202588723E+02 -0.13812532146E+02  0.76576248179E+02  0.00000000000E+00 0.  1.
         14    1    4    4    0    0  0.21795541198E+02  0.47340601518E+01 -0.16032537654E+01  0.22361291651E+02  0.00000000000E+00 0. -1.
         -5    1    5    5    0  502  0.30720991108E+02  0.11983763635E+01 -0.86018703158E+01  0.32269142745E+02  0.47000000000E+01 0.  1.
         11    1    6    6    0    0 -0.91596283523E+01  0.36592889992E+02  0.12193027129E+02  0.39643515234E+02  0.00000000000E+00 0. -1.
        -12    1    6    6    0    0 -0.51687881313E+02  0.63269916364E+02  0.19199936492E+03  0.20865875376E+03  0.00000000000E+00 0.  1.
</event>
<event>
12    1  0.8133495E-002  0.1847900E+03  0.7818608E-02  0.1163343E+00
         21   -1    0    0  501  502  0.00000000000E+00  0.00000000000E+00  0.18304988007E+03  0.18304988007E+03  0.00000000000E+00 0. -1.
         21   -1    0    0  502  503 -0.00000000000E+00 -0.00000000000E+00 -0.21756335408E+03  0.21756335408E+03  0.00000000000E+00 0.  1.
         -6    2    1    2    0  503 -0.52802121974E+02 -0.40108221107E+02  0.58863623422E+02  0.19393887746E+03  0.17248370516E+03 0.  0.
        -24    2    3    3    0    0 -0.97699464030E+02 -0.53108040658E+02  0.28792426422E+02  0.13816134147E+03  0.76771760460E+02 0.  0.
          6    2    1    2  501    0  0.52802121974E+02  0.40108221107E+02 -0.93377097426E+02  0.20667435669E+03  0.17204148890E+03 0.  0.
         24    2    5    5    0    0  0.10001781794E+03  0.17113761160E+02 -0.48993706995E+02  0.13775380474E+03  0.79241924941E+02 0.  0.
          5    1    5    5  501    0 -0.47215695971E+02  0.22994459947E+02 -0.44383390431E+02  0.68920551945E+02  0.47000000000E+01 0. -1.
        -11    1    6    6    0    0  0.18066470982E+02 -0.22482170553E+01 -0.50344715515E+02  0.53535429708E+02  0.00000000000E+00 0.  1.
         12    1    6    6    0    0  0.81951346962E+02  0.19361978216E+02  0.13510085206E+01  0.84218375034E+02  0.00000000000E+00 0. -1.
         -5    1    3    3    0  503  0.44897342056E+02  0.12999819551E+02  0.30071197000E+02  0.55777535990E+02  0.47000000000E+01 0.  1.
         13    1    4    4    0    0 -0.28750461485E+02  0.36700620566E+01  0.38639770785E+02  0.48302073221E+02  0.00000000000E+00 0. -1.
        -14    1    4    4    0    0 -0.68949002545E+02 -0.56778102714E+02 -0.98473443637E+01  0.89859268252E+02  0.00000000000E+00 0.  1.
</event>
<event>
12    1  0.8133495E-002  0.1812073E+03  0.7818608E-02  0.1167028E+00
         21   -1    0    0  503  502  0.00000000000E+00  0.00000000000E+00  0.25726810551E+03  0.25726810551E+03  0.00000000000E+00 0. -1.
         21   -1    0    0  501  503 -0.00000000000E+00 -0.00000000000E+00 -0.24688803962E+03  0.24688803962E+03  0.00000000000E+00 0. -1.
          6    2    1    2  501    0 -0.17095317379E+02 -0.53259726042E+02 -0.17084677501E+03  0.24787651037E+03  0.17066134761E+03 0.  0.
         24    2    3    3    0    0  0.54958945289E+02 -0.16278471157E+02 -0.10070893946E+03  0.14063455982E+03  0.79688861453E+02 0.  0.
         -6    2    1    2    0  502  0.17095317379E+02  0.53259726042E+02  0.18122684089E+03  0.25627963476E+03  0.17235786910E+03 0.  0.
        -24    2    5    5    0    0  0.76173849587E+02  0.16587106895E+02  0.13379932104E+03  0.17197890166E+03  0.74812410923E+02 0.  0.
          5    1    3    3  501    0 -0.72054262668E+02 -0.36981254885E+02 -0.70137835549E+02  0.10724195055E+03  0.47000000000E+01 0. -1.
        -13    1    4    4    0    0  0.60235118054E+00  0.26787666846E+02 -0.16190395113E+02  0.31306082730E+02  0.00000000000E+00 0.  1.
         14    1    4    4    0    0  0.54356594109E+02 -0.43066138003E+02 -0.84518544345E+02  0.10932847709E+03  0.00000000000E+00 0. -1.
         -5    1    5    5    0  502 -0.59078532208E+02  0.36672619146E+02  0.47427519852E+02  0.84300733106E+02  0.47000000000E+01 0.  1.
         11    1    6    6    0    0  0.61058298215E+02 -0.40928082201E+01  0.36257926740E+02  0.71130191280E+02  0.00000000000E+00 0. -1.
        -12    1    6    6    0    0  0.15115551372E+02  0.20679915116E+02  0.97541394303E+02  0.10084871038E+03  0.00000000000E+00 0.  1.
</event>
<event>
12    1  0.8133495E-002  0.1835461E+03  0.7818608E-02  0.1165339E+00
         21   -1    0    0  501  502  0.00000000000E+00  0.00000000000E+00  0.34083279257E+03  0.34083279257E+03  0.00000000000E+00 0. -1.
         21   -1    0    0  502  503 -0.00000000000E+00 -0.00000000000E+00 -0.15053301306E+03  0.15053301306E+03  0.00000000000E+00 0. -1.
         -6    2    1    2    0  503 -0.39741205878E+02 -0.48243553571E+02 -0.51020835552E+02  0.19050535867E+03  0.17257567070E+03 0.  0.
        -24    2    3    3    0    0 -0.82489450099E+02 -0.68576773002E+02 -0.23610000685E+02  0.13560275341E+03  0.79519754950E+02 0.  0.
          6    2    1    2  501    0  0.39741205878E+02  0.48243553571E+02  0.24132061506E+03  0.30086044696E+03  0.16844751522E+03 0.  0.
         24    2    5    5    0    0  0.43935706714E+02  0.19087788488E+02  0.25249615134E+03  0.26900710983E+03  0.79472188258E+02 0.  0.
          5    1    5    5  501    0 -0.41945008355E+01  0.29155765083E+02 -0.11175536276E+02  0.31853337124E+02  0.47000000000E+01 0. -1.
        -11    1    6    6    0    0 -0.28003329370E+01 -0.26676136820E+02  0.60654964637E+02  0.66321059063E+02  0.00000000000E+00 0.  1.
         12    1    6    6    0    0  0.46736039651E+02  0.45763925307E+02  0.19184118670E+03  0.20268605077E+03  0.00000000000E+00 0. -1.
         -5    1    3    3    0  503  0.42748244220E+02  0.20333219431E+02 -0.27410834866E+02  0.54902605261E+02  0.47000000000E+01 0.  1.
         13    1    4    4    0    0 -0.32306988985E+02 -0.56762135330E+02 -0.45494730860E+02  0.79595553146E+02  0.00000000000E+00 0. -1.
        -14    1    4    4    0    0 -0.50182461114E+02 -0.11814637672E+02  0.21884730175E+02  0.56007200265E+02  0.00000000000E+00 0.  1.
</event>
<event>
12    1  0.8133495E-002  0.2007653E+03  0.7818608E-02  0.1149212E+00
         21   -1    0    0  503  502  0.00000000000E+00  0.00000000000E+00  0.18943482391E+03  0.18943482391E+03  0.00000000000E+00 0. -1.
         21   -1    0    0  501  503 -0.00000000000E+00 -0.00000000000E+00 -0.23262622257E+03  0.23262622257E+03  0.00000000000E+00 0. -1.
          6    2    1    2  501    0  0.36615001000E+01 -0.10306608459E+03 -0.84184768261E+02  0.21770112033E+03  0.17225178725E+03 0.  0.
         24    2    3    3    0    0  0.68811802050E+02 -0.63961613953E+02 -0.88576129092E+02  0.14144434674E+03  0.57746172336E+02 0.  0.
         -6    2    1    2    0  502 -0.36615001000E+01  0.10306608459E+03  0.40993369606E+02  0.20435992616E+03  0.17159982136E+03 0.  0.
        -24    2    5    5    0    0  0.54062832575E+02  0.52631198631E+02  0.59733848742E+02  0.12530885493E+03  0.80257980927E+02 0.  0.
          5    1    3    3  501    0 -0.65150301950E+02 -0.39104470634E+02  0.43913608304E+01  0.76256773586E+02  0.47000000000E+01 0. -1.
        -13    1    4    4    0    0  0.14853777139E+02  0.77904338879E+01 -0.22964252251E+01  0.16929238739E+02  0.00000000000E+00 0.  1.
         14    1    4    4    0    0  0.53958024910E+02 -0.71752047841E+02 -0.86279703867E+02  0.12451510800E+03  0.00000000000E+00 0. -1.
         -5    1    5    5    0  502 -0.57724332675E+02  0.50434885956E+02 -0.18740479137E+02  0.79051071229E+02  0.47000000000E+01 0.  1.
         13    1    6    6    0    0 -0.20465618056E+01  0.46864734498E+02  0.57975563143E+01  0.47266303155E+02  0.00000000000E+00 0. -1.
        -14    1    6    6    0    0  0.56109394381E+02  0.57664641338E+01  0.53936292428E+02  0.78042551773E+02  0.00000000000E+00 0.  1.
</event>
<event>
12    1  0.8133495E-002  0.2474054E+03  0.7818608E-02  0.1115283E+00
         21   -1    0    0  503  502  0.00000000000E+00  0.00000000000E+00  0.29369060552E+03  0.29369060552E+03  0.00000000000E+00 0. -1.
         21   -1    0    0  501  503 -0.00000000000E+00 -0.00000000000E+00 -0.23928966594E+03  0.23928966594E+03  0.00000000000E+00 0. -1.
          6    2    1    2  501    0  0.16572176958E+03 -0.58196896858E+02  0.12563699746E+03  0.27747805018E+03  0.17423785320E+03 0.  0.
         24    2    3    3    0    0  0.61523443773E+02  0.23243673286E+02  0.98412563883E+02  0.14237395199E+03  0.79119574023E+02 0.  0.
         -6    2    1    2    0  502 -0.16572176958E+03  0.58196896858E+02 -0.71236057875E+02  0.25550222127E+03  0.17133658517E+03 0.  0.
        -24    2    5    5    0    0 -0.18666866422E+03  0.22996267370E+02 -0.57603753894E+02  0.21207657880E+03  0.79273351753E+02 0.  0.
          5    1    3    3  501    0  0.10419832580E+03 -0.81440570144E+02  0.27224433573E+02  0.13510409819E+03  0.47000000000E+01 0. -1.
        -13    1    4    4    0    0  0.56743992626E+02  0.49232265432E+02  0.82267946026E+02  0.11140786149E+03  0.00000000000E+00 0.  1.
         14    1    4    4    0    0  0.47794511471E+01 -0.25988592146E+02  0.16144617857E+02  0.30966090498E+02  0.00000000000E+00 0. -1.
         -5    1    5    5    0  502  0.20946894650E+02  0.35200629488E+02 -0.13632303981E+02  0.43425642467E+02  0.47000000000E+01 0.  1.
         11    1    6    6    0    0 -0.10737511828E+03 -0.22988696518E+02 -0.48237371097E+02  0.11993640049E+03  0.00000000000E+00 0. -1.
        -12    1    6    6    0    0 -0.79293545945E+02  0.45984963888E+02 -0.93663827969E+01  0.92140178310E+02  0.00000000000E+00 0.  1.
</event>
<event>
12    1  0.8133495E-002  0.2977385E+03  0.7818608E-02  0.1086399E+00
         21   -1    0    0  501  502  0.00000000000E+00  0.00000000000E+00  0.13833514864E+03  0.13833514864E+03  0.00000000000E+00 0.  1.
         21   -1    0    0  502  503 -0.00000000000E+00 -0.00000000000E+00 -0.68890462023E+03  0.68890462023E+03  0.00000000000E+00 0. -1.
         -6    2    1    2    0  503 -0.23889615687E+03  0.46294001451E+02 -0.38492235608E+03  0.48652403637E+03  0.17124809320E+03 0.  0.
        -24    2    3    3    0    0 -0.17509764913E+03  0.39500191241E+02 -0.16310774965E+03  0.25556902978E+03  0.80572570684E+02 0.  0.
          6    2    1    2  501    0  0.23889615687E+03 -0.46294001451E+02 -0.16564711551E+03  0.34071573249E+03  0.17156262750E+03 0.  0.
         24    2    5    5    0    0  0.12258965555E+03  0.40877771795E+02 -0.58974225049E+02  0.16036242407E+03  0.74424001230E+02 0.  0.
          5    1    5    5  501    0  0.11630650132E+03 -0.87171773246E+02 -0.10667289046E+03  0.18035330842E+03  0.47000000000E+01 0. -1.
        -13    1    6    6    0    0 -0.35490163762E+01  0.19803096395E+02 -0.15113734106E+02  0.25163129827E+02  0.00000000000E+00 0.  1.
         14    1    6    6    0    0  0.12613867193E+03  0.21074675401E+02 -0.43860490943E+02  0.13519929424E+03  0.00000000000E+00 0. -1.
         -5    1    3    3    0  503 -0.63798507741E+02  0.67938102097E+01 -0.22181460643E+03  0.23095500660E+03  0.47000000000E+01 0.  1.
         11    1    4    4    0    0 -0.31910921166E+02  0.42899942251E+02 -0.41596022595E+02  0.67741722967E+02  0.00000000000E+00 0. -1.
        -12    1    4    4    0    0 -0.14318672796E+03 -0.33997510100E+01 -0.12151172705E+03  0.18782730681E+03  0.00000000000E+00 0.  1.
</event>
<event>
12    1  0.8133495E-002  0.2051306E+03  0.7818608E-02  0.1146145E+00
         21   -1    0    0  501  502  0.00000000000E+00  0.00000000000E+00  0.83971986319E+02  0.83971986319E+02  0.00000000000E+00 0. -1.
         21   -1    0    0  502  503 -0.00000000000E+00 -0.00000000000E+00 -0.12752922641E+04  0.12752922641E+04  0.00000000000E+00 0. -1.
         -6    2    1    2    0  503  0.16144856760E+02 -0.10424431834E+03 -0.11260381716E+04  0.11439962796E+04  0.17215687466E+03 0.  0.
        -24    2    3    3    0    0  0.53596898649E+02 -0.10674444340E+03 -0.10407550655E+04  0.10506999546E+04  0.80822549590E+02 0.  0.
          6    2    1    2  501    0 -0.16144856760E+02  0.10424431834E+03 -0.65282106206E+02  0.21526797086E+03  0.17592899586E+03 0.  0.
         24    2    5    5    0    0 -0.27433786920E+02  0.14847158523E+02  0.22020456107E+02  0.89716708368E+02  0.81185814600E+02 0.  0.
          5    1    5    5  501    0  0.11288930160E+02  0.89397159816E+02 -0.87302562313E+02  0.12555126249E+03  0.47000000000E+01 0. -1.
        -11    1    6    6    0    0 -0.23694599208E+02  0.80929129094E+01 -0.28886475547E+02  0.38227709067E+02  0.00000000000E+00 0.  1.
         12    1    6    6    0    0 -0.37391877119E+01  0.67542456134E+01  0.50906931654E+02  0.51488999301E+02  0.00000000000E+00 0. -1.
         -5    1    3    3    0  503 -0.37452041889E+02  0.25001250587E+01 -0.85283106145E+02  0.93296325012E+02  0.47000000000E+01 0.  1.
         13    1    4    4    0    0  0.54957721162E-01 -0.12957403834E+02 -0.44800669805E+03  0.44819404149E+03  0.00000000000E+00 0. -1.
        -14    1    4    4    0    0  0.53541940928E+02 -0.93787039564E+02 -0.59274836741E+03  0.60250591308E+03  0.00000000000E+00 0.  1.
</event>
<event>
12    1  0.8133495E-002  0.2220663E+03  0.7818608E-02  0.1132463E+00
         21   -1    0    0  503  502  0.00000000000E+00  0.00000000000E+00  0.36190551887E+03  0.36190551887E+03  0.00000000000E+00 0. -1.
         21   -1    0    0  501  503 -0.00000000000E+00 -0.00000000000E+00 -0.13595834894E+03  0.13595834894E+03  0.00000000000E+00 0.  1.
          6    2    1    2  501    0 -0.10683666143E+03 -0.89868661943E+02  0.10757944602E+03  0.24675246850E+03  0.17269335505E+03 0.  0.
         24    2    3    3    0    0  0.10297670335E+02 -0.14848278417E+02  0.52842408025E+02  0.97197318300E+02  0.79551776929E+02 0.  0.
         -6    2    1    2    0  502  0.10683666143E+03  0.89868661943E+02  0.11836772391E+03  0.25111139931E+03  0.17191732947E+03 0.  0.
        -24    2    5    5    0    0  0.68544739091E+02  0.42998136770E+02  0.14576741979E+03  0.18450846558E+03  0.79044368409E+02 0.  0.
          5    1    3    3  501    0 -0.11713433176E+03 -0.75020383527E+02  0.54737037992E+02  0.14955515020E+03  0.47000000000E+01 0. -1.
        -11    1    4    4    0    0  0.14890785217E+02  0.20885103662E+02 -0.76698214394E+01  0.26772172124E+02  0.00000000000E+00 0.  1.
         12    1    4    4    0    0 -0.45931148818E+01 -0.35733382079E+02  0.60512229464E+02  0.70425146176E+02  0.00000000000E+00 0. -1.
         -5    1    5    5    0  502  0.38291922338E+02  0.46870525173E+02 -0.27399695876E+02  0.66602933722E+02  0.47000000000E+01 0.  1.
         11    1    6    6    0    0  0.71500749652E+02  0.27194882622E+02  0.59928395341E+02  0.97176804896E+02  0.00000000000E+00 0. -1.
        -12    1    6    6    0    0 -0.29560105614E+01  0.15803254148E+02  0.85839024449E+02  0.87331660688E+02  0.00000000000E+00 0.  1.
</event>
<event>
12    1  0.8133495E-002  0.1998148E+03  0.7818608E-02  0.1149922E+00
         21   -1    0    0  503  502  0.00000000000E+00  0.00000000000E+00  0.13628415371E+03  0.13628415371E+03  0.00000000000E+00 0. -1.
         21   -1    0    0  501  503 -0.00000000000E+00 -0.00000000000E+00 -0.36769599142E+03  0.36769599142E+03  0.00000000000E+00 0. -1.
          6    2    1    2  501    0 -0.22012475978E+02 -0.99305134504E+02 -0.22942234188E+03  0.30415545332E+03  0.17184257328E+03 0.  0.
         24    2    3    3    0    0  0.15212917670E+02 -0.99925949814E+02 -0.83624997396E+02  0.15360622216E+03  0.79906839420E+02 0.  0.
         -6    2    1    2    0  502  0.22012475978E+02  0.99305134504E+02 -0.19894958280E+01  0.19982469181E+03  0.17198805343E+03 0.  0.
        -24    2    5    5    0    0  0.61626068377E+02  0.56789217691E+02  0.45664555485E+02  0.12452636187E+03  0.79992347274E+02 0.  0.
          5    1    3    3  501    0 -0.37225393648E+02  0.62081531067E+00 -0.14579734449E+03  0.15054923116E+03  0.47000000000E+01 0. -1.
        -11    1    4    4    0    0  0.20071843160E+02 -0.25554321529E+02  0.99440666907E+01  0.33982152654E+02  0.00000000000E+00 0.  1.
         12    1    4    4    0    0 -0.48589254904E+01 -0.74371628285E+02 -0.93569064087E+02  0.11962406950E+03  0.00000000000E+00 0. -1.
         -5    1    5    5    0  502 -0.39613592399E+02  0.42515916813E+02 -0.47654051313E+02  0.75298329940E+02  0.47000000000E+01 0.  1.
         11    1    6    6    0    0  0.10030759848E+02  0.63006550616E+02  0.22819679163E+02  0.67758241718E+02  0.00000000000E+00 0. -1.
        -12    1    6    6    0    0  0.51595308529E+02 -0.62173329252E+01  0.22844876322E+02  0.56768120148E+02  0.00000000000E+00 0.  1.
</event>
<event>
12    1  0.8133495E-002  0.1764014E+03  0.7818608E-02  0.1171848E+00
         21   -1    0    0  501  502  0.00000000000E+00  0.00000000000E+00  0.13552556464E+03  0.13552556464E+03  0.00000000000E+00 0.  1.
         21   -1    0    0  502  503 -0.00000000000E+00 -0.00000000000E+00 -0.97376334257E+03  0.97376334257E+03  0.00000000000E+00 0.  1.
         -6    2    1    2    0  503 -0.11024720788E+02 -0.28299780317E+02 -0.90427859518E+03  0.92093059440E+03  0.17167108070E+03 0.  0.
        -24    2    3    3    0    0  0.40808603466E+02  0.31049071386E+02 -0.51325113866E+03  0.52201513787E+03  0.80272572371E+02 0.  0.
          6    2    1    2  501    0  0.11024720788E+02  0.28299780317E+02  0.66040817249E+02  0.18835831281E+03  0.17376720757E+03 0.  0.
         24    2    5    5    0    0 -0.96840936104E+01 -0.50590003100E+02  0.33826649589E+02  0.10053863666E+03  0.79439569210E+02 0.  0.
          5    1    5    5  501    0  0.20708814399E+02  0.78889783417E+02  0.32214167659E+02  0.87819676152E+02  0.47000000000E+01 0. -1.
        -13    1    6    6    0    0 -0.33854131441E+02 -0.29534410489E+02  0.47774605890E+02  0.65580458877E+02  0.00000000000E+00 0.  1.
         14    1    6    6    0    0  0.24170037830E+02 -0.21055592611E+02 -0.13947956301E+02  0.34958177783E+02  0.00000000000E+00 0. -1.
         -5    1    3    3    0  503 -0.51833324254E+02 -0.59348851704E+02 -0.39102745652E+03  0.39891545653E+03  0.47000000000E+01 0.  1.
         13    1    4    4    0    0 -0.69885970227E+01  0.44225417953E+02 -0.20808263087E+03  0.21284527092E+03  0.00000000000E+00 0. -1.
        -14    1    4    4    0    0  0.47797200489E+02 -0.13176346567E+02 -0.30516850779E+03  0.30916986695E+03  0.00000000000E+00 0.  1.
</event>
<event>
12    1  0.8133495E-002  0.2125989E+03  0.7818608E-02  0.1139534E+00
         21   -1    0    0  503  502  0.00000000000E+00  0.00000000000E+00  0.28025753110E+03  0.28025753110E+03  0.00000000000E+00 0.  1.
         21   -1    0    0  501  503 -0.00000000000E+00 -0.00000000000E+00 -0.16402038450E+03  0.16402038450E+03  0.00000000000E+00 0. -1.
          6    2    1    2  501    0  0.56403751838E+02 -0.11071826277E+03  0.29182571616E+02  0.21459241191E+03  0.17250612693E+03 0.  0.
         24    2    3    3    0    0 -0.22408451460E+01 -0.16094723921E+02 -0.32905901637E+02  0.87039005949E+02  0.78923562192E+02 0.  0.
         -6    2    1    2    0  502 -0.56403751838E+02  0.11071826277E+03  0.87054574990E+02  0.22968550370E+03  0.17244423634E+03 0.  0.
        -24    2    5    5    0    0 -0.63202914437E+02  0.12712606643E+02  0.86104523346E+02  0.13132733249E+03  0.75343616561E+02 0.  0.
          5    1    3    3  501    0  0.58644596984E+02 -0.94623538853E+02  0.62088473253E+02  0.12755340596E+03  0.47000000000E+01 0. -1.
        -13    1    4    4    0    0 -0.16163580175E+02 -0.35765454594E+02  0.75320649333E+01  0.39964497601E+02  0.00000000000E+00 0.  1.
         14    1    4    4    0    0  0.13922735029E+02  0.19670730673E+02 -0.40437966570E+02  0.47074508348E+02  0.00000000000E+00 0. -1.
         -5    1    5    5    0  502  0.67991625991E+01  0.98005656130E+02  0.95005164368E+00  0.98358171209E+02  0.47000000000E+01 0.  1.
         13    1    6    6    0    0 -0.22537812188E+02 -0.25167359861E+02  0.67563921218E+01  0.34452834645E+02  0.00000000000E+00 0. -1.
        -14    1    6    6    0    0 -0.40665102250E+02  0.37879966504E+02  0.79348131224E+02  0.96874497842E+02  0.00000000000E+00 0.  1.
</event>
<event>
12    1  0.8133495E-002  0.2538506E+03  0.7818608E-02  0.1111431E+00
         21   -1    0    0  503  502  0.00000000000E+00  0.00000000000E+00  0.10631455077E+04  0.10631455077E+04  0.00000000000E+00 0. -1.
         21   -1    0    0  501  503 -0.00000000000E+00 -0.00000000000E+00 -0.61360657343E+02  0.61360657343E+02  0.00000000000E+00 0.  1.
          6    2    1    2  501    0 -0.53454589315E+02 -0.17440715383E+03  0.40779639825E+03  0.47854763481E+03  0.17156540423E+03 0.  0.
         24    2    3    3    0    0 -0.87549810418E+02 -0.67052450860E+02  0.25227964663E+03  0.28646674979E+03  0.79102327174E+02 0.  0.
         -6    2    1    2    0  502  0.53454589315E+02  0.17440715383E+03  0.59398845207E+03  0.64595853020E+03  0.17653581256E+03 0.  0.
        -24    2    5    5    0    0  0.47695213325E+01  0.31599114968E+02  0.34961557714E+03  0.35872245341E+03  0.73685102959E+02 0.  0.
          5    1    3    3  501    0  0.34095221103E+02 -0.10735470297E+03  0.15551675162E+03  0.19208088502E+03  0.47000000000E+01 0. -1.
        -11    1    4    4    0    0  0.45769391851E+01 -0.33551125095E+02  0.38434392883E+02  0.51223324020E+02  0.00000000000E+00 0.  1.
         12    1    4    4    0    0 -0.92126749603E+02 -0.33501325765E+02  0.21384525375E+03  0.23524342577E+03  0.00000000000E+00 0. -1.
         -5    1    5    5    0  502  0.48685067983E+02  0.14280803887E+03  0.24437287493E+03  0.28723607679E+03  0.47000000000E+01 0.  1.
         11    1    6    6    0    0  0.32402192825E+02  0.13803979645E+00  0.87977015582E+02  0.93754340836E+02  0.00000000000E+00 0. -1.
        -12    1    6    6    0    0 -0.27632671492E+02  0.31461075172E+02  0.26163856156E+03  0.26496811257E+03  0.00000000000E+00 0.  1.
</event>
<event>
12    1  0.8133495E-002  0.2094842E+03  0.7818608E-02  0.1142114E+00
         21   -1    0    0  503  502  0.00000000000E+00  0.00000000000E+00  0.31376855885E+03  0.31376855885E+03  0.00000000000E+00 0.  1.
         21   -1    0    0  501  503 -0.00000000000E+00 -0.00000000000E+00 -0.19501935704E+03  0.19501935704E+03  0.00000000000E+00 0. -1.
          6    2    1    2  501    0 -0.11454925641E+03  0.27709914135E+02 -0.76416619936E+02  0.22298681655E+03  0.17318847846E+03 0.  0.
         24    2    3    3    0    0 -0.21966025255E+02  0.51708224262E+02 -0.82052083951E+02  0.12706277351E+03  0.79095873530E+02 0.  0.
         -6    2    1    2    0  502  0.11454925641E+03 -0.27709914135E+02  0.19516582175E+03  0.28580109934E+03  0.17234616015E+03 0.  0.
        -24    2    5    5    0    0  0.12004323046E+03  0.13009335810E+02  0.84808887746E+02  0.16794956583E+03  0.80217761275E+02 0.  0.
          5    1    3    3  501    0 -0.92583231150E+02 -0.23998310127E+02  0.56354640158E+01  0.95924043044E+02  0.47000000000E+01 0. -1.
        -13    1    4    4    0    0  0.21557487364E+02  0.45898373933E+02 -0.29823491370E+02  0.58828790814E+02  0.00000000000E+00 0.  1.
         14    1    4    4    0    0 -0.43523512620E+02  0.58098503294E+01 -0.52228592582E+02  0.68233982697E+02  0.00000000000E+00 0. -1.
         -5    1    5    5    0  502 -0.54939740589E+01 -0.40719249945E+02  0.11035693400E+03  0.11785153350E+03  0.47000000000E+01 0.  1.
         11    1    6    6    0    0  0.35296497753E+02  0.17265318838E+02 -0.10169720062E+02  0.40587648298E+02  0.00000000000E+00 0. -1.
        -12    1    6    6    0    0  0.84746732712E+02 -0.42559830283E+01  0.94978607808E+02  0.12736191753E+03  0.00000000000E+00 0.  1.
</event>
<event>
12    1  0.8133495E-002  0.1890829E+03  0.7818608E-02  0.1159944E+00
         21   -1    0    0  503  502  0.00000000000E+00  0.00000000000E+00  0.26798827749E+02  0.26798827749E+02  0.00000000000E+00 0. -1.
         21   -1    0    0  501  503 -0.00000000000E+00 -0.00000000000E+00 -0.15637607464E+04  0.15637607464E+04  0.00000000000E+00 0.  1.
          6    2    1    2  501    0  0.66020172859E+02 -0.11469510983E+02 -0.10911997844E+04  0.11074607487E+04  0.17681099394E+03 0.  0.
         24    2    3    3    0    0 -0.29169766307E+02 -0.28235563915E+01 -0.35201337345E+03  0.36210545278E+03  0.79674940299E+02 0.  0.
         -6    2    1    2    0  502 -0.66020172859E+02  0.11469510983E+02 -0.44576213418E+03  0.48309882536E+03  0.17375379675E+03 0.  0.
        -24    2    5    5    0    0 -0.10489354580E+03  0.39593818418E+02 -0.30933303974E+03  0.33840223382E+03  0.79112678964E+02 0.  0.
          5    1    3    3  501    0  0.95189939165E+02 -0.86459545918E+01 -0.73918641098E+03  0.74535529596E+03  0.47000000000E+01 0. -1.
        -11    1    4    4    0    0  0.10025855601E+02  0.10136083746E+02 -0.26915633803E+03  0.26953365704E+03  0.00000000000E+00 0.  1.
         12    1    4    4    0    0 -0.39195621908E+02 -0.12959640137E+02 -0.82857035416E+02  0.92571795743E+02  0.00000000000E+00 0. -1.
         -5    1    5    5    0  502  0.38873372938E+02 -0.28124307435E+02 -0.13642909444E+03  0.14469659153E+03  0.47000000000E+01 0.  1.
         13    1    6    6    0    0 -0.37914068682E+02  0.54284680886E+02 -0.12033604878E+03  0.13735016498E+03  0.00000000000E+00 0. -1.
        -14    1    6    6    0    0 -0.66979477114E+02 -0.14690862467E+02 -0.18899699096E+03  0.20105206885E+03  0.00000000000E+00 0.  1.
</event>
<event>
12    1  0.8133495E-002  0.3250302E+03  0.7818608E-02  0.1073411E+00
         21   -1    0    0  503  502  0.00000000000E+00  0.00000000000E+00  0.20508295271E+03  0.20508295271E+03  0.00000000000E+00 0. -1.
         21   -1    0    0  501  503 -0.00000000000E+00 -0.00000000000E+00 -0.51440538161E+03  0.51440538161E+03  0.00000000000E+00 0. -1.
          6    2    1    2  501    0 -0.27453646046E+03  0.25536517562E+02 -0.15767302741E+03  0.36125533353E+03  0.17211115763E+03 0.  0.
         24    2    3    3    0    0 -0.82302203909E+02  0.50271605121E+02 -0.38903511056E+02  0.13389191967E+03  0.84336681997E+02 0.  0.
         -6    2    1    2    0  502  0.27453646046E+03 -0.25536517562E+02 -0.15164940150E+03  0.35823300079E+03  0.17120443927E+03 0.  0.
        -24    2    5    5    0    0  0.23135084795E+03  0.22110086828E+02 -0.72765166383E+02  0.25635067363E+03  0.80055153769E+02 0.  0.
          5    1    3    3  501    0 -0.19223425656E+03 -0.24735087558E+02 -0.11876951635E+03  0.22736341387E+03  0.47000000000E+01 0. -1.
        -13    1    4    4    0    0 -0.17137432138E+01  0.17568387230E+02 -0.43351025245E+02  0.46807013742E+02  0.00000000000E+00 0.  1.
         14    1    4    4    0    0 -0.80588460695E+02  0.32703217891E+02  0.44475141896E+01  0.87084905925E+02  0.00000000000E+00 0. -1.
         -5    1    5    5    0  502  0.43185612519E+02 -0.47646604391E+02 -0.78884235113E+02  0.10188232716E+03  0.47000000000E+01 0.  1.
         11    1    6    6    0    0  0.10613632579E+03 -0.29195774887E+02 -0.25292720101E+02  0.11294704340E+03  0.00000000000E+00 0. -1.
        -12    1    6    6    0    0  0.12521452216E+03  0.51305861715E+02 -0.47472446282E+02  0.14340363022E+03  0.00000000000E+00 0.  1.
</event>
<event>
12    1  0.8133495E-002  0.2209473E+03  0.7818608E-02  0.1133442E+00
         21   -1    0    0  503  502  0.00000000000E+00  0.00000000000E+00  0.11476070990E+03  0.11476070990E+03  0.00000000000E+00 0. -1.
         21   -1    0    0  501  503 -0.00000000000E+00 -0.00000000000E+00 -0.65942945470E+03  0.65942945470E+03  0.00000000000E+00 0.  1.
          6    2    1    2  501    0  0.13376745941E+03  0.18702991154E+02 -0.50372153600E+03  0.54948065287E+03  0.17306087650E+03 0.  0.
         24    2    3    3    0    0  0.72305259416E+02  0.65085160704E+02 -0.20224154160E+03  0.23828748986E+03  0.80094681425E+02 0.  0.
         -6    2    1    2    0  502 -0.13376745941E+03 -0.18702991154E+02 -0.40947208796E+02  0.22470951173E+03  0.17485467016E+03 0.  0.
        -24    2    5    5    0    0 -0.12924238468E+03  0.30305475444E+02 -0.66749372658E+02  0.16894081299E+03  0.80395918448E+02 0.  0.
          5    1    3    3  501    0  0.61462199994E+02 -0.46382169550E+02 -0.30147999440E+03  0.31119316301E+03  0.47000000000E+01 0. -1.
        -13    1    4    4    0    0  0.74988961933E+01  0.55005059069E+02 -0.12619418173E+03  0.13786501177E+03  0.00000000000E+00 0.  1.
         14    1    4    4    0    0  0.64806363222E+02  0.10080101634E+02 -0.76047359869E+02  0.10042247809E+03  0.00000000000E+00 0. -1.
         -5    1    5    5    0  502 -0.45250747323E+01 -0.49008466598E+02  0.25802163862E+02  0.55768698744E+02  0.47000000000E+01 0.  1.
         13    1    6    6    0    0 -0.10074667790E+03  0.85995295959E+01 -0.96993371932E+01  0.10157717341E+03  0.00000000000E+00 0. -1.
        -14    1    6    6    0    0 -0.28495706781E+02  0.21705945848E+02 -0.57050035465E+02  0.67363639574E+02  0.00000000000E+00 0.  1.
</event>
<event>
12    1  0.8133495E-002  0.1777937E+03  0.7818608E-02  0.1169984E+00
         21   -1    0    0  501  502  0.00000000000E+00  0.00000000000E+00  0.27340037551E+04  0.27340037551E+04  0.00000000000E+00 0.  1.
         21   -1    0    0  502  503 -0.00000000000E+00 -0.00000000000E+00 -0.23240199091E+02  0.23240199091E+02  0.00000000000E+00 0.  1.
         -6    2    1    2    0  503  0.43590261015E+02 -0.65874934103E+01  0.37801968543E+03  0.41774332790E+03  0.17224139894E+03 0.  0.
        -24    2    3    3    0    0  0.79687160066E+02  0.37335366514E+02  0.23562799550E+03  0.26434943263E+03  0.81339395107E+02 0.  0.
          6    2    1    2  501    0 -0.43590261015E+02  0.65874934103E+01  0.23327438706E+04  0.23395006263E+04  0.17212120372E+03 0.  0.
         24    2    5    5    0    0 -0.92584138839E+01 -0.61882192190E+02  0.12877010565E+04  0.12916440775E+04  0.79090379366E+02 0.  0.
          5    1    5    5  501    0 -0.34331847131E+02  0.68469685600E+02  0.10450428141E+04  0.10478565488E+04  0.47000000000E+01 0. -1.
        -11    1    6    6    0    0 -0.30777611029E+02 -0.12559732805E+02  0.84966093910E+03  0.85031095468E+03  0.00000000000E+00 0.  1.
         12    1    6    6    0    0  0.21519197145E+02 -0.49322459385E+02  0.43804011741E+03  0.44133312283E+03  0.00000000000E+00 0. -1.
         -5    1    3    3    0  503 -0.36096899051E+02 -0.43922859924E+02  0.14239168994E+03  0.15339389528E+03  0.47000000000E+01 0.  1.
         11    1    4    4    0    0 -0.11867710828E+02 -0.34683264840E+01  0.67388501723E+02  0.68513371056E+02  0.00000000000E+00 0. -1.
        -12    1    4    4    0    0  0.91554870894E+02  0.40803692998E+02  0.16823949377E+03  0.19583606157E+03  0.00000000000E+00 0.  1.
</event>
<event>
12    1  0.8133495E-002  0.1788351E+03  0.7818608E-02  0.1169992E+00
         21   -1    0    0  501  502  0.00000000000E+00  0.00000000000E+00  0.32718789260E+03  0.32718789260E+03  0.00000000000E+00 0. -1.
         21   -1    0    0  502  503 -0.00000000000E+00 -0.00000000000E+00 -0.12415892454E+03  0.12415892454E+03  0.00000000000E+00 0. -1.
         -6    2    1    2    0  503 -0.28042264173E+02 -0.43394239403E+02 -0.79889769987E+01  0.17474136543E+03  0.16673719575E+03 0.  0.
        -24    2    3    3    0    0 -0.59435626241E+02  0.22322612412E+02 -0.64503869231E+01  0.10174338564E+03  0.79241506410E+02 0.  0.
          6    2    1    2  501    0  0.28042264173E+02  0.43394239403E+02  0.21101794506E+03  0.27660545170E+03  0.17120915332E+03 0.  0.
         24    2    5    5    0    0 -0.31662244384E+02 -0.20159067717E+02  0.73440719763E+02  0.11365382051E+03  0.78196968395E+02 0.  0.
          5    1    5    5  501    0  0.59704508557E+02  0.63553307120E+02  0.13757722530E+03  0.16295163119E+03  0.47000000000E+01 0. -1.
        -11    1    6    6    0    0 -0.37760134608E+02  0.11194708330E+02  0.71529442954E+02  0.81655437477E+02  0.00000000000E+00 0.  1.
         12    1    6    6    0    0  0.60978902242E+01 -0.31353776046E+02  0.19112768081E+01  0.31998383031E+02  0.00000000000E+00 0. -1.
         -5    1    3    3    0  503  0.31393362068E+02 -0.65716851815E+02 -0.15385900756E+01  0.72997979793E+02  0.47000000000E+01 0.  1.
         11    1    4    4    0    0 -0.33006494556E+01  0.15198819084E+02 -0.35046713377E+02  0.38342802544E+02  0.00000000000E+00 0. -1.
        -12    1    4    4    0    0 -0.56134976785E+02  0.71237933275E+01  0.28596326454E+02  0.63400583094E+02  0.00000000000E+00 0.  1.
</event>
<event>
12    1  0.8133495E-002  0.2386941E+03  0.7818608E-02  0.1121163E+00
         21   -1    0    0  501  502  0.00000000000E+00  0.00000000000E+00  0.33599612402E+03  0.33599612402E+03  0.00000000000E+00 0. -1.
         21   -1    0    0  502  503 -0.00000000000E+00 -0.00000000000E+00 -0.19197325994E+03  0.19197325994E+03  0.00000000000E+00 0. -1.
         -6    2    1    2    0  503  0.13442164294E+03 -0.94489107212E+02 -0.22661414407E+02  0.23683622311E+03  0.16905764520E+03 0.  0.
        -24    2    3    3    0    0  0.44643146503E+02  0.97676972161E+01  0.20182364480E+02  0.92658072610E+02  0.78036992159E+02 0.  0.
          6    2    1    2  501    0 -0.13442164294E+03  0.94489107212E+02  0.16668427849E+03  0.29113316085E+03  0.17314011430E+03 0.  0.
         24    2    5    5    0    0 -0.15695947534E+03  0.41425811760E+02  0.13262179435E+03  0.22400634029E+03  0.78980537953E+02 0.  0.
          5    1    5    5  501    0  0.22537832393E+02  0.53063295452E+02  0.34062484145E+02  0.67126820566E+02  0.47000000000E+01 0. -1.
        -11    1    6    6    0    0 -0.19919858972E+02  0.21492864941E+02 -0.38782373284E+01  0.29559850297E+02  0.00000000000E+00 0.  1.
         12    1    6    6    0    0 -0.13703961637E+03  0.19932946819E+02  0.13650003167E+03  0.19444648999E+03  0.00000000000E+00 0. -1.
         -5    1    3    3    0  503  0.89778496441E+02 -0.10425680443E+03 -0.42843778888E+02  0.14417815050E+03  0.47000000000E+01 0.  1.
         13    1    4    4    0    0  0.63865118977E+02 -0.50721734906E+01  0.55492375427E+01  0.64306099269E+02  0.00000000000E+00 0. -1.
        -14    1    4    4    0    0 -0.19221972474E+02  0.14839870707E+02  0.14633126938E+02  0.28351973342E+02  0.00000000000E+00 0.  1.
</event>
<event>
12    1  0.8133495E-002  0.1918897E+03  0.7818608E-02  0.1156851E+00
         21   -1    0    0  503  502  0.00000000000E+00  0.00000000000E+00  0.12811216513E+03  0.12811216513E+03  0.00000000000E+00 0.  1.
         21   -1    0    0  501  503 -0.00000000000E+00 -0.00000000000E+00 -0.45452886975E+03  0.45452886975E+03  0.00000000000E+00 0.  1.
          6    2    1    2  501    0  0.73199411571E+02 -0.43935860440E+02 -0.34024648824E+03  0.39062683275E+03  0.17185207597E+03 0.  0.
         24    2    3    3    0    0  0.43260136335E+02 -0.28120037517E+02 -0.34314830706E+03  0.35631923871E+03  0.80934932701E+02 0.  0.
         -6    2    1    2    0  502 -0.73199411571E+02  0.43935860440E+02  0.13829783630E+02  0.19201420213E+03  0.17143417750E+03 0.  0.
        -24    2    5    5    0    0 -0.10624395145E+03  0.64944887840E+02  0.25872814640E+02  0.15077774442E+03  0.80987097727E+02 0.  0.
          5    1    3    3  501    0  0.29939275236E+02 -0.15815822923E+02  0.29018188169E+01  0.34307594040E+02  0.47000000000E+01 0. -1.
        -11    1    4    4    0    0  0.45030963556E+02 -0.14745133848E+02 -0.81128612311E+02  0.93952426187E+02  0.00000000000E+00 0.  1.
         12    1    4    4    0    0 -0.17708272207E+01 -0.13374903669E+02 -0.26201969475E+03  0.26236681252E+03  0.00000000000E+00 0. -1.
         -5    1    5    5    0  502  0.33044539882E+02 -0.21009027400E+02 -0.12043031009E+02  0.41236457707E+02  0.47000000000E+01 0.  1.
         13    1    6    6    0    0 -0.94274739626E+01 -0.17345913753E+02  0.11642594200E+02  0.22919598359E+02  0.00000000000E+00 0. -1.
        -14    1    6    6    0    0 -0.96816477490E+02  0.82290801593E+02  0.14230220440E+02  0.12785814606E+03  0.00000000000E+00 0.  1.
</event>
<event>
12    1  0.8133495E-002  0.2511209E+03  0.7818608E-02  0.1112692E+00
         21   -1    0    0  501  502  0.00000000000E+00  0.00000000000E+00  0.18668077591E+03  0.18668077591E+03  0.00000000000E+00 0.  1.
         21   -1    0    0  502  503 -0.00000000000E+00 -0.00000000000E+00 -0.51667315145E+03  0.51667315145E+03  0.00000000000E+00 0.  1.
         -6    2    1    2    0  503  0.14995963464E+03  0.10392533468E+03 -0.37250591607E+03  0.44924644923E+03  0.17254955066E+03 0.  0.
        -24    2    3    3    0    0  0.10682812059E+03  0.81325202610E+02 -0.36847768431E+03  0.40016070665E+03  0.79540878690E+02 0.  0.
          6    2    1    2  501    0 -0.14995963464E+03 -0.10392533468E+03  0.42513540532E+02  0.25410747812E+03  0.17168238728E+03 0.  0.
         24    2    5    5    0    0 -0.52318206912E+02 -0.11670806571E+03  0.18821505062E+02  0.15271394201E+03  0.81297796128E+02 0.  0.
          5    1    5    5  501    0 -0.97641427726E+02  0.12782731032E+02  0.23692035470E+02  0.10139353611E+03  0.47000000000E+01 0. -1.
        -11    1    6    6    0    0 -0.70860611774E+02 -0.99816804768E+02  0.28742128860E+02  0.12574072843E+03  0.00000000000E+00 0.  1.
         12    1    6    6    0    0  0.18542404861E+02 -0.16891260942E+02 -0.99206237974E+01  0.26973213579E+02  0.00000000000E+00 0. -1.
         -5    1    3    3    0  503  0.43131514051E+02  0.22600132068E+02 -0.40282317562E+01  0.49085742582E+02  0.47000000000E+01 0.  1.
         11    1    4    4    0    0  0.50428563461E+02 -0.50236073616E+01 -0.91384803931E+02  0.10449621540E+03  0.00000000000E+00 0. -1.
        -12    1    4    4    0    0  0.56399557127E+02  0.86348809972E+02 -0.27709288038E+03  0.29566449125E+03  0.00000000000E+00 0.  1.
</event>
<event>
12    1  0.8133495E-002  0.2000309E+03  0.7818608E-02  0.1149719E+00
         21   -1    0    0  503  502  0.00000000000E+00  0.00000000000E+00  0.49799009136E+03  0.49799009136E+03  0.00000000000E+00 0. -1.
         21   -1    0    0  501  503 -0.00000000000E+00 -0.00000000000E+00 -0.91381690694E+02  0.91381690694E+02  0.00000000000E+00 0. -1.
          6    2    1    2  501    0 -0.31828827894E+02 -0.97122138854E+02  0.10086463593E+03  0.22402243334E+03  0.17194938708E+03 0.  0.
         24    2    3    3    0    0 -0.64791628750E+02 -0.75182899993E+02  0.12395851722E+03  0.17794322116E+03  0.80297274903E+02 0.  0.
         -6    2    1    2    0  502  0.31828827894E+02  0.97122138854E+02  0.30574376474E+03  0.36534934872E+03  0.17191600504E+03 0.  0.
        -24    2    5    5    0    0  0.84596756511E+02  0.59974652122E+02  0.22885702644E+03  0.26486029166E+03  0.83796571768E+02 0.  0.
          5    1    3    3  501    0  0.32962800856E+02 -0.21939238861E+02 -0.23093881293E+02  0.46079212182E+02  0.47000000000E+01 0. -1.
        -11    1    4    4    0    0  0.86432506727E+01  0.82805960035E+01  0.30301487479E+02  0.32579966172E+02  0.00000000000E+00 0.  1.
         12    1    4    4    0    0 -0.73434879423E+02 -0.83463495996E+02  0.93657029745E+02  0.14536325499E+03  0.00000000000E+00 0. -1.
         -5    1    5    5    0  502 -0.52767928617E+02  0.37147486731E+02  0.76886738303E+02  0.10048905706E+03  0.47000000000E+01 0.  1.
         13    1    6    6    0    0 -0.29522430268E+01  0.20454209709E+02  0.11056678243E+03  0.11248157098E+03  0.00000000000E+00 0. -1.
        -14    1    6    6    0    0  0.87548999538E+02  0.39520442414E+02  0.11829024401E+03  0.15237872068E+03  0.00000000000E+00 0.  1.
</event>
<event>
12    1  0.8133495E-002  0.2347723E+03  0.7818608E-02  0.1123368E+00
         21   -1    0    0  501  502  0.00000000000E+00  0.00000000000E+00  0.27589797744E+03  0.27589797744E+03  0.00000000000E+00 0. -1.
         21   -1    0    0  502  503 -0.00000000000E+00 -0.00000000000E+00 -0.25153883553E+03  0.25153883553E+03  0.00000000000E+00 0.  1.
         -6    2    1    2    0  503  0.12034908469E+03 -0.10521276754E+03 -0.10769079652E+03  0.25829308565E+03  0.17194296089E+03 0.  0.
        -24    2    3    3    0    0  0.94163874617E+02 -0.23653681661E+01 -0.23804848265E+02  0.12293358248E+03  0.75323068511E+02 0.  0.
          6    2    1    2  501    0 -0.12034908469E+03  0.10521276754E+03  0.13204993843E+03  0.26914372732E+03  0.17160282945E+03 0.  0.
         24    2    5    5    0    0  0.89742204946E+00 -0.10899040033E+01  0.45731195104E+02  0.86184746060E+02  0.73037490309E+02 0.  0.
          5    1    5    5  501    0 -0.12124650674E+03  0.10630267154E+03  0.86318743331E+02  0.18295898126E+03  0.47000000000E+01 0. -1.
        -11    1    6    6    0    0  0.27997093136E+02  0.21724841392E+02  0.12399112075E+02  0.37543893482E+02  0.00000000000E+00 0.  1.
         12    1    6    6    0    0 -0.27099671086E+02 -0.22814745395E+02  0.33332083029E+02  0.48640852577E+02  0.00000000000E+00 0. -1.
         -5    1    3    3    0  503  0.26185210071E+02 -0.10284739937E+03 -0.83885948258E+02  0.13535950317E+03  0.47000000000E+01 0.  1.
         11    1    4    4    0    0  0.94132800578E+02 -0.20484169293E+02 -0.33980261680E+02  0.10215303970E+03  0.00000000000E+00 0. -1.
        -12    1    4    4    0    0  0.31074039058E-01  0.18118801127E+02  0.10175413415E+02  0.20780542775E+02  0.00000000000E+00 0.  1.
</event>
<event>
12    1  0.8133495E-002  0.1911252E+03  0.7818608E-02  0.1158004E+00
         21   -1    0    0  503  502  0.00000000000E+00  0.00000000000E+00  0.21503128399E+03  0.21503128399E+03  0.00000000000E+00 0.  1.
         21   -1    0    0  501  503 -0.00000000000E+00 -0.00000000000E+00 -0.18744845915E+03  0.18744845915E+03  0.00000000000E+00 0.  1.
          6    2    1    2  501    0 -0.67062001038E+02 -0.40458386570E+02 -0.51604467468E+02  0.19559945492E+03  0.17164478633E+03 0.  0.
         24    2    3    3    0    0 -0.76842782609E+02 -0.47544528664E+02 -0.93439322130E+02  0.15180308335E+03  0.78409015749E+02 0.  0.
         -6    2    1    2    0  502  0.67062001038E+02  0.40458386570E+02  0.79187292303E+02  0.20688028821E+03  0.17434056717E+03 0.  0.
        -24    2    5    5    0    0 -0.10512109924E+02  0.77201089729E+01 -0.13734527032E+02  0.81396854964E+02  0.79162530452E+02 0.  0.
          5    1    3    3  501    0  0.97807815715E+01  0.70861420934E+01  0.41834854662E+02  0.43796371568E+02  0.47000000000E+01 0. -1.
        -13    1    4    4    0    0 -0.12473901455E+02 -0.34872461671E+02 -0.75016613601E+02  0.83661096794E+02  0.00000000000E+00 0.  1.
         14    1    4    4    0    0 -0.64368881154E+02 -0.12672066993E+02 -0.18422708529E+02  0.68141986561E+02  0.00000000000E+00 0. -1.
         -5    1    5    5    0  502  0.77574110962E+02  0.32738277597E+02  0.92921819335E+02  0.12548343325E+03  0.47000000000E+01 0.  1.
         11    1    6    6    0    0 -0.75509080669E+01  0.33011847109E+02  0.19847439546E+02  0.39251995092E+02  0.00000000000E+00 0. -1.
        -12    1    6    6    0    0 -0.29612018575E+01 -0.25291738136E+02 -0.33581966578E+02  0.42144859872E+02  0.00000000000E+00 0.  1.
</event>
<event>
12    1  0.8133495E-002  0.1949410E+03  0.7818608E-02  0.1156948E+00
         21   -1    0    0  501  502  0.00000000000E+00  0.00000000000E+00  0.31530691336E+03  0.31530691336E+03  0.00000000000E+00 0. -1.
         21   -1    0    0  502  503 -0.00000000000E+00 -0.00000000000E+00 -0.12332653462E+03  0.12332653462E+03  0.00000000000E+00 0. -1.
         -6    2    1    2    0  503  0.41857688214E+01  0.92207450531E+02  0.34914763449E+02  0.19804305789E+03  0.17170404037E+03 0.  0.
        -24    2    3    3    0    0  0.52354894199E+02  0.10399006607E+03  0.44290628175E+02  0.14735685160E+03  0.78723650715E+02 0.  0.
          6    2    1    2  501    0 -0.41857688214E+01 -0.92207450531E+02  0.15706561529E+03  0.24059039008E+03  0.15714449943E+03 0.  0.
         24    2    5    5    0    0  0.63086502538E+01 -0.56971304687E+02  0.17358610814E+03  0.20001040130E+03  0.81157224354E+02 0.  0.
          5    1    5    5  501    0 -0.10494419075E+02 -0.35236145844E+02 -0.16520492847E+02  0.40579988783E+02  0.47000000000E+01 0. -1.
        -11    1    6    6    0    0  0.88656010966E+01  0.13178120295E+02  0.38658501102E+01  0.16346453267E+02  0.00000000000E+00 0.  1.
         12    1    6    6    0    0 -0.25569508427E+01 -0.70149424982E+02  0.16972025803E+03  0.18366394803E+03  0.00000000000E+00 0. -1.
         -5    1    3    3    0  503 -0.48169125378E+02 -0.11782615541E+02 -0.93758647253E+01  0.50686206289E+02  0.47000000000E+01 0.  1.
         11    1    4    4    0    0  0.52881628317E+01  0.35115623128E+02 -0.21148636156E+02  0.41332027110E+02  0.00000000000E+00 0. -1.
        -12    1    4    4    0    0  0.47066731367E+02  0.68874442945E+02  0.65439264331E+02  0.10602482449E+03  0.00000000000E+00 0.  1.
</event>
<event>
12    1  0.8133495E-002  0.1759692E+03  0.7818608E-02  0.1172115E+00
         21   -1    0    0  503  502  0.00000000000E+00  0.00000000000E+00  0.67739252666E+03  0.67739252666E+03  0.00000000000E+00 0.  1.
         21   -1    0    0  501  503 -0.00000000000E+00 -0.00000000000E+00 -0.45347217709E+02  0.45347217709E+02  0.00000000000E+00 0.  1.
          6    2    1    2  501    0  0.42310386791E+01 -0.33041920328E+02  0.31897518194E+03  0.36429429283E+03  0.17278742693E+03 0.  0.
         24    2    3    3    0    0  0.17964036712E+02 -0.62740913927E+02  0.10209960053E+03  0.14491395353E+03  0.79477019357E+02 0.  0.
         -6    2    1    2    0  502 -0.42310386791E+01  0.33041920328E+02  0.31307012702E+03  0.35844545155E+03  0.17134925479E+03 0.  0.
        -24    2    5    5    0    0  0.42218067888E+02 -0.30830222380E+02  0.13806070534E+03  0.16638411293E+03  0.76746640374E+02 0.  0.
          5    1    3    3  501    0 -0.13732998033E+02  0.29698993599E+02  0.21687558141E+03  0.21938033929E+03  0.47000000000E+01 0. -1.
        -13    1    4    4    0    0 -0.23706460113E+02 -0.17687452501E+02  0.69257549689E+02  0.75309032765E+02  0.00000000000E+00 0.  1.
         14    1    4    4    0    0  0.41670496825E+02 -0.45053461426E+02  0.32842050839E+02  0.69604920770E+02  0.00000000000E+00 0. -1.
         -5    1    5    5    0  502 -0.46449106568E+02  0.63872142708E+02  0.17500942168E+03  0.19206133862E+03  0.47000000000E+01 0.  1.
         11    1    6    6    0    0 -0.14286442606E+02 -0.23433503986E+02  0.16231344727E+02  0.31885546930E+02  0.00000000000E+00 0. -1.
        -12    1    6    6    0    0  0.56504510494E+02 -0.73967183937E+01  0.12182936061E+03  0.13449856600E+03  0.00000000000E+00 0.  1.
</event>
<event>
12    1  0.8133495E-002  0.2528733E+03  0.7818608E-02  0.1112425E+00
         21   -1    0    0  501  502  0.00000000000E+00  0.00000000000E+00  0.15376042696E+03  0.15376042696E+03  0.00000000000E+00 0.  1.
         21   -1    0    0  502  503 -0.00000000000E+00 -0.00000000000E+00 -0.40882536607E+03  0.40882536607E+03  0.00000000000E+00 0.  1.
         -6    2    1    2    0  503 -0.15351866739E+03 -0.10020138461E+03 -0.10694430777E+03  0.27455784184E+03  0.17417412218E+03 0.  0.
        -24    2    3    3    0    0 -0.14672167950E+03 -0.58166452505E+02 -0.19440956482E+02  0.17713063286E+03  0.78017452397E+02 0.  0.
          6    2    1    2  501    0  0.15351866739E+03  0.10020138461E+03 -0.14812063134E+03  0.28802795119E+03  0.16556594010E+03 0.  0.
         24    2    5    5    0    0  0.15183589961E+03  0.12705307926E+03 -0.12947403631E+03  0.25495786321E+03  0.95096585495E+02 0.  0.
          5    1    5    5  501    0  0.16827677737E+01 -0.26851694646E+02 -0.18646595036E+02  0.33070087983E+02  0.47000000000E+01 0. -1.
        -11    1    6    6    0    0  0.56969055864E+02  0.40355596461E+02  0.36662165793E+01  0.69910575993E+02  0.00000000000E+00 0.  1.
         12    1    6    6    0    0  0.94866843749E+02  0.86697482798E+02 -0.13314025288E+03  0.18504728721E+03  0.00000000000E+00 0. -1.
         -5    1    3    3    0  503 -0.67969878910E+01 -0.42034932107E+02 -0.87503351291E+02  0.97427208976E+02  0.47000000000E+01 0.  1.
         11    1    4    4    0    0  0.56531241244E+01 -0.22047453559E+01  0.10441754174E+02  0.12076793642E+02  0.00000000000E+00 0. -1.
        -12    1    4    4    0    0 -0.15237480362E+03 -0.55961707149E+02 -0.29882710656E+02  0.16505383922E+03  0.00000000000E+00 0.  1.
</event>
<event>
12    1  0.8133495E-002  0.1900425E+03  0.7818608E-02  0.1158676E+00
         21   -1    0    0  503  502  0.00000000000E+00  0.00000000000E+00  0.36731677700E+04  0.36731677700E+04  0.00000000000E+00 0.  1.
         21   -1    0    0  501  503 -0.00000000000E+00 -0.00000000000E+00 -0.77188504823E+02  0.77188504823E+02  0.00000000000E+00 0.  1.
          6    2    1    2  501    0  0.70421408689E+02 -0.34138353174E+02  0.46232190654E+02  0.19558522631E+03  0.17318072450E+03 0.  0.
         24    2    3    3    0    0 -0.10326939394E+02 -0.50711193882E+02  0.59307158149E+02  0.11199097087E+03  0.79664092832E+02 0.  0.
         -6    2    1    2    0  502 -0.70421408689E+02  0.34138353174E+02  0.35497470745E+04  0.35547710485E+04  0.17195439021E+03 0.  0.
        -24    2    5    5    0    0 -0.66528558610E+02 -0.37259757612E+02  0.17042827947E+04  0.17079160617E+04  0.81136247070E+02 0.  0.
          5    1    3    3  501    0  0.80748348082E+02  0.16572840708E+02 -0.13074967495E+02  0.83594255438E+02  0.47000000000E+01 0. -1.
        -13    1    4    4    0    0 -0.99653846442E+01 -0.52401241549E+02  0.68648313138E+00  0.53344824173E+02  0.00000000000E+00 0.  1.
         14    1    4    4    0    0 -0.36155474952E+00  0.16900476669E+01  0.58620675018E+02  0.58646146698E+02  0.00000000000E+00 0. -1.
         -5    1    5    5    0  502 -0.38928500785E+01  0.71398110786E+02  0.18454642798E+04  0.18468549869E+04  0.47000000000E+01 0.  1.
         11    1    6    6    0    0 -0.12734760997E+02 -0.37732753530E+02  0.30362080735E+03  0.30622137333E+03  0.00000000000E+00 0. -1.
        -12    1    6    6    0    0 -0.53793797614E+02  0.47299591760E+00  0.14006619874E+04  0.14016946883E+04  0.00000000000E+00 0.  1.
</event>
<event>
12    1  0.8133495E-002  0.2116734E+03  0.7818608E-02  0.1143419E+00
         21   -1    0    0  501  502  0.00000000000E+00  0.00000000000E+00  0.63297007170E+02  0.63297007170E+02  0.00000000000E+00 0.  1.
         21   -1    0    0  502  503 -0.00000000000E+00 -0.00000000000E+00 -0.11512661749E+04  0.11512661749E+04  0.00000000000E+00 0.  1.
         -6    2    1    2    0  503  0.65426876129E+02 -0.67566130207E+02 -0.95361417662E+03  0.97682424568E+03  0.18963056461E+03 0.  0.
        -24    2    3    3    0    0  0.10560336393E+03 -0.76977820638E+02 -0.54476915956E+03  0.56587526094E+03  0.79772917645E+02 0.  0.
          6    2    1    2  501    0 -0.65426876129E+02  0.67566130207E+02 -0.13435499114E+03  0.23773893642E+03  0.17211240563E+03 0.  0.
         24    2    5    5    0    0 -0.23974398294E+02  0.52563026630E+02 -0.62400990630E+01  0.10217007345E+03  0.84036548772E+02 0.  0.
          5    1    5    5  501    0 -0.41452477834E+02  0.15003103577E+02 -0.12811489208E+03  0.13556886297E+03  0.47000000000E+01 0. -1.
        -11    1    6    6    0    0  0.23668241992E+02 -0.49661044548E+01  0.92375452151E+01  0.25887837184E+02  0.00000000000E+00 0.  1.
         12    1    6    6    0    0 -0.47642640286E+02  0.57529131085E+02 -0.15477644278E+02  0.76282236262E+02  0.00000000000E+00 0. -1.
         -5    1    3    3    0  503 -0.40176487802E+02  0.94116904314E+01 -0.40884501705E+03  0.41094898474E+03  0.47000000000E+01 0.  1.
         11    1    4    4    0    0  0.33243995302E+02  0.14595548442E+02 -0.13755573841E+03  0.14226656117E+03  0.00000000000E+00 0. -1.
        -12    1    4    4    0    0  0.72359368629E+02 -0.91573369080E+02 -0.40721342116E+03  0.42360869977E+03  0.00000000000E+00 0.  1.
</event>
<event>
12    1  0.8133495E-002  0.1841757E+03  0.7818608E-02  0.1166288E+00
         21   -1    0    0  503  502  0.00000000000E+00  0.00000000000E+00  0.85309825470E+03  0.85309825470E+03  0.00000000000E+00 0.  1.
         21   -1    0    0  501  503 -0.00000000000E+00 -0.00000000000E+00 -0.58599880801E+02  0.58599880801E+02  0.00000000000E+00 0.  1.
          6    2    1    2  501    0  0.73052515930E+01  0.63773786603E+02  0.67736133509E+03  0.70195374577E+03  0.17262740331E+03 0.  0.
         24    2    3    3    0    0 -0.70541268135E+01  0.77891215565E+02  0.22428650978E+03  0.24840729735E+03  0.72697625408E+02 0.  0.
         -6    2    1    2    0  502 -0.73052515930E+01 -0.63773786603E+02  0.11713703881E+03  0.20974438973E+03  0.16171320479E+03 0.  0.
        -24    2    5    5    0    0 -0.53912124256E+02 -0.70995352617E+02  0.55537153329E+02  0.13202060002E+03  0.79988787934E+02 0.  0.
          5    1    3    3  501    0  0.14359378407E+02 -0.14117428962E+02  0.45307482530E+03  0.45354644842E+03  0.47000000000E+01 0. -1.
        -13    1    4    4    0    0 -0.21155779530E+02  0.43001623247E+02  0.19477448366E+03  0.20058366358E+03  0.00000000000E+00 0.  1.
         14    1    4    4    0    0  0.14101652716E+02  0.34889592319E+02  0.29512026123E+02  0.47823633774E+02  0.00000000000E+00 0. -1.
         -5    1    5    5    0  502  0.46606872663E+02  0.72215660142E+01  0.61599885482E+02  0.77723789708E+02  0.47000000000E+01 0.  1.
         11    1    6    6    0    0  0.68669697418E+01  0.87957626010E+01 -0.75993936790E+01  0.13500796179E+02  0.00000000000E+00 0. -1.
        -12    1    6    6    0    0 -0.60779093997E+02 -0.79791115218E+02  0.63136547008E+02  0.11851980384E+03  0.00000000000E+00 0.  1.
</event>
<event>
12    1  0.8133495E-002  0.3147505E+03  0.7818608E-02  0.1078327E+00
         21   -1    0    0  503  502  0.00000000000E+00  0.00000000000E+00  0.14203646077E+04  0.14203646077E+04  0.00000000000E+00 0. -1.
         21   -1    0    0  501  503 -0.00000000000E+00 -0.00000000000E+00 -0.69344964383E+02  0.69344964383E+02  0.00000000000E+00 0.  1.
          6    2    1    2  501    0  0.20034110859E+03 -0.16780838725E+03  0.65999216383E+03  0.73120281941E+03  0.17541861978E+03 0.  0.
         24    2    3    3    0    0  0.12576630854E+03 -0.50551518779E+02  0.47420651358E+03  0.49914900702E+03  0.76845905993E+02 0.  0.
         -6    2    1    2    0  502 -0.20034110859E+03  0.16780838725E+03  0.69102747949E+03  0.75850675268E+03  0.17180600057E+03 0.  0.
        -24    2    5    5    0    0 -0.15331649589E+03  0.77429920517E+02  0.30327017597E+03  0.35756112310E+03  0.79848710802E+02 0.  0.
          5    1    3    3  501    0  0.74574800044E+02 -0.11725686847E+03  0.18578565025E+03  0.23205381239E+03  0.47000000000E+01 0. -1.
        -13    1    4    4    0    0 -0.42145137213E+01 -0.11364846840E+02  0.10694694275E+02  0.16164725647E+02  0.00000000000E+00 0.  1.
         14    1    4    4    0    0  0.12998082227E+03 -0.39186671939E+02  0.46351181931E+03  0.48298428137E+03  0.00000000000E+00 0. -1.
         -5    1    5    5    0  502 -0.47024612699E+02  0.90378466731E+02  0.38775730352E+03  0.40094562958E+03  0.47000000000E+01 0.  1.
         11    1    6    6    0    0 -0.76673407569E+02  0.93814753946E+01  0.18835912572E+03  0.20358286704E+03  0.00000000000E+00 0. -1.
        -12    1    6    6    0    0 -0.76643088321E+02  0.68048445122E+02  0.11491105025E+03  0.15397825606E+03  0.00000000000E+00 0.  1.
</event>
<event>
12    1  0.8133495E-002  0.2515110E+03  0.7818608E-02  0.1112574E+00
         21   -1    0    0  503  502  0.00000000000E+00  0.00000000000E+00  0.11494265773E+03  0.11494265773E+03  0.00000000000E+00 0. -1.
         21   -1    0    0  501  503 -0.00000000000E+00 -0.00000000000E+00 -0.77906663467E+03  0.77906663467E+03  0.00000000000E+00 0. -1.
          6    2    1    2  501    0  0.41198418038E+02 -0.17760043481E+03 -0.57653618500E+03  0.62900856246E+03  0.17325869368E+03 0.  0.
         24    2    3    3    0    0 -0.40763622906E+02 -0.86373476231E+02 -0.23205818461E+03  0.26332110454E+03  0.79780653682E+02 0.  0.
         -6    2    1    2    0  502 -0.41198418038E+02  0.17760043481E+03 -0.87587791941E+02  0.26500072993E+03  0.17121489852E+03 0.  0.
        -24    2    5    5    0    0 -0.70283059861E+02  0.10396400386E+03  0.96977788464E+01  0.13948255342E+03  0.60109177257E+02 0.  0.
          5    1    3    3  501    0  0.81962040943E+02 -0.91226958581E+02 -0.34447800038E+03  0.36568745792E+03  0.47000000000E+01 0. -1.
        -11    1    4    4    0    0 -0.43164695828E+02 -0.36762319229E+02 -0.18986477419E+03  0.19814966959E+03  0.00000000000E+00 0.  1.
         12    1    4    4    0    0  0.24010729224E+01 -0.49611157003E+02 -0.42193410427E+02  0.65171434952E+02  0.00000000000E+00 0. -1.
         -5    1    5    5    0  502  0.29084641824E+02  0.73636430951E+02 -0.97285570787E+02  0.12551817652E+03  0.47000000000E+01 0.  1.
         13    1    6    6    0    0 -0.44892618064E+02  0.59360299510E+02 -0.23866792916E+02  0.78157636342E+02  0.00000000000E+00 0. -1.
        -14    1    6    6    0    0 -0.25390441797E+02  0.44603704351E+02  0.33564571762E+02  0.61324917073E+02  0.00000000000E+00 0.  1.
</event>
<event>
12    1  0.8133495E-002  0.1935294E+03  0.7818608E-02  0.1155547E+00
         21   -1    0    0  501  502  0.00000000000E+00  0.00000000000E+00  0.52308367806E+03  0.52308367806E+03  0.00000000000E+00 0. -1.
         21   -1    0    0  502  503 -0.00000000000E+00 -0.00000000000E+00 -0.31283463937E+03  0.31283463937E+03  0.00000000000E+00 0. -1.
         -6    2    1    2    0  503 -0.64248553371E+02  0.60028367857E+02 -0.26212902737E+03  0.32583011872E+03  0.17240173351E+03 0.  0.
        -24    2    3    3    0    0  0.14230973116E+02 -0.78123786943E+01 -0.14904341365E+03  0.17229885480E+03  0.84908199581E+02 0.  0.
          6    2    1    2  501    0  0.64248553371E+02 -0.60028367857E+02  0.47237806607E+03  0.51008819871E+03  0.17122398082E+03 0.  0.
         24    2    5    5    0    0 -0.19019282104E+02  0.94574409923E+01  0.22801224752E+03  0.24269606470E+03  0.80377972862E+02 0.  0.
          5    1    5    5  501    0  0.83267835475E+02 -0.69485808850E+02  0.24436581855E+03  0.26739213401E+03  0.47000000000E+01 0. -1.
        -11    1    6    6    0    0 -0.27016144810E+01 -0.16127601598E+02  0.42636240931E+01  0.16899016081E+02  0.00000000000E+00 0.  1.
         12    1    6    6    0    0 -0.16317667623E+02  0.25585042590E+02  0.22374862343E+03  0.22579704862E+03  0.00000000000E+00 0. -1.
         -5    1    3    3    0  503 -0.78479526487E+02  0.67840746552E+02 -0.11308561372E+03  0.15353126392E+03  0.47000000000E+01 0.  1.
         13    1    4    4    0    0 -0.33175593897E+02  0.81942041131E+01 -0.80344655675E+02  0.87309957662E+02  0.00000000000E+00 0. -1.
        -14    1    4    4    0    0  0.47406567014E+02 -0.16006582807E+02 -0.68698757973E+02  0.84988897135E+02  0.00000000000E+00 0.  1.
</event>
<event>
12    1  0.8133495E-002  0.2120153E+03  0.7818608E-02  0.1140025E+00
         21   -1    0    0  503  502  0.00000000000E+00  0.00000000000E+00  0.55446919032E+03  0.55446919032E+03  0.00000000000E+00 0.  1.
         21   -1    0    0  501  503 -0.00000000000E+00 -0.00000000000E+00 -0.81012943665E+02  0.81012943665E+02  0.00000000000E+00 0.  1.
          6    2    1    2  501    0 -0.11643659693E+03 -0.41989448949E+02  0.24288729769E+03  0.32225293991E+03  0.17184912852E+03 0.  0.
         24    2    3    3    0    0 -0.10512866322E+02 -0.52072519349E+02  0.67454937508E+02  0.11702110024E+03  0.79509129524E+02 0.  0.
         -6    2    1    2    0  502  0.11643659693E+03  0.41989448949E+02  0.23056894897E+03  0.31322919408E+03  0.17213335780E+03 0.  0.
        -24    2    5    5    0    0  0.25463601392E+02 -0.73371548569E+01  0.31601059806E+02  0.88909086472E+02  0.78765283211E+02 0.  0.
          5    1    3    3  501    0 -0.10592373061E+03  0.10083070400E+02  0.17543236018E+03  0.20523183967E+03  0.47000000000E+01 0. -1.
        -11    1    4    4    0    0 -0.43984062247E+02 -0.17434635599E+02  0.36615573321E+02  0.59826954292E+02  0.00000000000E+00 0.  1.
         12    1    4    4    0    0  0.33471195925E+02 -0.34637883751E+02  0.30839364186E+02  0.57194145948E+02  0.00000000000E+00 0. -1.
         -5    1    5    5    0  502  0.90972995536E+02  0.49326603806E+02  0.19896788916E+03  0.22432010761E+03  0.47000000000E+01 0.  1.
         11    1    6    6    0    0  0.11998239839E+02  0.21310479481E+02 -0.17792071763E+02  0.30243215976E+02  0.00000000000E+00 0. -1.
        -12    1    6    6    0    0  0.13465361553E+02 -0.28647634337E+02  0.49393131569E+02  0.58665870496E+02  0.00000000000E+00 0.  1.
</event>
<event>
12    1  0.8133495E-002  0.2360201E+03  0.7818608E-02  0.1122569E+00
         21   -1    0    0  501  502  0.00000000000E+00  0.00000000000E+00  0.52033257387E+03  0.52033257387E+03  0.00000000000E+00 0. -1.
         21   -1    0    0  502  503 -0.00000000000E+00 -0.00000000000E+00 -0.12229886097E+03  0.12229886097E+03  0.00000000000E+00 0. -1.
         -6    2    1    2    0  503  0.15720953483E+03  0.37735694687E+02  0.31360360106E+03  0.39249546151E+03  0.17194955136E+03 0.  0.
        -24    2    3    3    0    0  0.10862220405E+03  0.57437192264E+02  0.30588094282E+03  0.33929201079E+03  0.80362324089E+02 0.  0.
          6    2    1    2  501    0 -0.15720953483E+03 -0.37735694687E+02  0.84430111839E+02  0.25013597333E+03  0.17117459179E+03 0.  0.
         24    2    5    5    0    0 -0.96198865430E+02  0.30224433088E+02  0.91797973053E+02  0.15839036784E+03  0.80578549893E+02 0.  0.
          5    1    5    5  501    0 -0.61010669400E+02 -0.67960127775E+02 -0.73678612139E+01  0.91745605490E+02  0.47000000000E+01 0. -1.
        -13    1    6    6    0    0 -0.28974016216E+02  0.28729823680E+02 -0.43803052386E+01  0.41037585922E+02  0.00000000000E+00 0.  1.
         14    1    6    6    0    0 -0.67224849214E+02  0.14946094088E+01  0.96178278292E+02  0.11735278192E+03  0.00000000000E+00 0. -1.
         -5    1    3    3    0  503  0.48587330775E+02 -0.19701497577E+02  0.77226582404E+01  0.53203450724E+02  0.47000000000E+01 0.  1.
         13    1    4    4    0    0  0.28113906508E+02 -0.19472195936E+02  0.92304533986E+02  0.98436198363E+02  0.00000000000E+00 0. -1.
        -14    1    4    4    0    0  0.80508297546E+02  0.76909388200E+02  0.21357640884E+03  0.24085581243E+03  0.00000000000E+00 0.  1.
</event>
<event>
12    1  0.8133495E-002  0.2639074E+03  0.7818608E-02  0.1105751E+00
         21   -1    0    0  501  502  0.00000000000E+00  0.00000000000E+00  0.71244896134E+03  0.71244896134E+03  0.00000000000E+00 0.  1.
         21   -1    0    0  502  503 -0.00000000000E+00 -0.00000000000E+00 -0.10982294100E+03  0.10982294100E+03  0.00000000000E+00 0. -1.
         -6    2    1    2    0  503  0.17937552090E+03  0.74361127852E+02  0.45315444499E+03  0.52440067218E+03  0.17872313544E+03 0.  0.
        -24    2    3    3    0    0  0.10455328474E+03  0.88110868213E+02  0.39765494961E+03  0.43011543277E+03  0.90415220578E+02 0.  0.
          6    2    1    2  501    0 -0.17937552090E+03 -0.74361127852E+02  0.14947157535E+03  0.29787123015E+03  0.16935277701E+03 0.  0.
         24    2    5    5    0    0 -0.17396929024E+03 -0.35934097998E+02  0.16548806123E+03  0.25562810322E+03  0.80017844258E+02 0.  0.
          5    1    5    5  501    0 -0.54062306595E+01 -0.38427029854E+02 -0.16016485878E+02  0.42243126934E+02  0.47000000000E+01 0. -1.
        -13    1    6    6    0    0 -0.75478748100E+02  0.23377809528E+02  0.79225645495E+02  0.11189399580E+03  0.00000000000E+00 0.  1.
         14    1    6    6    0    0 -0.98490542139E+02 -0.59311907527E+02  0.86262415738E+02  0.14373410741E+03  0.00000000000E+00 0. -1.
         -5    1    3    3    0  503  0.74822236158E+02 -0.13749740362E+02  0.55499495381E+02  0.94285239413E+02  0.47000000000E+01 0.  1.
         11    1    4    4    0    0  0.33427316115E+02  0.70992729860E+02  0.12311391446E+03  0.14599448307E+03  0.00000000000E+00 0. -1.
        -12    1    4    4    0    0  0.71125968625E+02  0.17118138354E+02  0.27454103515E+03  0.28412094969E+03  0.00000000000E+00 0.  1.
</event>
<event>
12    1  0.8133495E-002  0.2761394E+03  0.7818608E-02  0.1097903E+00
         21   -1    0    0  501  502  0.00000000000E+00  0.00000000000E+00  0.57287248707E+03  0.57287248707E+03  0.00000000000E+00 0.  1.
         21   -1    0    0  502  503 -0.00000000000E+00 -0.00000000000E+00 -0.14126792419E+03  0.14126792419E+03  0.00000000000E+00 0. -1.
         -6    2    1    2    0  503 -0.17667497873E+03  0.12389181988E+03  0.30295719931E+03  0.40950434008E+03  0.17131114614E+03 0.  0.
        -24    2    3    3    0    0 -0.78632401568E+01  0.46840510916E+02  0.57584271983E+02  0.10182874671E+03  0.69262408763E+02 0.  0.
          6    2    1    2  501    0  0.17667497873E+03 -0.12389181988E+03  0.12864736357E+03  0.30463607117E+03  0.17230716922E+03 0.  0.
         24    2    5    5    0    0  0.17645978164E+03 -0.15281036941E+03  0.11605976797E+03  0.27274772879E+03  0.80202183775E+02 0.  0.
          5    1    5    5  501    0  0.21519708600E+00  0.28918549532E+02  0.12587595607E+02  0.31888342384E+02  0.47000000000E+01 0. -1.
        -13    1    6    6    0    0 -0.62977130489E+00 -0.13649821886E+02  0.27555222968E+02  0.30757187164E+02  0.00000000000E+00 0.  1.
         14    1    6    6    0    0  0.17708955295E+03 -0.13916054752E+03  0.88504544998E+02  0.24199054162E+03  0.00000000000E+00 0. -1.
         -5    1    3    3    0  503 -0.16881173857E+03  0.77051308959E+02  0.24537292733E+03  0.30767559338E+03  0.47000000000E+01 0.  1.
         11    1    4    4    0    0 -0.26428179959E+02  0.21564461910E+02 -0.23443175997E+01  0.34190211149E+02  0.00000000000E+00 0. -1.
        -12    1    4    4    0    0  0.18564939802E+02  0.25276049006E+02  0.59928589583E+02  0.67638535559E+02  0.00000000000E+00 0.  1.
</event>
<event>
12    1  0.8133495E-002  0.1819383E+03  0.7818608E-02  0.1165958E+00
         21   -1    0    0  503  502  0.00000000000E+00  0.00000000000E+00  0.29284722769E+02  0.29284722769E+02  0.00000000000E+00 0.  1.
         21   -1    0    0  501  503 -0.00000000000E+00 -0.00000000000E+00 -0.11354952629E+04  0.11354952629E+04  0.00000000000E+00 0.  1.
          6    2    1    2  501    0 -0.44951985943E+02 -0.38868348044E+02 -0.59417513655E+03  0.62140617946E+03  0.17195963901E+03 0.  0.
         24    2    3    3    0    0 -0.63533577066E+02  0.70124297542E+00 -0.19895503880E+03  0.22374797983E+03  0.80268573288E+02 0.  0.
         -6    2    1    2    0  502  0.44951985943E+02  0.38868348044E+02 -0.51203540357E+03  0.54337380620E+03  0.17188196310E+03 0.  0.
        -24    2    5    5    0    0  0.38590695857E+02  0.83423092866E+02 -0.45074070743E+03  0.46718508609E+03  0.81523402159E+02 0.  0.
          5    1    3    3  501    0  0.18581591122E+02 -0.39569591019E+02 -0.39522009775E+03  0.39765819963E+03  0.47000000000E+01 0. -1.
        -11    1    4    4    0    0 -0.28283623239E+02 -0.27997580458E+02 -0.33058351362E+02  0.51736664463E+02  0.00000000000E+00 0.  1.
         12    1    4    4    0    0 -0.35249953826E+02  0.28698823433E+02 -0.16589668744E+03  0.17201131537E+03  0.00000000000E+00 0. -1.
         -5    1    5    5    0  502  0.63612900864E+01 -0.44554744822E+02 -0.61294696136E+02  0.76188720110E+02  0.47000000000E+01 0.  1.
         13    1    6    6    0    0 -0.10021547664E+02 -0.87031780253E+01 -0.11217543251E+03  0.11295797618E+03  0.00000000000E+00 0. -1.
        -14    1    6    6    0    0  0.48612243521E+02  0.92126270891E+02 -0.33856527492E+03  0.35422710991E+03  0.00000000000E+00 0.  1.
</event>
<event>
12    1  0.8133495E-002  0.2173118E+03  0.7818608E-02  0.1136019E+00
         21   -1    0    0  501  502  0.00000000000E+00  0.00000000000E+00  0.16031264547E+04  0.16031264547E+04  0.00000000000E+00 0.  1.
         21   -1    0    0  502  503 -0.00000000000E+00 -0.00000000000E+00 -0.56450565828E+02  0.56450565828E+02  0.00000000000E+00 0.  1.
         -6    2    1    2    0  503 -0.13359284932E+03 -0.31381192334E+01  0.19922838772E+03  0.29481578799E+03  0.17136948735E+03 0.  0.
        -24    2    3    3    0    0 -0.22439180701E+02  0.19408327972E+02  0.28519441411E+02  0.89810630303E+02  0.79827255695E+02 0.  0.
          6    2    1    2  501    0  0.13359284932E+03  0.31381192334E+01  0.13474475012E+04  0.13647612326E+04  0.17059178261E+03 0.  0.
         24    2    5    5    0    0  0.11303369071E+03 -0.33693628420E+02  0.12536428187E+04  0.12618017013E+04  0.81310150043E+02 0.  0.
          5    1    5    5  501    0  0.20559158608E+02  0.36831747653E+02  0.93804682421E+02  0.10295953128E+03  0.47000000000E+01 0. -1.
        -11    1    6    6    0    0  0.57880286034E+02  0.75973414294E+01  0.87474961450E+03  0.87669534912E+03  0.00000000000E+00 0.  1.
         12    1    6    6    0    0  0.55153404676E+02 -0.41290969849E+02  0.37889320425E+03  0.38510635215E+03  0.00000000000E+00 0. -1.
         -5    1    3    3    0  503 -0.11115366862E+03 -0.22546447206E+02  0.17070894631E+03  0.20500515768E+03  0.47000000000E+01 0.  1.
         11    1    4    4    0    0  0.20919057839E+02  0.15913077809E+02  0.37106510248E+02  0.45472256696E+02  0.00000000000E+00 0. -1.
        -12    1    4    4    0    0 -0.43358238540E+02  0.34952501636E+01 -0.85870688362E+01  0.44338373608E+02  0.00000000000E+00 0.  1.
</event>
<event>
12    1  0.8133495E-002  0.1953098E+03  0.7818608E-02  0.1154086E+00
         21   -1    0    0  503  502  0.00000000000E+00  0.00000000000E+00  0.19142633835E+03  0.19142633835E+03  0.00000000000E+00 0.  1.
         21   -1    0    0  501  503 -0.00000000000E+00 -0.00000000000E+00 -0.24567539904E+03  0.24567539904E+03  0.00000000000E+00 0.  1.
          6    2    1    2  501    0  0.73453844872E+02 -0.56101208170E+02  0.69329855395E+02  0.20724994417E+03  0.17205550739E+03 0.  0.
         24    2    3    3    0    0 -0.44717339851E+01  0.25183817215E+02  0.86959960782E+01  0.79272578640E+02  0.74527178412E+02 0.  0.
         -6    2    1    2    0  502 -0.73453844872E+02  0.56101208170E+02 -0.12357891608E+03  0.22985179322E+03  0.17034460797E+03 0.  0.
        -24    2    5    5    0    0 -0.89236036447E+02  0.26221830213E+02 -0.25578274868E+02  0.12608247947E+03  0.81190448357E+02 0.  0.
          5    1    3    3  501    0  0.77925578857E+02 -0.81285025385E+02  0.60633859317E+02  0.12797736553E+03  0.47000000000E+01 0. -1.
        -13    1    4    4    0    0 -0.29747532136E+02 -0.10266201957E+02 -0.82826789644E+01  0.32540948690E+02  0.00000000000E+00 0.  1.
         14    1    4    4    0    0  0.25275798151E+02  0.35450019173E+02  0.16978675043E+02  0.46731629949E+02  0.00000000000E+00 0. -1.
         -5    1    5    5    0  502  0.15782191576E+02  0.29879377957E+02 -0.98000641212E+02  0.10376931375E+03  0.47000000000E+01 0.  1.
         13    1    6    6    0    0 -0.50064920259E+00 -0.21994278638E+02 -0.40638172832E+00  0.22003728969E+02  0.00000000000E+00 0. -1.
        -14    1    6    6    0    0 -0.88735387245E+02  0.48216108851E+02 -0.25171893140E+02  0.10407875050E+03  0.00000000000E+00 0.  1.
</event>
<event>
12    1  0.8133495E-002  0.1759449E+03  0.7818608E-02  0.1172367E+00
         21   -1    0    0  503  502  0.00000000000E+00  0.00000000000E+00  0.31895395129E+03  0.31895395129E+03  0.00000000000E+00 0. -1.
         21   -1    0    0  501  503 -0.00000000000E+00 -0.00000000000E+00 -0.19061224562E+03  0.19061224562E+03  0.00000000000E+00 0. -1.
          6    2    1    2  501    0 -0.26258077726E+02 -0.23418582701E+02 -0.11574602768E+03  0.20867511064E+03  0.17003012149E+03 0.  0.
         24    2    3    3    0    0 -0.23011360062E+02 -0.41491264140E+01  0.81818259772E+01  0.83128083457E+02  0.79351106110E+02 0.  0.
         -6    2    1    2    0  502  0.26258077726E+02  0.23418582701E+02  0.24408773336E+03  0.30089108627E+03  0.17239114698E+03 0.  0.
        -24    2    5    5    0    0  0.12776687507E+02  0.81641963078E+02  0.17213260399E+03  0.20723565104E+03  0.80550157221E+02 0.  0.
          5    1    3    3  501    0 -0.32467176641E+01 -0.19269456287E+02 -0.12392785366E+03  0.12554702718E+03  0.47000000000E+01 0. -1.
        -13    1    4    4    0    0 -0.42141798365E+01  0.34707554794E+02  0.17303837995E+02  0.39010209956E+02  0.00000000000E+00 0.  1.
         14    1    4    4    0    0 -0.18797180226E+02 -0.38856681208E+02 -0.91220120179E+01  0.44117873500E+02  0.00000000000E+00 0. -1.
         -5    1    5    5    0  502  0.13481390219E+02 -0.58223380377E+02  0.71955129368E+02  0.93655435225E+02  0.47000000000E+01 0.  1.
         13    1    6    6    0    0  0.17790710592E+01  0.44797156212E+02  0.16111627009E+03  0.16723756393E+03  0.00000000000E+00 0. -1.
        -14    1    6    6    0    0  0.10997616448E+02  0.36844806867E+02  0.11016333893E+02  0.39998087117E+02  0.00000000000E+00 0.  1.
</event>
<event>
12    1  0.8133495E-002  0.1744555E+03  0.7818608E-02  0.1173573E+00
         21   -1    0    0  501  502  0.00000000000E+00  0.00000000000E+00  0.10873568351E+03  0.10873568351E+03  0.00000000000E+00 0.  1.
         21   -1    0    0  502  503 -0.00000000000E+00 -0.00000000000E+00 -0.36767498178E+03  0.36767498178E+03  0.00000000000E+00 0.  1.
         -6    2    1    2    0  503 -0.25568254961E+02  0.16748748432E+02 -0.24740936355E+03  0.30273110878E+03  0.17175702260E+03 0.  0.
        -24    2    3    3    0    0 -0.36188128742E+02  0.46862467423E+01 -0.44533518708E+02  0.99165433659E+02  0.80740370162E+02 0.  0.
          6    2    1    2  501    0  0.25568254961E+02 -0.16748748432E+02 -0.11529934723E+02  0.17367955651E+03  0.17057957884E+03 0.  0.
         24    2    5    5    0    0  0.38592139238E+02 -0.51795458308E+02 -0.53188788867E+02  0.11750622152E+03  0.82501770425E+02 0.  0.
          5    1    5    5  501    0 -0.13023884277E+02  0.35046709877E+02  0.41658854144E+02  0.56173334986E+02  0.47000000000E+01 0. -1.
        -11    1    6    6    0    0 -0.17876251044E+02 -0.33446355698E+02 -0.42877927445E+02  0.57242778784E+02  0.00000000000E+00 0.  1.
         12    1    6    6    0    0  0.56468390281E+02 -0.18349102610E+02 -0.10310861422E+02  0.60263442740E+02  0.00000000000E+00 0. -1.
         -5    1    3    3    0  503  0.10619873781E+02  0.12062501689E+02 -0.20287584484E+03  0.20356567512E+03  0.47000000000E+01 0.  1.
         13    1    4    4    0    0 -0.31404587444E+02 -0.26743707012E+02 -0.52132884830E+02  0.66477903532E+02  0.00000000000E+00 0. -1.
        -14    1    4    4    0    0 -0.47835412977E+01  0.31429953755E+02  0.75993661220E+01  0.32687530127E+02  0.00000000000E+00 0.  1.
</event>
<event>
12    1  0.8133495E-002  0.1994335E+03  0.7818608E-02  0.1150299E+00
         21   -1    0    0  503  502  0.00000000000E+00  0.00000000000E+00  0.12953107705E+03  0.12953107705E+03  0.00000000000E+00 0.  1.
         21   -1    0    0  501  503 -0.00000000000E+00 -0.00000000000E+00 -0.37937454368E+03  0.37937454368E+03  0.00000000000E+00 0.  1.
          6    2    1    2  501    0 -0.94503551425E+02 -0.27137583947E+02 -0.13474606127E+02  0.19988820138E+03  0.17351183921E+03 0.  0.
         24    2    3    3    0    0 -0.96890180164E+02 -0.76365315670E+02  0.26797139451E+01  0.14781020579E+03  0.81371417705E+02 0.  0.
         -6    2    1    2    0  502  0.94503551425E+02  0.27137583947E+02 -0.23636886050E+03  0.30901741935E+03  0.17307269443E+03 0.  0.
        -24    2    5    5    0    0  0.81515033346E+01  0.22886075104E+02 -0.35954573841E+02  0.90699468116E+02  0.79645732441E+02 0.  0.
          5    1    3    3  501    0  0.23866287387E+01  0.49227731724E+02 -0.16154320072E+02  0.52077995587E+02  0.47000000000E+01 0. -1.
        -11    1    4    4    0    0 -0.54779541678E+01 -0.27363208477E+02 -0.28119061618E+02  0.39616092516E+02  0.00000000000E+00 0.  1.
         12    1    4    4    0    0 -0.91412225996E+02 -0.49002107194E+02  0.30798775563E+02  0.10819411327E+03  0.00000000000E+00 0. -1.
         -5    1    5    5    0  502  0.86352048090E+02  0.42515088425E+01 -0.20041428665E+03  0.21831795124E+03  0.47000000000E+01 0.  1.
         11    1    6    6    0    0 -0.12998275914E+02  0.36677077011E+02 -0.48764441457E+02  0.62386969035E+02  0.00000000000E+00 0. -1.
        -12    1    6    6    0    0  0.21149779249E+02 -0.13791001906E+02  0.12809867616E+02  0.28312499081E+02  0.00000000000E+00 0.  1.
</event>
<event>
12    1  0.8133495E-002  0.2398966E+03  0.7818608E-02  0.1120240E+00
         21   -1    0    0  501  502  0.00000000000E+00  0.00000000000E+00  0.57656251738E+02  0.57656251738E+02  0.00000000000E+00 0.  1.
         21   -1    0    0  502  503 -0.00000000000E+00 -0.00000000000E+00 -0.14317746252E+04  0.14317746252E+04  0.00000000000E+00 0.  1.
         -6    2    1    2    0  503 -0.47623981949E+02 -0.15901972789E+03 -0.10990487121E+04  0.11244463753E+04  0.17004782256E+03 0.  0.
        -24    2    3    3    0    0 -0.41392747660E+02 -0.54105598776E+02 -0.27208002662E+03  0.29081270308E+03  0.76835616828E+02 0.  0.
          6    2    1    2  501    0  0.47623981949E+02  0.15901972789E+03 -0.27506966145E+03  0.36498450168E+03  0.17319079160E+03 0.  0.
         24    2    5    5    0    0  0.75821655158E+02  0.12044403094E+03 -0.11923640196E+03  0.20192228062E+03  0.79370018780E+02 0.  0.
          5    1    5    5  501    0 -0.28197673209E+02  0.38575696956E+02 -0.15583325949E+03  0.16306222105E+03  0.47000000000E+01 0. -1.
        -11    1    6    6    0    0  0.11956883141E+02  0.37663848714E+02  0.46784488365E+01  0.39792215796E+02  0.00000000000E+00 0.  1.
         12    1    6    6    0    0  0.63864772016E+02  0.82780182223E+02 -0.12391485080E+03  0.16213006483E+03  0.00000000000E+00 0. -1.
         -5    1    3    3    0  503 -0.62312342886E+01 -0.10491412912E+03 -0.82696868544E+03  0.83363367222E+03  0.47000000000E+01 0.  1.
         13    1    4    4    0    0 -0.24118840631E+01  0.53472292605E+01 -0.14562959583E+03  0.14574769030E+03  0.00000000000E+00 0. -1.
        -14    1    4    4    0    0 -0.38980863597E+02 -0.59452828037E+02 -0.12645043078E+03  0.14506501278E+03  0.00000000000E+00 0.  1.
</event>
<event>
12    1  0.8133495E-002  0.3379903E+03  0.7818608E-02  0.1067685E+00
         21   -1    0    0  501  502  0.00000000000E+00  0.00000000000E+00  0.18828947872E+03  0.18828947872E+03  0.00000000000E+00 0. -1.
         21   -1    0    0  502  503 -0.00000000000E+00 -0.00000000000E+00 -0.78727227798E+03  0.78727227798E+03  0.00000000000E+00 0. -1.
         -6    2    1    2    0  503  0.12121974717E+02 -0.29069962341E+03 -0.53332163623E+03  0.63125255162E+03  0.17144854311E+03 0.  0.
        -24    2    3    3    0    0  0.16283359625E+02 -0.27547650912E+03 -0.37623951140E+03  0.47330970033E+03  0.79457206130E+02 0.  0.
          6    2    1    2  501    0 -0.12121974717E+02  0.29069962341E+03 -0.65661163022E+02  0.34430920508E+03  0.17200066004E+03 0.  0.
         24    2    5    5    0    0  0.27114468302E+02  0.15279427203E+03 -0.92724708669E+02  0.19832321294E+03  0.81565564026E+02 0.  0.
          5    1    5    5  501    0 -0.39236443020E+02  0.13790535137E+03  0.27063545647E+02  0.14598599214E+03  0.47000000000E+01 0. -1.
        -11    1    6    6    0    0  0.38525999857E+02  0.15531548726E+03 -0.74124944635E+02  0.17635662921E+03  0.00000000000E+00 0.  1.
         12    1    6    6    0    0 -0.11411531554E+02 -0.25212152294E+01 -0.18599764035E+02  0.21966583730E+02  0.00000000000E+00 0. -1.
         -5    1    3    3    0  503 -0.41613849073E+01 -0.15223114281E+02 -0.15708212483E+03  0.15794285129E+03  0.47000000000E+01 0.  1.
         11    1    4    4    0    0 -0.64710878584E+01 -0.15572333741E+03 -0.26931835153E+03  0.31116556246E+03  0.00000000000E+00 0. -1.
        -12    1    4    4    0    0  0.22754447483E+02 -0.11975317172E+03 -0.10692115988E+03  0.16214413787E+03  0.00000000000E+00 0.  1.
</event>
<event>
12    1  0.8133495E-002  0.1776175E+03  0.7818608E-02  0.1171382E+00
         21   -1    0    0  501  502  0.00000000000E+00  0.00000000000E+00  0.63570225247E+03  0.63570225247E+03  0.00000000000E+00 0.  1.
         21   -1    0    0  502  503 -0.00000000000E+00 -0.00000000000E+00 -0.11802255323E+03  0.11802255323E+03  0.00000000000E+00 0.  1.
         -6    2    1    2    0  503 -0.35020045811E+02 -0.17375390431E+02 -0.32452380100E+02  0.17563027472E+03  0.16812057763E+03 0.  0.
        -24    2    3    3    0    0  0.16635392998E+02 -0.56444644146E+02 -0.44040613836E+02  0.10966764814E+03  0.81392157041E+02 0.  0.
          6    2    1    2  501    0  0.35020045811E+02  0.17375390431E+02  0.55013207934E+03  0.57809453098E+03  0.17326186606E+03 0.  0.
         24    2    5    5    0    0  0.61288863672E+01  0.76506384250E+02  0.35882346916E+03  0.37572791354E+03  0.80786093590E+02 0.  0.
          5    1    5    5  501    0  0.28891159444E+02 -0.59130993820E+02  0.19130861019E+03  0.20236661744E+03  0.47000000000E+01 0. -1.
        -13    1    6    6    0    0  0.36942386835E+02  0.63197970190E+02  0.29082747975E+03  0.29989889356E+03  0.00000000000E+00 0.  1.
         14    1    6    6    0    0 -0.30813500468E+02  0.13308414060E+02  0.67995989407E+02  0.75829019981E+02  0.00000000000E+00 0. -1.
         -5    1    3    3    0  503 -0.51655438809E+02  0.39069253716E+02  0.11588233736E+02  0.65962626582E+02  0.47000000000E+01 0.  1.
         11    1    4    4    0    0  0.11833753989E+02 -0.47414464229E+02  0.13919098338E+02  0.50812502892E+02  0.00000000000E+00 0. -1.
        -12    1    4    4    0    0  0.48016390088E+01 -0.90301799171E+01 -0.57959712174E+02  0.58855145244E+02  0.00000000000E+00 0.  1.
</event>
<event>
12    1  0.8133495E-002  0.2489012E+03  0.7818608E-02  0.1114013E+00
         21   -1    0    0  501  502  0.00000000000E+00  0.00000000000E+00  0.16890780373E+04  0.16890780373E+04  0.00000000000E+00 0. -1.
         21   -1    0    0  502  503 -0.00000000000E+00 -0.00000000000E+00 -0.19737993047E+03  0.19737993047E+03  0.00000000000E+00 0. -1.
         -6    2    1    2    0  503 -0.33641995687E+02  0.17724565537E+03 -0.10525106410E+03  0.27023988544E+03  0.17147595449E+03 0.  0.
        -24    2    3    3    0    0 -0.43870883454E+02  0.84226346166E+02 -0.12346273693E+03  0.17478844723E+03  0.79304615701E+02 0.  0.
          6    2    1    2  501    0  0.33641995687E+02 -0.17724565537E+03  0.15969491709E+04  0.16162180823E+04  0.17136635871E+03 0.  0.
         24    2    5    5    0    0  0.68238803905E+02 -0.51555756764E+02  0.86963203420E+03  0.87729508422E+03  0.77924703921E+02 0.  0.
          5    1    5    5  501    0 -0.34596808218E+02 -0.12568989861E+03  0.72731713673E+03  0.73892299811E+03  0.47000000000E+01 0. -1.
        -13    1    6    6    0    0 -0.16012017013E+02 -0.34990907091E+01  0.75290500649E+02  0.77053798171E+02  0.00000000000E+00 0.  1.
         14    1    6    6    0    0  0.84250820918E+02 -0.48056666055E+02  0.79434153355E+03  0.80024128605E+03  0.00000000000E+00 0. -1.
         -5    1    3    3    0  503  0.10228887767E+02  0.93019309207E+02  0.18211672827E+02  0.95451438215E+02  0.47000000000E+01 0.  1.
         13    1    4    4    0    0 -0.62720393667E+02  0.36896612282E+02 -0.73816423117E+02  0.10365361596E+03  0.00000000000E+00 0. -1.
        -14    1    4    4    0    0  0.18849510213E+02  0.47329733884E+02 -0.49646313809E+02  0.71134831269E+02  0.00000000000E+00 0.  1.
</event>
<event>
12    1  0.8133495E-002  0.2481743E+03  0.7818608E-02  0.1115217E+00
         21   -1    0    0  501  502  0.00000000000E+00  0.00000000000E+00  0.61310283986E+03  0.61310283986E+03  0.00000000000E+00 0. -1.
         21   -1    0    0  502  503 -0.00000000000E+00 -0.00000000000E+00 -0.12647871669E+03  0.12647871669E+03  0.00000000000E+00 0.  1.
         -6    2    1    2    0  503 -0.10372420354E+03 -0.14528608436E+03  0.71424827157E+02  0.25824787769E+03  0.17240563706E+03 0.  0.
        -24    2    3    3    0    0 -0.92019206077E+02 -0.17493542960E+03  0.60673878789E+02  0.22428078288E+03  0.86894252897E+02 0.  0.
          6    2    1    2  501    0  0.10372420354E+03  0.14528608436E+03  0.41519929601E+03  0.48133367886E+03  0.16560464454E+03 0.  0.
         24    2    5    5    0    0  0.99176194593E+02  0.16634928136E+03  0.31273530054E+03  0.37652288257E+03  0.80362378693E+02 0.  0.
          5    1    5    5  501    0  0.45480089443E+01 -0.21063196997E+02  0.10246399546E+03  0.10481079629E+03  0.47000000000E+01 0. -1.
        -13    1    6    6    0    0  0.54350829950E+02  0.10476571431E+03  0.11569766839E+03  0.16527497718E+03  0.00000000000E+00 0.  1.
         14    1    6    6    0    0  0.44825364643E+02  0.61583567045E+02  0.19703763215E+03  0.21124790539E+03  0.00000000000E+00 0. -1.
         -5    1    3    3    0  503 -0.11704997461E+02  0.29649345242E+02  0.10750948368E+02  0.33967094807E+02  0.47000000000E+01 0.  1.
         13    1    4    4    0    0  0.12685213020E+02 -0.54712955728E+02  0.21279295235E+02  0.60060224438E+02  0.00000000000E+00 0. -1.
        -14    1    4    4    0    0 -0.10470441910E+03 -0.12022247387E+03  0.39394583554E+02  0.16422055844E+03  0.00000000000E+00 0.  1.
</event>
<event>
12    1  0.8133495E-002  0.3039006E+03  0.7818608E-02  0.1083794E+00
         21   -1    0    0  501  502  0.00000000000E+00  0.00000000000E+00  0.31412076733E+03  0.31412076733E+03  0.00000000000E+00 0.  1.
         21   -1    0    0  502  503 -0.00000000000E+00 -0.00000000000E+00 -0.36428426685E+03  0.36428426685E+03  0.00000000000E+00 0.  1.
         -6    2    1    2    0  503 -0.24794780585E+03  0.50858321274E+01 -0.17790056843E+03  0.34875020994E+03  0.16874275265E+03 0.  0.
        -24    2    3    3    0    0 -0.17034913254E+03 -0.36836940376E+02 -0.60689432784E+02  0.20198640898E+03  0.82094549311E+02 0.  0.
          6    2    1    2  501    0  0.24794780585E+03 -0.50858321274E+01  0.12773706890E+03  0.32965482425E+03  0.17564613365E+03 0.  0.
         24    2    5    5    0    0  0.24979591100E+03  0.16241066221E+02  0.14683602053E+03  0.30058401347E+03  0.78282583296E+02 0.  0.
          5    1    5    5  501    0 -0.18481051511E+01 -0.21326898348E+02 -0.19098951628E+02  0.29070810774E+02  0.47000000000E+01 0. -1.
        -13    1    6    6    0    0  0.82564467853E+02  0.21318197849E+02  0.89761748646E+02  0.12380843441E+03  0.00000000000E+00 0.  1.
         14    1    6    6    0    0  0.16723144314E+03 -0.50771316277E+01  0.57074271886E+02  0.17677557906E+03  0.00000000000E+00 0. -1.
         -5    1    3    3    0  503 -0.77598673306E+02  0.41922772503E+02 -0.11721113564E+03  0.14676380096E+03  0.47000000000E+01 0.  1.
         13    1    4    4    0    0 -0.58230428852E+02  0.15431895417E+02  0.75456054777E+01  0.60711303745E+02  0.00000000000E+00 0. -1.
        -14    1    4    4    0    0 -0.11211870369E+03 -0.52268835793E+02 -0.68235038262E+02  0.14127510523E+03  0.00000000000E+00 0.  1.
</event>
<event>
12    1  0.8133495E-002  0.1757755E+03  0.7818608E-02  0.1172043E+00
         21   -1    0    0  503  502  0.00000000000E+00  0.00000000000E+00  0.33883479549E+03  0.33883479549E+03  0.00000000000E+00 0.  1.
         21   -1    0    0  501  503 -0.00000000000E+00 -0.00000000000E+00 -0.96544712964E+02  0.96544712964E+02  0.00000000000E+00 0.  1.
          6    2    1    2  501    0 -0.68787791593E+01 -0.35050233251E+02  0.17318314162E+03  0.24650709803E+03  0.17174839849E+03 0.  0.
         24    2    3    3    0    0 -0.10758507533E+02 -0.72795322436E+02  0.76855982657E+02  0.14286948129E+03  0.95341188167E+02 0.  0.
         -6    2    1    2    0  502  0.68787791593E+01  0.35050233251E+02  0.69106940908E+02  0.18887241042E+03  0.17210805235E+03 0.  0.
        -24    2    5    5    0    0 -0.46937227434E+02 -0.24594985548E+02  0.48576843694E+02  0.10582248819E+03  0.77657405509E+02 0.  0.
          5    1    3    3  501    0  0.38797283735E+01  0.37745089184E+02  0.96327158959E+02  0.10363761674E+03  0.47000000000E+01 0. -1.
        -13    1    4    4    0    0 -0.49538046138E+02 -0.30498883098E+02  0.58795896311E+02  0.82711288881E+02  0.00000000000E+00 0.  1.
         14    1    4    4    0    0  0.38779538605E+02 -0.42296439338E+02  0.18060086346E+02  0.60158192409E+02  0.00000000000E+00 0. -1.
         -5    1    5    5    0  502  0.53816006593E+02  0.59645218800E+02  0.20530097214E+02  0.83049922233E+02  0.47000000000E+01 0.  1.
         13    1    6    6    0    0 -0.31266831886E+02  0.23598267817E+02  0.36904836778E+02  0.53818769939E+02  0.00000000000E+00 0. -1.
        -14    1    6    6    0    0 -0.15670395548E+02 -0.48193253366E+02  0.11672006917E+02  0.52003718252E+02  0.00000000000E+00 0.  1.
</event>
<event>
12    1  0.8133495E-002  0.5490950E+03  0.7818608E-02  0.1001835E+00
         21   -1    0    0  501  502  0.00000000000E+00  0.00000000000E+00  0.22876837444E+03  0.22876837444E+03  0.00000000000E+00 0.  1.
         21   -1    0    0  502  503 -0.00000000000E+00 -0.00000000000E+00 -0.21312987653E+04  0.21312987653E+04  0.00000000000E+00 0. -1.
         -6    2    1    2    0  503  0.35187194528E+03  0.38191043686E+03 -0.16814510279E+04  0.17681369420E+04  0.17135121461E+03 0.  0.
        -24    2    3    3    0    0  0.13332803061E+03  0.23925829058E+03 -0.84296227383E+03  0.88995896562E+03  0.80129096040E+02 0.  0.
          6    2    1    2  501    0 -0.35187194528E+03 -0.38191043686E+03 -0.22107936294E+03  0.59193019773E+03  0.17842596957E+03 0.  0.
         24    2    5    5    0    0 -0.17660445530E+03 -0.28005318418E+03 -0.97111328992E+02  0.35426708236E+03  0.80346971493E+02 0.  0.
          5    1    5    5  501    0 -0.17526748998E+03 -0.10185725268E+03 -0.12396803395E+03  0.23766311537E+03  0.47000000000E+01 0. -1.
        -13    1    6    6    0    0 -0.11342412512E+03 -0.12566894839E+03 -0.77909819291E+02  0.18635357976E+03  0.00000000000E+00 0.  1.
         14    1    6    6    0    0 -0.63180330185E+02 -0.15438423578E+03 -0.19201509701E+02  0.16791350260E+03  0.00000000000E+00 0. -1.
         -5    1    3    3    0  503  0.21854391467E+03  0.14265214628E+03 -0.83848875407E+03  0.87817797637E+03  0.47000000000E+01 0.  1.
         11    1    4    4    0    0  0.14077432183E+03  0.22898721018E+03 -0.82689439105E+03  0.86948656463E+03  0.00000000000E+00 0. -1.
        -12    1    4    4    0    0 -0.74462912233E+01  0.10271080394E+02 -0.16067882777E+02  0.20472400992E+02  0.00000000000E+00 0.  1.
</event>
<event>
12    1  0.8133495E-002  0.2311661E+03  0.7818608E-02  0.1125938E+00
         21   -1    0    0  501  502  0.00000000000E+00  0.00000000000E+00  0.12470127860E+04  0.12470127860E+04  0.00000000000E+00 0. -1.
         21   -1    0    0  502  503 -0.00000000000E+00 -0.00000000000E+00 -0.61044890391E+02  0.61044890391E+02  0.00000000000E+00 0. -1.
         -6    2    1    2    0  503  0.74460363531E+02 -0.13077111051E+03  0.23533710285E+03  0.32988075863E+03  0.17547744544E+03 0.  0.
        -24    2    3    3    0    0  0.57325023403E+02 -0.52769473775E+02  0.38820791690E+02  0.11770482746E+03  0.79224976303E+02 0.  0.
          6    2    1    2  501    0 -0.74460363531E+02  0.13077111051E+03  0.95063079273E+03  0.97817691773E+03  0.17460168733E+03 0.  0.
         24    2    5    5    0    0 -0.43060164080E+02  0.26299363860E+02  0.67858339684E+03  0.68503498286E+03  0.79067483837E+02 0.  0.
          5    1    5    5  501    0 -0.31400199451E+02  0.10447174664E+03  0.27204739589E+03  0.29314193487E+03  0.47000000000E+01 0. -1.
        -11    1    6    6    0    0 -0.57835632667E+02 -0.57433890256E+01  0.39130304839E+03  0.39559578183E+03  0.00000000000E+00 0.  1.
         12    1    6    6    0    0  0.14775468587E+02  0.32042752886E+02  0.28728034845E+03  0.28943920102E+03  0.00000000000E+00 0. -1.
         -5    1    3    3    0  503  0.17135340127E+02 -0.78001636730E+02  0.19651631116E+03  0.21217593117E+03  0.47000000000E+01 0.  1.
         13    1    4    4    0    0  0.28853209836E+01 -0.32074802095E+02 -0.17529356365E+02  0.36666010707E+02  0.00000000000E+00 0. -1.
        -14    1    4    4    0    0  0.54439702420E+02 -0.20694671680E+02  0.56350148055E+02  0.81038816757E+02  0.00000000000E+00 0.  1.
</event>
<event>
12    1  0.8133495E-002  0.1955948E+03  0.7818608E-02  0.1154260E+00
         21   -1    0    0  503  502  0.00000000000E+00  0.00000000000E+00  0.15634799168E+03  0.15634799168E+03  0.00000000000E+00 0. -1.
         21   -1    0    0  501  503 -0.00000000000E+00 -0.00000000000E+00 -0.24665284868E+03  0.24665284868E+03  0.00000000000E+00 0.  1.
          6    2    1    2  501    0  0.20421805744E+01  0.76826266564E+02 -0.76773204706E+02  0.20693853116E+03  0.17613342948E+03 0.  0.
         24    2    3    3    0    0  0.24942536393E+02  0.35900283245E+02 -0.11474635553E+03  0.14641239969E+03  0.79742737696E+02 0.  0.
         -6    2    1    2    0  502 -0.20421805744E+01 -0.76826266564E+02 -0.13531652290E+02  0.19606230921E+03  0.17986349752E+03 0.  0.
        -24    2    5    5    0    0  0.10119145067E+02 -0.11438061468E+03 -0.41945345354E+02  0.14719867388E+03  0.81992167196E+02 0.  0.
          5    1    3    3  501    0 -0.22900355818E+02  0.40925983319E+02  0.37973150825E+02  0.60526131471E+02  0.47000000000E+01 0. -1.
        -13    1    4    4    0    0  0.52322297858E+02  0.21820346276E+02 -0.53917600494E+02  0.78235912520E+02  0.00000000000E+00 0.  1.
         14    1    4    4    0    0 -0.27379761465E+02  0.14079936969E+02 -0.60828755036E+02  0.68176487165E+02  0.00000000000E+00 0. -1.
         -5    1    5    5    0  502 -0.12161325642E+02  0.37554348120E+02  0.28413693064E+02  0.48863635330E+02  0.47000000000E+01 0.  1.
         11    1    6    6    0    0  0.14410331731E+02 -0.11712576832E+03 -0.14050401844E+02  0.11884240429E+03  0.00000000000E+00 0. -1.
        -12    1    6    6    0    0 -0.42911866634E+01  0.27451536357E+01 -0.27894943511E+02  0.28356269588E+02  0.00000000000E+00 0.  1.
</event>
<event>
12    1  0.8133495E-002  0.2134049E+03  0.7818608E-02  0.1138902E+00
         21   -1    0    0  501  502  0.00000000000E+00  0.00000000000E+00  0.62119574470E+03  0.62119574470E+03  0.00000000000E+00 0. -1.
         21   -1    0    0  502  503 -0.00000000000E+00 -0.00000000000E+00 -0.81098849360E+02  0.81098849360E+02  0.00000000000E+00 0.  1.
         -6    2    1    2    0  503 -0.17765737473E+02 -0.12542933071E+03  0.37889383144E+03  0.43484721683E+03  0.17170739079E+03 0.  0.
        -24    2    3    3    0    0 -0.63610988152E+02 -0.47237453729E+02  0.15175192797E+03  0.19024286088E+03  0.82981706575E+02 0.  0.
          6    2    1    2  501    0  0.17765737473E+02  0.12542933071E+03  0.16120306391E+03  0.26744737724E+03  0.17173681419E+03 0.  0.
         24    2    5    5    0    0 -0.32626665518E+02  0.11341821266E+03  0.16173796133E+03  0.21542779101E+03  0.79509588970E+02 0.  0.
          5    1    5    5  501    0  0.50392402992E+02  0.12011118047E+02 -0.53489742241E+00  0.52019586227E+02  0.47000000000E+01 0. -1.
        -13    1    6    6    0    0  0.24054587200E+02  0.39623744557E+02  0.75302875703E+02  0.88426169131E+02  0.00000000000E+00 0.  1.
         14    1    6    6    0    0 -0.56681252718E+02  0.73794468105E+02  0.86435085626E+02  0.12700162188E+03  0.00000000000E+00 0. -1.
         -5    1    3    3    0  503  0.45845250679E+02 -0.78191876980E+02  0.22714190347E+03  0.24460435595E+03  0.47000000000E+01 0.  1.
         11    1    4    4    0    0 -0.30703459185E+01 -0.33391007278E+01  0.98103093492E+02  0.98207909918E+02  0.00000000000E+00 0. -1.
        -12    1    4    4    0    0 -0.60540642234E+02 -0.43898353001E+02  0.53648834475E+02  0.92034950963E+02  0.00000000000E+00 0.  1.
</event>
<event>
12    1  0.8133495E-002  0.1765156E+03  0.7818608E-02  0.1172017E+00
         21   -1    0    0  501  502  0.00000000000E+00  0.00000000000E+00  0.85151285132E+03  0.85151285132E+03  0.00000000000E+00 0. -1.
         21   -1    0    0  502  503 -0.00000000000E+00 -0.00000000000E+00 -0.36736668165E+02  0.36736668165E+02  0.00000000000E+00 0. -1.
         -6    2    1    2    0  503 -0.24517111423E+02 -0.60547456500E+01  0.47668133259E+03  0.50831373275E+03  0.17469976923E+03 0.  0.
        -24    2    3    3    0    0 -0.69828881263E+02 -0.48139084897E+02  0.31700293671E+03  0.33701420501E+03  0.76774138484E+02 0.  0.
          6    2    1    2  501    0  0.24517111423E+02  0.60547456500E+01  0.33809485057E+03  0.37993578673E+03  0.17147981036E+03 0.  0.
         24    2    5    5    0    0  0.53289900183E+02  0.13146720674E+02  0.33615871478E+03  0.34986905920E+03  0.79956408972E+02 0.  0.
          5    1    5    5  501    0 -0.28772788760E+02 -0.70919750235E+01  0.19361357863E+01  0.30066727533E+02  0.47000000000E+01 0. -1.
        -13    1    6    6    0    0  0.22560158321E+02 -0.33928920352E+02  0.14481256639E+03  0.15043540728E+03  0.00000000000E+00 0.  1.
         14    1    6    6    0    0  0.30729741862E+02  0.47075641025E+02  0.19134614839E+03  0.19943365192E+03  0.00000000000E+00 0. -1.
         -5    1    3    3    0  503  0.45311769840E+02  0.42084339247E+02  0.15967839587E+03  0.17129952774E+03  0.47000000000E+01 0.  1.
         13    1    4    4    0    0  0.71414297851E+01 -0.31135891409E+02  0.57190534875E+02  0.65507259388E+02  0.00000000000E+00 0. -1.
        -14    1    4    4    0    0 -0.76970311048E+02 -0.17003193488E+02  0.25981240184E+03  0.27150694562E+03  0.00000000000E+00 0.  1.
</event>
<event>
12    1  0.8133495E-002  0.1976073E+03  0.7818608E-02  0.1155043E+00
         21   -1    0    0  501  502  0.00000000000E+00  0.00000000000E+00  0.51840569951E+03  0.51840569951E+03  0.00000000000E+00 0. -1.
         21   -1    0    0  502  503 -0.00000000000E+00 -0.00000000000E+00 -0.69861120064E+02  0.69861120064E+02  0.00000000000E+00 0.  1.
         -6    2    1    2    0  503  0.38185280620E+02 -0.45689998166E+02  0.21116006150E+03  0.27939780878E+03  0.17299963119E+03 0.  0.
        -24    2    3    3    0    0 -0.35792571965E+02 -0.53434422881E+00  0.14194199588E+03  0.16837985364E+03  0.83203672911E+02 0.  0.
          6    2    1    2  501    0 -0.38185280620E+02  0.45689998166E+02  0.23738451795E+03  0.30886901080E+03  0.18842230462E+03 0.  0.
         24    2    5    5    0    0 -0.50583098569E+02 -0.28211933632E+02  0.60021647476E+02  0.11626870125E+03  0.81001541128E+02 0.  0.
          5    1    5    5  501    0  0.12397817949E+02  0.73901931798E+02  0.17736287048E+03  0.19260030954E+03  0.47000000000E+01 0. -1.
        -11    1    6    6    0    0 -0.38605833926E+02 -0.56617101619E+02  0.37736725674E+02  0.78230218417E+02  0.00000000000E+00 0.  1.
         12    1    6    6    0    0 -0.11977264643E+02  0.28405167988E+02  0.22284921802E+02  0.38038482836E+02  0.00000000000E+00 0. -1.
         -5    1    3    3    0  503  0.73977852585E+02 -0.45155653937E+02  0.69218065612E+02  0.11101795514E+03  0.47000000000E+01 0.  1.
         13    1    4    4    0    0  0.12079424841E+02  0.11015985794E+02  0.10639819474E+03  0.10764683131E+03  0.00000000000E+00 0. -1.
        -14    1    4    4    0    0 -0.47871996806E+02 -0.11550330022E+02  0.35543801145E+02  0.60733022333E+02  0.00000000000E+00 0.  1.
</event>
<event>
12    1  0.8133495E-002  0.2007792E+03  0.7818608E-02  0.1149199E+00
         21   -1    0    0  501  502  0.00000000000E+00  0.00000000000E+00  0.58311051126E+02  0.58311051126E+02  0.00000000000E+00 0.  1.
         21   -1    0    0  502  503 -0.00000000000E+00 -0.00000000000E+00 -0.12924120318E+04  0.12924120318E+04  0.00000000000E+00 0.  1.
         -6    2    1    2    0  503 -0.54108218024E+02 -0.88490203096E+02 -0.10779004422E+04  0.10963397057E+04  0.17126929568E+03 0.  0.
        -24    2    3    3    0    0 -0.61863689272E+02 -0.27989132382E+01 -0.36969218266E+03  0.38290843823E+03  0.78176800782E+02 0.  0.
          6    2    1    2  501    0  0.54108218024E+02  0.88490203096E+02 -0.15620053849E+03  0.25438337726E+03  0.17191299864E+03 0.  0.
         24    2    5    5    0    0  0.69560392933E+02  0.80298758046E+00 -0.53994711683E+02  0.11875174929E+03  0.79669668101E+02 0.  0.
          5    1    5    5  501    0 -0.15452174909E+02  0.87687215515E+02 -0.10220582681E+03  0.13563162798E+03  0.47000000000E+01 0. -1.
        -13    1    6    6    0    0  0.52383554654E+02  0.19810496540E+02  0.31852740670E+01  0.56094906562E+02  0.00000000000E+00 0.  1.
         14    1    6    6    0    0  0.17176838279E+02 -0.19007508960E+02 -0.57179985750E+02  0.62656842726E+02  0.00000000000E+00 0. -1.
         -5    1    3    3    0  503  0.77554712478E+01 -0.85691289857E+02 -0.70820825952E+03  0.71343126743E+03  0.47000000000E+01 0.  1.
         13    1    4    4    0    0  0.13103682891E+02  0.15820165632E+02 -0.11275779923E+03  0.11461372271E+03  0.00000000000E+00 0. -1.
        -14    1    4    4    0    0 -0.74967372163E+02 -0.18619078870E+02 -0.25693438343E+03  0.26829471552E+03  0.00000000000E+00 0.  1.
</event>
<event>
12    1  0.8133495E-002  0.2152653E+03  0.7818608E-02  0.1137795E+00
         21   -1    0    0  503  502  0.00000000000E+00  0.00000000000E+00  0.18990570411E+03  0.18990570411E+03  0.00000000000E+00 0.  1.
         21   -1    0    0  501  503 -0.00000000000E+00 -0.00000000000E+00 -0.60081300231E+03  0.60081300231E+03  0.00000000000E+00 0. -1.
          6    2    1    2  501    0 -0.11878990637E+03  0.52893648499E+02 -0.51062558758E+03  0.55347859496E+03  0.16938501847E+03 0.  0.
         24    2    3    3    0    0 -0.15591415649E+02  0.16409694952E+02 -0.34574886724E+03  0.35552044215E+03  0.79624966324E+02 0.  0.
         -6    2    1    2    0  502  0.11878990637E+03 -0.52893648499E+02  0.99718289382E+02  0.23724011146E+03  0.17155277131E+03 0.  0.
        -24    2    5    5    0    0  0.53546735701E+02 -0.34541490068E+02 -0.12699058230E+02  0.10588858661E+03  0.83610760394E+02 0.  0.
          5    1    3    3  501    0 -0.10319849072E+03  0.36483953547E+02 -0.16487672035E+03  0.19795815281E+03  0.47000000000E+01 0. -1.
        -11    1    4    4    0    0  0.88279110045E+01 -0.22432528271E+02 -0.42843869742E+02  0.49160426277E+02  0.00000000000E+00 0.  1.
         12    1    4    4    0    0 -0.24419326654E+02  0.38842223224E+02 -0.30290499749E+03  0.30636001587E+03  0.00000000000E+00 0. -1.
         -5    1    5    5    0  502  0.65243170665E+02 -0.18352158431E+02  0.11241734761E+03  0.13135152485E+03  0.47000000000E+01 0.  1.
         11    1    6    6    0    0  0.12089772776E+01  0.24295737609E+02  0.57790973113E+01  0.25002848992E+02  0.00000000000E+00 0. -1.
        -12    1    6    6    0    0  0.52337758423E+02 -0.58837227677E+02 -0.18478155541E+02  0.80885737616E+02  0.00000000000E+00 0.  1.
</event>
<event>
12    1  0.8133495E-002  0.1803593E+03  0.7818608E-02  0.1168079E+00
         21   -1    0    0  503  502  0.00000000000E+00  0.00000000000E+00  0.60504635259E+03  0.60504635259E+03  0.00000000000E+00 0. -1.
         21   -1    0    0  501  503 -0.00000000000E+00 -0.00000000000E+00 -0.18854749673E+03  0.18854749673E+03  0.00000000000E+00 0. -1.
          6    2    1    2  501    0 -0.16939840127E+01  0.47978059476E+02 -0.12860187811E+03  0.21942985842E+03  0.17119070050E+03 0.  0.
         24    2    3    3    0    0 -0.48531277720E+01  0.90452507462E+02 -0.62583197577E+02  0.14072398125E+03  0.87643444273E+02 0.  0.
         -6    2    1    2    0  502  0.16939840127E+01 -0.47978059476E+02  0.54510073397E+03  0.57416399090E+03  0.17385256543E+03 0.  0.
        -24    2    5    5    0    0  0.47826235351E+01 -0.64067926820E+02  0.54712607595E+03  0.55699962271E+03  0.82304702090E+02 0.  0.
          5    1    3    3  501    0  0.31591437593E+01 -0.42474447986E+02 -0.66018680536E+02  0.78705877168E+02  0.47000000000E+01 0. -1.
        -11    1    4    4    0    0  0.40274284981E+02  0.34769202834E+02 -0.36178389130E+02  0.64341210251E+02  0.00000000000E+00 0.  1.
         12    1    4    4    0    0 -0.45127412753E+02  0.55683304628E+02 -0.26404808447E+02  0.76382770997E+02  0.00000000000E+00 0. -1.
         -5    1    5    5    0  502 -0.30886395223E+01  0.16089867344E+02 -0.20253419801E+01  0.17164368191E+02  0.47000000000E+01 0.  1.
         11    1    6    6    0    0  0.24359850495E+02 -0.36525664366E+01  0.32614141698E+03  0.32707027904E+03  0.00000000000E+00 0. -1.
        -12    1    6    6    0    0 -0.19577226960E+02 -0.60415360383E+02  0.22098465897E+03  0.22992934368E+03  0.00000000000E+00 0.  1.
</event>
<event>
12    1  0.8133495E-002  0.2865745E+03  0.7818608E-02  0.1092178E+00
         21   -1    0    0  501  502  0.00000000000E+00  0.00000000000E+00  0.43110916281E+03  0.43110916281E+03  0.00000000000E+00 0. -1.
         21   -1    0    0  502  503 -0.00000000000E+00 -0.00000000000E+00 -0.27217805762E+03  0.27217805762E+03  0.00000000000E+00 0.  1.
         -6    2    1    2    0  503 -0.22633050823E+03 -0.34168688005E+02 -0.11334581312E+03  0.30799030928E+03  0.17209810883E+03 0.  0.
        -24    2    3    3    0    0 -0.49398933878E+02  0.26506123545E+02 -0.43276291897E+02  0.10819530793E+03  0.81795830971E+02 0.  0.
          6    2    1    2  501    0  0.22633050823E+03  0.34168688005E+02  0.27227691831E+03  0.39529691114E+03  0.17242949144E+03 0.  0.
         24    2    5    5    0    0  0.19850778451E+03  0.78848622096E+02  0.24716088365E+03  0.33678788908E+03  0.81945921841E+02 0.  0.
          5    1    5    5  501    0  0.27822723723E+02 -0.44679934091E+02  0.25116034660E+02  0.58509022063E+02  0.47000000000E+01 0. -1.
        -11    1    6    6    0    0  0.14179046718E+03  0.32229922839E+02  0.11415282607E+03  0.18486257655E+03  0.00000000000E+00 0.  1.
         12    1    6    6    0    0  0.56717317330E+02  0.46618699257E+02  0.13300805758E+03  0.15192531253E+03  0.00000000000E+00 0. -1.
         -5    1    3    3    0  503 -0.17693157436E+03 -0.60674811550E+02 -0.70069521226E+02  0.19979500135E+03  0.47000000000E+01 0.  1.
         13    1    4    4    0    0 -0.44257658053E+02  0.16132648631E+02  0.14486644698E+02  0.49283521818E+02  0.00000000000E+00 0. -1.
        -14    1    4    4    0    0 -0.51412758245E+01  0.10373474915E+02 -0.57762936595E+02  0.58911786112E+02  0.00000000000E+00 0.  1.
</event>
<event>
12    1  0.8133495E-002  0.2051479E+03  0.7818608E-02  0.1147392E+00
         21   -1    0    0  503  502  0.00000000000E+00  0.00000000000E+00  0.15064405101E+03  0.15064405101E+03  0.00000000000E+00 0. -1.
         21   -1    0    0  501  503 -0.00000000000E+00 -0.00000000000E+00 -0.27631496645E+03  0.27631496645E+03  0.00000000000E+00 0. -1.
          6    2    1    2  501    0  0.10935958629E+03 -0.10866826130E+02 -0.10067348997E+03  0.22029374528E+03  0.16222384412E+03 0.  0.
         24    2    3    3    0    0  0.98205898979E+02 -0.56034034207E+02 -0.40615772549E+02  0.14417869520E+03  0.79709745866E+02 0.  0.
         -6    2    1    2    0  502 -0.10935958629E+03  0.10866826130E+02 -0.24997425469E+02  0.20666527219E+03  0.17322833609E+03 0.  0.
        -24    2    5    5    0    0 -0.71286005778E+02  0.33698223224E+02 -0.70188575202E+02  0.14314204619E+03  0.96674424907E+02 0.  0.
          5    1    3    3  501    0  0.11153687311E+02  0.45167208077E+02 -0.60057717423E+02  0.76115050077E+02  0.47000000000E+01 0. -1.
        -13    1    4    4    0    0  0.10775976684E+03 -0.33792237540E+02 -0.25954463469E+02  0.11587802570E+03  0.00000000000E+00 0.  1.
         14    1    4    4    0    0 -0.95538678587E+01 -0.22241796667E+02 -0.14661309080E+02  0.28300669497E+02  0.00000000000E+00 0. -1.
         -5    1    5    5    0  502 -0.38073580513E+02 -0.22831397094E+02  0.45191149734E+02  0.63523225993E+02  0.47000000000E+01 0.  1.
         13    1    6    6    0    0 -0.45235501384E+01 -0.28223253471E+02 -0.35790990482E+02  0.45804034124E+02  0.00000000000E+00 0. -1.
        -14    1    6    6    0    0 -0.66762455639E+02  0.61921476694E+02 -0.34397584720E+02  0.97338012069E+02  0.00000000000E+00 0.  1.
</event>
<event>
12    1  0.8133495E-002  0.2151612E+03  0.7818608E-02  0.1137739E+00
         21   -1    0    0  503  502  0.00000000000E+00  0.00000000000E+00  0.30379573813E+02  0.30379573813E+02  0.00000000000E+00 0.  1.
         21   -1    0    0  501  503 -0.00000000000E+00 -0.00000000000E+00 -0.17896220327E+04  0.17896220327E+04  0.00000000000E+00 0. -1.
          6    2    1    2  501    0 -0.78183431926E+02  0.99808955252E+02 -0.12332557399E+04  0.12517090880E+04  0.17257301152E+03 0.  0.
         24    2    3    3    0    0  0.25211113911E+02  0.24076173516E+02 -0.49985626143E+03  0.50718053151E+03  0.78489152512E+02 0.  0.
         -6    2    1    2    0  502  0.78183431926E+02 -0.99808955252E+02 -0.52598671897E+03  0.56829251854E+03  0.17383866520E+03 0.  0.
        -24    2    5    5    0    0 -0.18199743380E+02 -0.78267884057E+01 -0.17337013624E+03  0.19131641861E+03  0.78436462277E+02 0.  0.
          5    1    3    3  501    0 -0.10339454584E+03  0.75732781736E+02 -0.73339947849E+03  0.74452855647E+03  0.47000000000E+01 0. -1.
        -13    1    4    4    0    0  0.40093711686E+02  0.44762213588E+02 -0.36986712750E+03  0.37471703122E+03  0.00000000000E+00 0.  1.
         14    1    4    4    0    0 -0.14882597775E+02 -0.20686040073E+02 -0.12998913393E+03  0.13246350029E+03  0.00000000000E+00 0. -1.
         -5    1    5    5    0  502  0.96383175306E+02 -0.91982166846E+02 -0.35261658273E+03  0.37697609993E+03  0.47000000000E+01 0.  1.
         11    1    6    6    0    0 -0.47302442872E+01 -0.22747866361E+02 -0.16919898595E+03  0.17078681881E+03  0.00000000000E+00 0. -1.
        -12    1    6    6    0    0 -0.13469499092E+02  0.14921077955E+02 -0.41711502952E+01  0.20529599800E+02  0.00000000000E+00 0.  1.
</event>
<event>
12    1  0.8133495E-002  0.2349217E+03  0.7818608E-02  0.1123662E+00
         21   -1    0    0  503  502  0.00000000000E+00  0.00000000000E+00  0.93120647294E+02  0.93120647294E+02  0.00000000000E+00 0. -1.
         21   -1    0    0  501  503 -0.00000000000E+00 -0.00000000000E+00 -0.69258949407E+03  0.69258949407E+03  0.00000000000E+00 0.  1.
          6    2    1    2  501    0  0.11639198791E+03 -0.10960708790E+03 -0.14717255539E+03  0.27721463839E+03  0.17212607622E+03 0.  0.
         24    2    3    3    0    0  0.13677776457E+03 -0.59756509095E+02 -0.14478450055E+03  0.22309945657E+03  0.80819667549E+02 0.  0.
         -6    2    1    2    0  502 -0.11639198791E+03  0.10960708790E+03 -0.45229629139E+03  0.50849550297E+03  0.16862660754E+03 0.  0.
        -24    2    5    5    0    0 -0.28898791337E+02 -0.72442591555E+01 -0.14597351895E+03  0.16913577102E+03  0.80068853950E+02 0.  0.
          5    1    3    3  501    0 -0.20385776667E+02 -0.49850578807E+02 -0.23880548401E+01  0.54115181822E+02  0.47000000000E+01 0. -1.
        -13    1    4    4    0    0 -0.25916803530E+01 -0.25198187995E+02 -0.30036083223E+02  0.39291624816E+02  0.00000000000E+00 0.  1.
         14    1    4    4    0    0  0.13936944493E+03 -0.34558321100E+02 -0.11474841733E+03  0.18380783176E+03  0.00000000000E+00 0. -1.
         -5    1    5    5    0  502 -0.87493196569E+02  0.11685134706E+03 -0.30632277244E+03  0.33935973195E+03  0.47000000000E+01 0.  1.
         11    1    6    6    0    0 -0.22279880037E+02 -0.92808223830E+01 -0.15549791920E+03  0.15735987289E+03  0.00000000000E+00 0. -1.
        -12    1    6    6    0    0 -0.66189113000E+01  0.20365632275E+01  0.95244002556E+01  0.11775898132E+02  0.00000000000E+00 0.  1.
</event>
<event>
12    1  0.8133495E-002  0.1854299E+03  0.7818608E-02  0.1162922E+00
         21   -1    0    0  503  502  0.00000000000E+00  0.00000000000E+00  0.25923651969E+03  0.25923651969E+03  0.00000000000E+00 0. -1.
         21   -1    0    0  501  503 -0.00000000000E+00 -0.00000000000E+00 -0.18085128449E+03  0.18085128449E+03  0.00000000000E+00 0. -1.
          6    2    1    2  501    0 -0.64241564329E+02 -0.13082515908E+02 -0.75310277595E+02  0.20013970827E+03  0.17345355028E+03 0.  0.
         24    2    3    3    0    0  0.52108907153E+01 -0.36687181082E+01  0.11544643663E+02  0.88434155826E+02  0.87445458686E+02 0.  0.
         -6    2    1    2    0  502  0.64241564329E+02  0.13082515908E+02  0.15369551280E+03  0.23994809591E+03  0.17220524749E+03 0.  0.
        -24    2    5    5    0    0  0.36132770873E+02  0.34556298845E+02  0.16819944538E+02  0.98497614073E+02  0.83181455403E+02 0.  0.
          5    1    3    3  501    0 -0.69452455044E+02 -0.94137977996E+01 -0.86854921258E+02  0.11170555245E+03  0.47000000000E+01 0. -1.
        -13    1    4    4    0    0 -0.33196843743E+02  0.23418915144E+02  0.38278872355E+01  0.40805989042E+02  0.00000000000E+00 0.  1.
         14    1    4    4    0    0  0.38407734458E+02 -0.27087633253E+02  0.77167564273E+01  0.47628166784E+02  0.00000000000E+00 0. -1.
         -5    1    5    5    0  502  0.28108793456E+02 -0.21473782937E+02  0.13687556827E+03  0.14145048183E+03  0.47000000000E+01 0.  1.
         13    1    6    6    0    0 -0.16165241828E+02  0.26470475467E+02  0.30853991236E+02  0.43748941587E+02  0.00000000000E+00 0. -1.
        -14    1    6    6    0    0  0.52298012701E+02  0.80858233775E+01 -0.14034046698E+02  0.54748672485E+02  0.00000000000E+00 0.  1.
</event>
<event>
12    1  0.8133495E-002  0.1967986E+03  0.7818608E-02  0.1152497E+00
         21   -1    0    0  503  502  0.00000000000E+00  0.00000000000E+00  0.54866981925E+03  0.54866981925E+03  0.00000000000E+00 0. -1.
         21   -1    0    0  501  503 -0.00000000000E+00 -0.00000000000E+00 -0.81345851766E+02  0.81345851766E+02  0.00000000000E+00 0. -1.
          6    2    1    2  501    0 -0.92904517744E+02 -0.45596190229E+01  0.11892543249E+03  0.22994117234E+03  0.17342907686E+03 0.  0.
         24    2    3    3    0    0  0.97281101593E+01  0.31204236050E+02  0.56025562656E+02  0.10427895341E+03  0.81651062329E+02 0.  0.
         -6    2    1    2    0  502  0.92904517744E+02  0.45596190229E+01  0.34839853500E+03  0.40007449868E+03  0.17328019437E+03 0.  0.
        -24    2    5    5    0    0  0.11287696143E+03 -0.42866860981E+02  0.25215083443E+03  0.29083220203E+03  0.80153292158E+02 0.  0.
          5    1    3    3  501    0 -0.10263262790E+03 -0.35763855073E+02  0.62899869830E+02  0.12566221892E+03  0.47000000000E+01 0. -1.
        -13    1    4    4    0    0  0.30199811407E+01  0.15347881693E+02 -0.20530689811E+02  0.25810598262E+02  0.00000000000E+00 0.  1.
         14    1    4    4    0    0  0.67081290186E+01  0.15856354357E+02  0.76556252466E+02  0.78468355151E+02  0.00000000000E+00 0. -1.
         -5    1    5    5    0  502 -0.19972443683E+02  0.47426480004E+02  0.96247700575E+02  0.10924229665E+03  0.47000000000E+01 0.  1.
         13    1    6    6    0    0  0.83781114213E+02 -0.14854350496E+02  0.22895879797E+03  0.24425817897E+03  0.00000000000E+00 0. -1.
        -14    1    6    6    0    0  0.29095847214E+02 -0.28012510485E+02  0.23192036461E+02  0.46574023060E+02  0.00000000000E+00 0.  1.
</event>
<event>
12    1  0.8133495E-002  0.1893185E+03  0.7818608E-02  0.1159270E+00
         21   -1    0    0  501  502  0.00000000000E+00  0.00000000000E+00  0.85225284223E+03  0.85225284223E+03  0.00000000000E+00 0. -1.
         21   -1    0    0  502  503 -0.00000000000E+00 -0.00000000000E+00 -0.43246963537E+02  0.43246963537E+02  0.00000000000E+00 0. -1.
         -6    2    1    2    0  503 -0.60615600205E+02 -0.47826948015E+02  0.48535456938E+03  0.52097078093E+03  0.17285782776E+03 0.  0.
        -24    2    3    3    0    0 -0.34143039419E+02  0.39900351487E+02  0.21125104561E+03  0.23191765900E+03  0.80006319102E+02 0.  0.
          6    2    1    2  501    0  0.60615600205E+02  0.47826948015E+02  0.32365130931E+03  0.37452902484E+03  0.17193066184E+03 0.  0.
         24    2    5    5    0    0 -0.28785743007E+02  0.18239241787E+01  0.16712104943E+03  0.18843042025E+03  0.82125711037E+02 0.  0.
          5    1    5    5  501    0  0.89401343212E+02  0.46003023837E+02  0.15653025988E+03  0.18609860459E+03  0.47000000000E+01 0. -1.
        -13    1    6    6    0    0 -0.13126441921E+02  0.34432668074E+02  0.13537870327E+03  0.14030433140E+03  0.00000000000E+00 0.  1.
         14    1    6    6    0    0 -0.15659301086E+02 -0.32608743896E+02  0.31742346155E+02  0.48126088854E+02  0.00000000000E+00 0. -1.
         -5    1    3    3    0  503 -0.26472560786E+02 -0.87727299502E+02  0.27410352377E+03  0.28905312193E+03  0.47000000000E+01 0.  1.
         13    1    4    4    0    0  0.10139176700E+02  0.11726952056E+02  0.13576650263E+01  0.15561733933E+02  0.00000000000E+00 0. -1.
        -14    1    4    4    0    0 -0.44282216118E+02  0.28173399431E+02  0.20989338058E+03  0.21635592506E+03  0.00000000000E+00 0.  1.
</event>
<event>
12    1  0.8133495E-002  0.1876214E+03  0.7818608E-02  0.1160909E+00
         21   -1    0    0  501  502  0.00000000000E+00  0.00000000000E+00  0.20186784660E+03  0.20186784660E+03  0.00000000000E+00 0.  1.
         21   -1    0    0  502  503 -0.00000000000E+00 -0.00000000000E+00 -0.20720570442E+03  0.20720570442E+03  0.00000000000E+00 0. -1.
         -6    2    1    2    0  503 -0.25194417335E+02  0.67451356187E+02 -0.85481305703E+02  0.20505207674E+03  0.17191525946E+03 0.  0.
        -24    2    3    3    0    0 -0.61618721318E+02  0.47950179309E+01 -0.14699304278E+02  0.10363842692E+03  0.81884033701E+02 0.  0.
          6    2    1    2  501    0  0.25194417335E+02 -0.67451356187E+02  0.80143447882E+02  0.20402147427E+03  0.17325514598E+03 0.  0.
         24    2    5    5    0    0  0.19750431777E+02 -0.11156961344E+03  0.77230015697E+02  0.15922598690E+03  0.80935661983E+02 0.  0.
          5    1    5    5  501    0  0.54439855583E+01  0.44118257253E+02  0.29134321856E+01  0.44795487372E+02  0.47000000000E+01 0. -1.
        -11    1    6    6    0    0  0.38016580922E+02 -0.74133037563E+02  0.15478075621E+02  0.84738058204E+02  0.00000000000E+00 0.  1.
         12    1    6    6    0    0 -0.18266149145E+02 -0.37436575877E+02  0.61751940076E+02  0.74487928694E+02  0.00000000000E+00 0. -1.
         -5    1    3    3    0  503  0.36424303983E+02  0.62656338256E+02 -0.70782001425E+02  0.10141364982E+03  0.47000000000E+01 0.  1.
         13    1    4    4    0    0 -0.10565076926E+02  0.24149957698E+02 -0.36351160879E+02  0.44902652533E+02  0.00000000000E+00 0. -1.
        -14    1    4    4    0    0 -0.51053644392E+02 -0.19354939767E+02  0.21651856601E+02  0.58735774391E+02  0.00000000000E+00 0.  1.
</event>
<event>
12    1  0.8133495E-002  0.1895328E+03  0.7818608E-02  0.1159510E+00
         21   -1    0    0  503  502  0.00000000000E+00  0.00000000000E+00  0.19280601700E+03  0.19280601700E+03  0.00000000000E+00 0. -1.
         21   -1    0    0  501  503 -0.00000000000E+00 -0.00000000000E+00 -0.35896240306E+03  0.35896240306E+03  0.00000000000E+00 0. -1.
          6    2    1    2  501    0 -0.53895128342E+02  0.51011511146E+02 -0.27620039521E+03  0.33497665324E+03  0.17440137837E+03 0.  0.
         24    2    3    3    0    0 -0.10617753905E+02  0.41918047567E+02 -0.27576973718E+03  0.29050309161E+03  0.80456440897E+02 0.  0.
         -6    2    1    2    0  502  0.53895128342E+02 -0.51011511146E+02  0.11004400915E+03  0.21679176683E+03  0.17141215560E+03 0.  0.
        -24    2    5    5    0    0  0.91790937638E+02 -0.64263061603E+02  0.55678990471E+02  0.14904709023E+03  0.80991158819E+02 0.  0.
          5    1    3    3  501    0 -0.43277374437E+02  0.90934635794E+01 -0.43065803159E+00  0.44473561634E+02  0.47000000000E+01 0. -1.
        -13    1    4    4    0    0 -0.10869845928E+02  0.75931654574E+00  0.76394434152E+00  0.10923082124E+02  0.00000000000E+00 0.  1.
         14    1    4    4    0    0  0.25209202307E+00  0.41158731021E+02 -0.27653368152E+03  0.27958000948E+03  0.00000000000E+00 0. -1.
         -5    1    5    5    0  502 -0.37895809295E+02  0.13251550457E+02  0.54365018675E+02  0.67744676596E+02  0.47000000000E+01 0.  1.
         11    1    6    6    0    0  0.92106798164E+02 -0.43541544064E+02  0.70216098730E+02  0.12373289315E+03  0.00000000000E+00 0. -1.
        -12    1    6    6    0    0 -0.31586052584E+00 -0.20721517539E+02 -0.14537108259E+02  0.25314197075E+02  0.00000000000E+00 0.  1.
</event>
<event>
12    1  0.8133495E-002  0.1806699E+03  0.7818608E-02  0.1167256E+00
         21   -1    0    0  501  502  0.00000000000E+00  0.00000000000E+00  0.12401218270E+03  0.12401218270E+03  0.00000000000E+00 0.  1.
         21   -1    0    0  502  503 -0.00000000000E+00 -0.00000000000E+00 -0.10394820153E+04  0.10394820153E+04  0.00000000000E+00 0.  1.
         -6    2    1    2    0  503  0.12963081640E+02  0.52612748706E+02 -0.96078920517E+03  0.97762851988E+03  0.17235278730E+03 0.  0.
        -24    2    3    3    0    0  0.72238861121E+02  0.47052807566E+02 -0.54279544850E+03  0.55538995983E+03  0.79991804609E+02 0.  0.
          6    2    1    2  501    0 -0.12963081640E+02 -0.52612748706E+02  0.45319372533E+02  0.18586567816E+03  0.17191876564E+03 0.  0.
         24    2    5    5    0    0  0.54667167300E+02 -0.44781209950E+02  0.76082391953E+01  0.10789515073E+03  0.81176488602E+02 0.  0.
          5    1    5    5  501    0 -0.67630248940E+02 -0.78315387564E+01  0.37711133338E+02  0.77970527436E+02  0.47000000000E+01 0. -1.
        -13    1    6    6    0    0  0.21579978713E+01 -0.29188597167E+02  0.35839909828E+02  0.46272349151E+02  0.00000000000E+00 0.  1.
         14    1    6    6    0    0  0.52509169429E+02 -0.15592612783E+02 -0.28231670633E+02  0.61622801577E+02  0.00000000000E+00 0. -1.
         -5    1    3    3    0  503 -0.59275779481E+02  0.55599411409E+01 -0.41799375667E+03  0.42223856005E+03  0.47000000000E+01 0.  1.
         11    1    4    4    0    0  0.36548322708E+02  0.51515840983E+02 -0.46965894043E+03  0.47388730949E+03  0.00000000000E+00 0. -1.
        -12    1    4    4    0    0  0.35690538414E+02 -0.44630334180E+01 -0.73136508069E+02  0.81502650337E+02  0.00000000000E+00 0.  1.
</event>
<event>
12    1  0.8133495E-002  0.1870054E+03  0.7818608E-02  0.1161385E+00
         21   -1    0    0  501  502  0.00000000000E+00  0.00000000000E+00  0.37013255589E+02  0.37013255589E+02  0.00000000000E+00 0. -1.
         21   -1    0    0  502  503 -0.00000000000E+00 -0.00000000000E+00 -0.17167592946E+04  0.17167592946E+04  0.00000000000E+00 0. -1.
         -6    2    1    2    0  503 -0.65536538762E+02 -0.30927362780E+02 -0.14284519863E+04  0.14405318694E+04  0.17148017391E+03 0.  0.
        -24    2    3    3    0    0 -0.10273510578E+03 -0.53522314328E+02 -0.11865909734E+04  0.11947410950E+04  0.77388667922E+02 0.  0.
          6    2    1    2  501    0  0.65536538762E+02  0.30927362780E+02 -0.25129405272E+03  0.31324068075E+03  0.17239339739E+03 0.  0.
         24    2    5    5    0    0 -0.61327901055E+01 -0.55961472110E+01 -0.44467074938E+02  0.91272331159E+02  0.79274142717E+02 0.  0.
          5    1    5    5  501    0  0.71669328867E+02  0.36523509991E+02 -0.20682697778E+03  0.22196834959E+03  0.47000000000E+01 0. -1.
        -13    1    6    6    0    0  0.19669558492E+02 -0.32863127399E+02 -0.36478160815E+02  0.52891709087E+02  0.00000000000E+00 0.  1.
         14    1    6    6    0    0 -0.25802348598E+02  0.27266980188E+02 -0.79889141230E+01  0.38380622072E+02  0.00000000000E+00 0. -1.
         -5    1    3    3    0  503  0.37198567019E+02  0.22594951548E+02 -0.24186101285E+03  0.24579077436E+03  0.47000000000E+01 0.  1.
         11    1    4    4    0    0 -0.75394176336E+02 -0.11044060491E+02 -0.93675821316E+03  0.93985222403E+03  0.00000000000E+00 0. -1.
        -12    1    4    4    0    0 -0.27340929445E+02 -0.42478253837E+02 -0.24983276025E+03  0.25488887101E+03  0.00000000000E+00 0.  1.
</event>
<event>
12    1  0.8133495E-002  0.2028068E+03  0.7818608E-02  0.1151159E+00
         21   -1    0    0  501  502  0.00000000000E+00  0.00000000000E+00  0.37325641701E+03  0.37325641701E+03  0.00000000000E+00 0. -1.
         21   -1    0    0  502  503 -0.00000000000E+00 -0.00000000000E+00 -0.17230188941E+03  0.17230188941E+03  0.00000000000E+00 0. -1.
         -6    2    1    2    0  503 -0.35302929259E+02 -0.61162113322E+02 -0.72297085904E+02  0.21530787415E+03  0.19011446847E+03 0.  0.
        -24    2    3    3    0    0  0.30657015059E+02 -0.72070034061E+02  0.59294882956E+01  0.11229727324E+03  0.80259431620E+02 0.  0.
          6    2    1    2  501    0  0.35302929259E+02  0.61162113322E+02  0.27325161350E+03  0.33025043227E+03  0.17149869624E+03 0.  0.
         24    2    5    5    0    0  0.60216753541E+01  0.48778326874E+02  0.58082850284E+02  0.11269483785E+03  0.83131962777E+02 0.  0.
          5    1    5    5  501    0  0.29281253904E+02  0.12383786448E+02  0.21516876322E+03  0.21755559441E+03  0.47000000000E+01 0. -1.
        -11    1    6    6    0    0 -0.20750771735E+02 -0.12023486995E+02 -0.69205044580E+00  0.23992450915E+02  0.00000000000E+00 0.  1.
         12    1    6    6    0    0  0.26772447089E+02  0.60801813869E+02  0.58774900730E+02  0.88702386939E+02  0.00000000000E+00 0. -1.
         -5    1    3    3    0  503 -0.65959944318E+02  0.10907920739E+02 -0.78226574199E+02  0.10301060091E+03  0.47000000000E+01 0.  1.
         11    1    4    4    0    0  0.31212347299E+02  0.65921000607E+01 -0.67790863458E+01  0.32613224600E+02  0.00000000000E+00 0. -1.
        -12    1    4    4    0    0 -0.55533223959E+00 -0.78662134122E+02  0.12708574641E+02  0.79684048641E+02  0.00000000000E+00 0.  1.
</event>
<event>
12    1  0.8133495E-002  0.1754305E+03  0.7818608E-02  0.1173233E+00
         21   -1    0    0  501  502  0.00000000000E+00  0.00000000000E+00  0.26324824978E+03  0.26324824978E+03  0.00000000000E+00 0.  1.
         21   -1    0    0  502  503 -0.00000000000E+00 -0.00000000000E+00 -0.21467700600E+03  0.21467700600E+03  0.00000000000E+00 0.  1.
         -6    2    1    2    0  503 -0.14403941494E+02 -0.26873501964E+02 -0.13911303394E+03  0.22101817863E+03  0.16901757433E+03 0.  0.
        -24    2    3    3    0    0  0.41272895952E+02  0.20762043717E+02 -0.48202346530E+02  0.10415972353E+03  0.79945402596E+02 0.  0.
          6    2    1    2  501    0  0.14403941494E+02  0.26873501964E+02  0.18768427772E+03  0.25690707716E+03  0.17276052661E+03 0.  0.
         24    2    5    5    0    0  0.60630831649E+02  0.81458331375E+00  0.17598568820E+03  0.20236407017E+03  0.79394541072E+02 0.  0.
          5    1    5    5  501    0 -0.46226890155E+02  0.26058918651E+02  0.11698589520E+02  0.54543006989E+02  0.47000000000E+01 0. -1.
        -13    1    6    6    0    0  0.56469443886E+02  0.10893984890E+02  0.18132185873E+03  0.19022379834E+03  0.00000000000E+00 0.  1.
         14    1    6    6    0    0  0.41613877633E+01 -0.10079401576E+02 -0.53361705315E+01  0.12140271834E+02  0.00000000000E+00 0. -1.
         -5    1    3    3    0  503 -0.55676837446E+02 -0.47635545681E+02 -0.90910687414E+02  0.11685845509E+03  0.47000000000E+01 0.  1.
         13    1    4    4    0    0  0.26578248126E+02 -0.12962394199E+02  0.13356055900E+02  0.32447051730E+02  0.00000000000E+00 0. -1.
        -14    1    4    4    0    0  0.14694647827E+02  0.33724437916E+02 -0.61558402430E+02  0.71712671804E+02  0.00000000000E+00 0.  1.
</event>
<event>
12    1  0.8133495E-002  0.1815299E+03  0.7818608E-02  0.1167240E+00
         21   -1    0    0  503  502  0.00000000000E+00  0.00000000000E+00  0.26679564490E+03  0.26679564490E+03  0.00000000000E+00 0. -1.
         21   -1    0    0  501  503 -0.00000000000E+00 -0.00000000000E+00 -0.19312489797E+03  0.19312489797E+03  0.00000000000E+00 0.  1.
          6    2    1    2  501    0  0.27308929314E+02 -0.42664069843E+02 -0.10396097254E+03  0.20593996105E+03  0.17040358937E+03 0.  0.
         24    2    3    3    0    0  0.48866737285E+02 -0.11948197144E+02 -0.12959357027E+03  0.16025272010E+03  0.79722791070E+02 0.  0.
         -6    2    1    2    0  502 -0.27308929314E+02  0.42664069843E+02  0.17763171947E+03  0.25398058181E+03  0.17431898261E+03 0.  0.
        -24    2    5    5    0    0 -0.32419098191E+02  0.13205479360E+02  0.13677119458E+02  0.87255888843E+02  0.78747342358E+02 0.  0.
          5    1    3    3  501    0 -0.21557807971E+02 -0.30715872700E+02  0.25632597723E+02  0.45687240957E+02  0.47000000000E+01 0. -1.
        -11    1    4    4    0    0  0.12927123196E+02  0.33007779096E+02 -0.62512374604E+02  0.71863905917E+02  0.00000000000E+00 0.  1.
         12    1    4    4    0    0  0.35939614089E+02 -0.44955976240E+02 -0.67081195661E+02  0.88388814179E+02  0.00000000000E+00 0. -1.
         -5    1    5    5    0  502  0.51101688767E+01  0.29458590484E+02  0.16395460002E+03  0.16672469297E+03  0.47000000000E+01 0.  1.
         13    1    6    6    0    0 -0.43918885355E+02 -0.21437055181E+02  0.13696875850E+02  0.50754509491E+02  0.00000000000E+00 0. -1.
        -14    1    6    6    0    0  0.11499787164E+02  0.34642534541E+02 -0.19756392324E-01  0.36501379351E+02  0.00000000000E+00 0.  1.
</event>
<event>
12    1  0.8133495E-002  0.1780727E+03  0.7818608E-02  0.1170081E+00
         21   -1    0    0  503  502  0.00000000000E+00  0.00000000000E+00  0.89541555818E+02  0.89541555818E+02  0.00000000000E+00 0. -1.
         21   -1    0    0  501  503 -0.00000000000E+00 -0.00000000000E+00 -0.35579223057E+03  0.35579223057E+03  0.00000000000E+00 0.  1.
          6    2    1    2  501    0  0.14437953697E+01 -0.48500452123E+02 -0.15978116574E+03  0.23924860886E+03  0.17133446097E+03 0.  0.
         24    2    3    3    0    0 -0.45244548761E+02  0.11785388210E+02 -0.12731829793E+03  0.15624191149E+03  0.77560436752E+02 0.  0.
         -6    2    1    2    0  502 -0.14437953697E+01  0.48500452123E+02 -0.10646950902E+03  0.20608517753E+03  0.16964953771E+03 0.  0.
        -24    2    5    5    0    0  0.14559835787E+02 -0.14420461929E+02 -0.11388687352E+03  0.14056979818E+03  0.79810460841E+02 0.  0.
          5    1    3    3  501    0  0.46688344131E+02 -0.60285840333E+02 -0.32462867807E+02  0.83006697372E+02  0.47000000000E+01 0. -1.
        -13    1    4    4    0    0 -0.17841618324E+02 -0.33224647497E+02 -0.48639775279E+02  0.61546959997E+02  0.00000000000E+00 0.  1.
         14    1    4    4    0    0 -0.27402930437E+02  0.45010035707E+02 -0.78678522653E+02  0.94694951491E+02  0.00000000000E+00 0. -1.
         -5    1    5    5    0  502 -0.16003631157E+02  0.62920914052E+02  0.74173645048E+01  0.65515379351E+02  0.47000000000E+01 0.  1.
         13    1    6    6    0    0 -0.23848818876E+02  0.20615894023E+01 -0.57241237680E+01  0.24612637111E+02  0.00000000000E+00 0. -1.
        -14    1    6    6    0    0  0.38408654663E+02 -0.16482051331E+02 -0.10816274975E+03  0.11595716107E+03  0.00000000000E+00 0.  1.
</event>
<event>
12    1  0.8133495E-002  0.1742625E+03  0.7818608E-02  0.1175373E+00
         21   -1    0    0  503  502  0.00000000000E+00  0.00000000000E+00  0.63912260327E+03  0.63912260327E+03  0.00000000000E+00 0.  1.
         21   -1    0    0  501  503 -0.00000000000E+00 -0.00000000000E+00 -0.20376599129E+03  0.20376599129E+03  0.00000000000E+00 0.  1.
          6    2    1    2  501    0  0.11460558495E+02 -0.93079744605E+01 -0.15473650503E+03  0.22760224167E+03  0.16625706492E+03 0.  0.
         24    2    3    3    0    0  0.47570515180E+02 -0.60300449370E+02 -0.71407051227E+02  0.12334271290E+03  0.64925801888E+02 0.  0.
         -6    2    1    2    0  502 -0.11460558495E+02  0.93079744605E+01  0.59009311702E+03  0.61528635289E+03  0.17363590213E+03 0.  0.
        -24    2    5    5    0    0  0.41630193584E+02 -0.34579568767E+02  0.43819481025E+03  0.44843333372E+03  0.78415199209E+02 0.  0.
          5    1    3    3  501    0 -0.36109956685E+02  0.50992474909E+02 -0.83329453805E+02  0.10425952878E+03  0.47000000000E+01 0. -1.
        -13    1    4    4    0    0 -0.14218755369E+02 -0.24832894508E+02 -0.14050511406E+02  0.31878872701E+02  0.00000000000E+00 0.  1.
         14    1    4    4    0    0  0.61789270549E+02 -0.35467554862E+02 -0.57356539821E+02  0.91463840194E+02  0.00000000000E+00 0. -1.
         -5    1    5    5    0  502 -0.53090752079E+02  0.43887543227E+02  0.15189830677E+03  0.16685301917E+03  0.47000000000E+01 0.  1.
         13    1    6    6    0    0  0.59736395460E+02 -0.43062432543E+01  0.28609773206E+03  0.29229932084E+03  0.00000000000E+00 0. -1.
        -14    1    6    6    0    0 -0.18106201877E+02 -0.30273325513E+02  0.15209707819E+03  0.15613401288E+03  0.00000000000E+00 0.  1.
</event>
<event>
12    1  0.8133495E-002  0.3021657E+03  0.7818608E-02  0.1084280E+00
         21   -1    0    0  501  502  0.00000000000E+00  0.00000000000E+00  0.11722775110E+03  0.11722775110E+03  0.00000000000E+00 0. -1.
         21   -1    0    0  502  503 -0.00000000000E+00 -0.00000000000E+00 -0.79238454840E+03  0.79238454840E+03  0.00000000000E+00 0.  1.
         -6    2    1    2    0  503  0.24264250702E+03 -0.37524667321E+02 -0.27250952398E+03  0.40619501358E+03  0.17449774076E+03 0.  0.
        -24    2    3    3    0    0  0.63809927700E+02 -0.37165350718E+02 -0.15276933566E+03  0.19092536121E+03  0.87527444083E+02 0.  0.
          6    2    1    2  501    0 -0.24264250702E+03  0.37524667321E+02 -0.40264727332E+03  0.50341728592E+03  0.17612680144E+03 0.  0.
         24    2    5    5    0    0 -0.12408771155E+03  0.70992503783E+02 -0.30391976326E+03  0.34547885852E+03  0.80936539569E+02 0.  0.
          5    1    5    5  501    0 -0.11855479547E+03 -0.33467836462E+02 -0.98727510055E+02  0.15793842740E+03  0.47000000000E+01 0. -1.
        -11    1    6    6    0    0 -0.12390454655E+03  0.42451990094E+02 -0.27625337106E+03  0.30572934622E+03  0.00000000000E+00 0.  1.
         12    1    6    6    0    0 -0.18316499725E+00  0.28540513689E+02 -0.27666392199E+02  0.39749512303E+02  0.00000000000E+00 0. -1.
         -5    1    3    3    0  503  0.17883257932E+03 -0.35931660345E+00 -0.11974018831E+03  0.21526965237E+03  0.47000000000E+01 0.  1.
         13    1    4    4    0    0  0.23141791871E+02 -0.30215242115E+01  0.55068574706E+01  0.23979107964E+02  0.00000000000E+00 0. -1.
        -14    1    4    4    0    0  0.40668135829E+02 -0.34143826506E+02 -0.15827619313E+03  0.16694625325E+03  0.00000000000E+00 0.  1.
</event>
<event>
12    1  0.8133495E-002  0.1992338E+03  0.7818608E-02  0.1151445E+00
         21   -1    0    0  503  502  0.00000000000E+00  0.00000000000E+00  0.49627004916E+02  0.49627004916E+02  0.00000000000E+00 0.  1.
         21   -1    0    0  501  503 -0.00000000000E+00 -0.00000000000E+00 -0.22779163361E+04  0.22779163361E+04  0.00000000000E+00 0.  1.
          6    2    1    2  501    0 -0.61556480922E+01  0.98422998859E+02 -0.20529998258E+04  0.20621747295E+04  0.16742565999E+03 0.  0.
         24    2    3    3    0    0 -0.29437535401E+02  0.10142566245E+03 -0.19972822459E+04  0.20015315026E+04  0.76408458147E+02 0.  0.
         -6    2    1    2    0  502  0.61556480922E+01 -0.98422998859E+02 -0.17528950540E+03  0.26536861151E+03  0.17311588768E+03 0.  0.
        -24    2    5    5    0    0  0.23952390830E+00  0.17832716594E+02 -0.89297706361E+02  0.12056850308E+03  0.79022910732E+02 0.  0.
          5    1    3    3  501    0  0.23281887309E+02 -0.30026635944E+01 -0.55717579875E+02  0.60643226930E+02  0.47000000000E+01 0. -1.
        -11    1    4    4    0    0  0.18547371980E+02  0.68164063416E+02 -0.94987393970E+03  0.95249716318E+03  0.00000000000E+00 0.  1.
         12    1    4    4    0    0 -0.47984907381E+02  0.33261599037E+02 -0.10474083062E+04  0.10490343394E+04  0.00000000000E+00 0. -1.
         -5    1    5    5    0  502  0.59161241839E+01 -0.11625571545E+03 -0.85991799040E+02  0.14480010844E+03  0.47000000000E+01 0.  1.
         13    1    6    6    0    0  0.30362455016E+02  0.13663734194E+02 -0.83115540574E+02  0.89536413775E+02  0.00000000000E+00 0. -1.
        -14    1    6    6    0    0 -0.30122931107E+02  0.41689823997E+01 -0.61821657863E+01  0.31032089304E+02  0.00000000000E+00 0.  1.
</event>
<event>
12    1  0.8133495E-002  0.1743446E+03  0.7818608E-02  0.1173518E+00
         21   -1    0    0  503  502  0.00000000000E+00  0.00000000000E+00  0.27027476425E+03  0.27027476425E+03  0.00000000000E+00 0.  1.
         21   -1    0    0  501  503 -0.00000000000E+00 -0.00000000000E+00 -0.11554231606E+03  0.11554231606E+03  0.00000000000E+00 0.  1.
          6    2    1    2  501    0 -0.12728263288E+02  0.12951947036E+02  0.11058021289E+03  0.20645586700E+03  0.17339630884E+03 0.  0.
         24    2    3    3    0    0  0.28775492121E+02 -0.41740438977E+02  0.99990687612E+02  0.13682794985E+03  0.78443974011E+02 0.  0.
         -6    2    1    2    0  502  0.12728263288E+02 -0.12951947036E+02  0.44152235297E+02  0.17936121331E+03  0.17289090010E+03 0.  0.
        -24    2    5    5    0    0 -0.10761396594E+02  0.43728289887E+02 -0.24343727734E+02  0.87284069940E+02  0.70695974371E+02 0.  0.
          5    1    3    3  501    0 -0.41503755409E+02  0.54692386013E+02  0.10589525274E+02  0.69627917148E+02  0.47000000000E+01 0. -1.
        -11    1    4    4    0    0  0.10244021939E+02  0.15964182457E+02  0.63069796518E+02  0.65860415576E+02  0.00000000000E+00 0.  1.
         12    1    4    4    0    0  0.18531470182E+02 -0.57704621434E+02  0.36920891094E+02  0.70967534276E+02  0.00000000000E+00 0. -1.
         -5    1    5    5    0  502  0.23489659882E+02 -0.56680236923E+02  0.68495963032E+02  0.92077143367E+02  0.47000000000E+01 0.  1.
         11    1    6    6    0    0  0.11609827285E+01 -0.16088978051E+02  0.82603844694E+01  0.18122832207E+02  0.00000000000E+00 0. -1.
        -12    1    6    6    0    0 -0.11922379323E+02  0.59817267937E+02 -0.32604112204E+02  0.69161237733E+02  0.00000000000E+00 0.  1.
</event>
<event>
12    1  0.8133495E-002  0.2801804E+03  0.7818608E-02  0.1095640E+00
         21   -1    0    0  501  502  0.00000000000E+00  0.00000000000E+00  0.47325605575E+02  0.47325605575E+02  0.00000000000E+00 0. -1.
         21   -1    0    0  502  503 -0.00000000000E+00 -0.00000000000E+00 -0.17588709284E+04  0.17588709284E+04  0.00000000000E+00 0.  1.
         -6    2    1    2    0  503 -0.18574952678E+03 -0.12070938408E+03 -0.10730401699E+04  0.11089233570E+04  0.17094491362E+03 0.  0.
        -24    2    3    3    0    0 -0.38989303239E+02 -0.13047996259E+02 -0.48960520090E+03  0.49773763185E+03  0.79618348604E+02 0.  0.
          6    2    1    2  501    0  0.18574952678E+03  0.12070938408E+03 -0.63850515291E+03  0.69727317691E+03  0.17154419499E+03 0.  0.
         24    2    5    5    0    0  0.11679864624E+03  0.24979765525E+02 -0.46938432057E+03  0.49101525650E+03  0.80674836687E+02 0.  0.
          5    1    5    5  501    0  0.68950880549E+02  0.95729618558E+02 -0.16912083234E+03  0.20625792041E+03  0.47000000000E+01 0. -1.
        -11    1    6    6    0    0  0.10068130805E+03  0.28729824049E+02 -0.25041850128E+03  0.27142504372E+03  0.00000000000E+00 0.  1.
         12    1    6    6    0    0  0.16117338190E+02 -0.37500585242E+01 -0.21896581929E+03  0.21959021278E+03  0.00000000000E+00 0. -1.
         -5    1    3    3    0  503 -0.14676022354E+03 -0.10766138782E+03 -0.58343496897E+03  0.61118572518E+03  0.47000000000E+01 0.  1.
         11    1    4    4    0    0 -0.16801584064E+02 -0.14895559952E+02 -0.29397492546E+02  0.36991667999E+02  0.00000000000E+00 0. -1.
        -12    1    4    4    0    0 -0.22187719175E+02  0.18475636933E+01 -0.46020770836E+03  0.46074596385E+03  0.00000000000E+00 0.  1.
</event>
<event>
12    1  0.8133495E-002  0.2078381E+03  0.7818608E-02  0.1143381E+00
         21   -1    0    0  501  502  0.00000000000E+00  0.00000000000E+00  0.57991223753E+02  0.57991223753E+02  0.00000000000E+00 0. -1.
         21   -1    0    0  502  503 -0.00000000000E+00 -0.00000000000E+00 -0.76983314625E+03  0.76983314625E+03  0.00000000000E+00 0.  1.
         -6    2    1    2    0  503 -0.61653149035E+02  0.97736151189E+02 -0.27863268048E+03  0.34733822064E+03  0.17220395712E+03 0.  0.
        -24    2    3    3    0    0 -0.33435112610E+02 -0.17130883418E+02 -0.10991141410E+03  0.14123230382E+03  0.80340965704E+02 0.  0.
          6    2    1    2  501    0  0.61653149035E+02 -0.97736151189E+02 -0.43320924201E+03  0.48048614936E+03  0.17275192135E+03 0.  0.
         24    2    5    5    0    0  0.10136446695E+03 -0.35898526410E+02 -0.26990093655E+03  0.30134214795E+03  0.79981968109E+02 0.  0.
          5    1    5    5  501    0 -0.39711317915E+02 -0.61837624779E+02 -0.16330830546E+03  0.17914400141E+03  0.47000000000E+01 0. -1.
        -11    1    6    6    0    0  0.81203354043E+02  0.58844735114E+01 -0.12483291181E+03  0.14903646402E+03  0.00000000000E+00 0.  1.
         12    1    6    6    0    0  0.20161112907E+02 -0.41782999921E+02 -0.14506802474E+03  0.15230568393E+03  0.00000000000E+00 0. -1.
         -5    1    3    3    0  503 -0.28218036425E+02  0.11486703461E+03 -0.16872126638E+03  0.20610591682E+03  0.47000000000E+01 0.  1.
         13    1    4    4    0    0  0.12018697185E+02 -0.31016825682E+02 -0.75658080351E+02  0.82647671956E+02  0.00000000000E+00 0. -1.
        -14    1    4    4    0    0 -0.45453809795E+02  0.13885942264E+02 -0.34253333749E+02  0.58584631862E+02  0.00000000000E+00 0.  1.
</event>
<event>
12    1  0.8133495E-002  0.2452506E+03  0.7818608E-02  0.1116419E+00
         21   -1    0    0  501  502  0.00000000000E+00  0.00000000000E+00  0.30962159398E+03  0.30962159398E+03  0.00000000000E+00 0.  1.
         21   -1    0    0  502  503 -0.00000000000E+00 -0.00000000000E+00 -0.32099571356E+03  0.32099571356E+03  0.00000000000E+00 0.  1.
         -6    2    1    2    0  503 -0.79628853946E+02 -0.15454300556E+03 -0.20410035730E+03  0.31906869412E+03  0.17298433678E+03 0.  0.
        -24    2    3    3    0    0 -0.42991065921E+01 -0.16603642010E+02 -0.95235099175E+02  0.12782128034E+03  0.83512827438E+02 0.  0.
          6    2    1    2  501    0  0.79628853946E+02  0.15454300556E+03  0.19272623773E+03  0.31154861342E+03  0.17232191057E+03 0.  0.
         24    2    5    5    0    0  0.86679776783E+02  0.35680495595E+02  0.11867032635E+03  0.17124758064E+03  0.80353008960E+02 0.  0.
          5    1    5    5  501    0 -0.70509228375E+01  0.11886250997E+03  0.74055911379E+02  0.14030103278E+03  0.47000000000E+01 0. -1.
        -11    1    6    6    0    0  0.51742352712E+02  0.50623676014E+02  0.37279823444E+02  0.81423662859E+02  0.00000000000E+00 0.  1.
         12    1    6    6    0    0  0.34937424072E+02 -0.14943180419E+02  0.81390502905E+02  0.89823917778E+02  0.00000000000E+00 0. -1.
         -5    1    3    3    0  503 -0.75329747354E+02 -0.13793936355E+03 -0.10886525813E+03  0.19124741379E+03  0.47000000000E+01 0.  1.
         13    1    4    4    0    0 -0.43927581190E+02 -0.10427193498E+02 -0.50170237521E+02  0.67493788502E+02  0.00000000000E+00 0. -1.
        -14    1    4    4    0    0  0.39628474598E+02 -0.61764485124E+01 -0.45064861655E+02  0.60327491835E+02  0.00000000000E+00 0.  1.
</event>
<event>
12    1  0.8133495E-002  0.2353559E+03  0.7818608E-02  0.1123318E+00
         21   -1    0    0  503  502  0.00000000000E+00  0.00000000000E+00  0.13867314085E+04  0.13867314085E+04  0.00000000000E+00 0.  1.
         21   -1    0    0  501  503 -0.00000000000E+00 -0.00000000000E+00 -0.40132232617E+02  0.40132232617E+02  0.00000000000E+00 0.  1.
          6    2    1    2  501    0 -0.15691443547E+03  0.23651993974E+01  0.58474347024E+03  0.62948260100E+03  0.17232435910E+03 0.  0.
         24    2    3    3    0    0 -0.81138412089E+02 -0.57092170445E+02  0.24154007936E+03  0.27298878330E+03  0.79613491469E+02 0.  0.
         -6    2    1    2    0  502  0.15691443547E+03 -0.23651993974E+01  0.76185570566E+03  0.79738104014E+03  0.17539861089E+03 0.  0.
        -24    2    5    5    0    0  0.37851993366E+02  0.47513427139E+02  0.24048198018E+03  0.26024381919E+03  0.78771590548E+02 0.  0.
          5    1    3    3  501    0 -0.75776023378E+02  0.59457369842E+02  0.34320339088E+03  0.35649381770E+03  0.47000000000E+01 0. -1.
        -13    1    4    4    0    0 -0.77904961577E+02 -0.41022740884E+02  0.24100976847E+03  0.25658869189E+03  0.00000000000E+00 0.  1.
         14    1    4    4    0    0 -0.32334505121E+01 -0.16069429560E+02  0.53031089855E+00  0.16400091410E+02  0.00000000000E+00 0. -1.
         -5    1    5    5    0  502  0.11906244210E+03 -0.49878626536E+02  0.52137372548E+03  0.53713722094E+03  0.47000000000E+01 0.  1.
         11    1    6    6    0    0 -0.78622800976E+01 -0.17012176615E+02  0.29725775384E+02  0.35140451388E+02  0.00000000000E+00 0. -1.
        -12    1    6    6    0    0  0.45714273464E+02  0.64525603754E+02  0.21075620479E+03  0.22510336781E+03  0.00000000000E+00 0.  1.
</event>
<event>
12    1  0.8133495E-002  0.1969206E+03  0.7818608E-02  0.1152423E+00
         21   -1    0    0  503  502  0.00000000000E+00  0.00000000000E+00  0.11535888123E+03  0.11535888123E+03  0.00000000000E+00 0.  1.
         21   -1    0    0  501  503 -0.00000000000E+00 -0.00000000000E+00 -0.35252980270E+03  0.35252980270E+03  0.00000000000E+00 0.  1.
          6    2    1    2  501    0  0.44032502239E+02  0.85071511301E+02 -0.16966067769E+03  0.25971717954E+03  0.17173306176E+03 0.  0.
         24    2    3    3    0    0  0.33656564132E+02  0.12328386575E+03 -0.15923627257E+03  0.21850307581E+03  0.77818556736E+02 0.  0.
         -6    2    1    2    0  502 -0.44032502239E+02 -0.85071511301E+02 -0.67510243775E+02  0.20817150439E+03  0.17205150083E+03 0.  0.
        -24    2    5    5    0    0  0.88006759599E+01 -0.78466397134E+01  0.16772142132E+02  0.82153108575E+02  0.79553798430E+02 0.  0.
          5    1    3    3  501    0  0.10375938107E+02 -0.38212354446E+02 -0.10424405123E+02  0.41214103728E+02  0.47000000000E+01 0. -1.
        -11    1    4    4    0    0  0.53450362730E+02  0.10123526777E+03 -0.98898303160E+02  0.15128250092E+03  0.00000000000E+00 0.  1.
         12    1    4    4    0    0 -0.19793798597E+02  0.22048597975E+02 -0.60337969410E+02  0.67220574887E+02  0.00000000000E+00 0. -1.
         -5    1    5    5    0  502 -0.52833178199E+02 -0.77224871587E+02 -0.84282385908E+02  0.12601839582E+03  0.47000000000E+01 0.  1.
         11    1    6    6    0    0 -0.33247803441E+02  0.10035329149E+02  0.70818638744E+01  0.35443998938E+02  0.00000000000E+00 0. -1.
        -12    1    6    6    0    0  0.42048479401E+02 -0.17881968862E+02  0.96902782579E+01  0.46709109637E+02  0.00000000000E+00 0.  1.
</event>
<event>
12    1  0.8133495E-002  0.1842959E+03  0.7818608E-02  0.1163826E+00
         21   -1    0    0  501  502  0.00000000000E+00  0.00000000000E+00  0.91098791239E+03  0.91098791239E+03  0.00000000000E+00 0.  1.
         21   -1    0    0  502  503 -0.00000000000E+00 -0.00000000000E+00 -0.96915304846E+02  0.96915304846E+02  0.00000000000E+00 0.  1.
         -6    2    1    2    0  503  0.21095008886E+02  0.59912541391E+02  0.11187912183E+02  0.18413818375E+03  0.17247373516E+03 0.  0.
        -24    2    3    3    0    0 -0.37285077654E+01  0.10407298553E+03  0.23647078709E+02  0.13175810513E+03  0.77174645119E+02 0.  0.
          6    2    1    2  501    0 -0.21095008886E+02 -0.59912541391E+02  0.80288469536E+03  0.82376503349E+03  0.17300428994E+03 0.  0.
         24    2    5    5    0    0  0.11917881607E+02 -0.64774268525E+01  0.68107894089E+03  0.68663774143E+03  0.86132869893E+02 0.  0.
          5    1    5    5  501    0 -0.33012890493E+02 -0.53435114539E+02  0.12180575447E+03  0.13712729206E+03  0.47000000000E+01 0. -1.
        -13    1    6    6    0    0  0.23338063405E+01 -0.45796260171E+02  0.31311554648E+03  0.31645550958E+03  0.00000000000E+00 0.  1.
         14    1    6    6    0    0  0.95840752669E+01  0.39318833318E+02  0.36796339441E+03  0.37018223185E+03  0.00000000000E+00 0. -1.
         -5    1    3    3    0  503  0.24823516651E+02 -0.44160444137E+02 -0.12459166525E+02  0.52380078616E+02  0.47000000000E+01 0.  1.
         11    1    4    4    0    0  0.32820632954E+02  0.35002576167E+02  0.23916433453E+02  0.53613152071E+02  0.00000000000E+00 0. -1.
        -12    1    4    4    0    0 -0.36549140720E+02  0.69070409361E+02 -0.26935474467E+00  0.78144953060E+02  0.00000000000E+00 0.  1.
</event>
<event>
12    1  0.8133495E-002  0.2745029E+03  0.7818608E-02  0.1098758E+00
         21   -1    0    0  501  502  0.00000000000E+00  0.00000000000E+00  0.18750472080E+03  0.18750472080E+03  0.00000000000E+00 0.  1.
         21   -1    0    0  502  503 -0.00000000000E+00 -0.00000000000E+00 -0.42438798036E+03  0.42438798036E+03  0.00000000000E+00 0.  1.
         -6    2    1    2    0  503  0.16162979541E+03 -0.14018062647E+03 -0.18933548167E+03  0.33330230269E+03  0.17166159023E+03 0.  0.
        -24    2    3    3    0    0  0.12882866806E+03 -0.26311067215E+02 -0.92814543153E+02  0.18039523271E+03  0.81478847497E+02 0.  0.
          6    2    1    2  501    0 -0.16162979541E+03  0.14018062647E+03 -0.47547777894E+02  0.27859039848E+03  0.17197970851E+03 0.  0.
         24    2    5    5    0    0 -0.89988420362E+02  0.97446219165E+02  0.37251426425E+02  0.15954540178E+03  0.80457349124E+02 0.  0.
          5    1    5    5  501    0 -0.71641375046E+02  0.42734407305E+02 -0.84799204320E+02  0.11904499670E+03  0.47000000000E+01 0. -1.
        -11    1    6    6    0    0 -0.80935208161E+02  0.98478586210E+02  0.66796882471E+01  0.12764465558E+03  0.00000000000E+00 0.  1.
         12    1    6    6    0    0 -0.90532122015E+01 -0.10323670445E+01  0.30571738178E+02  0.31900746200E+02  0.00000000000E+00 0. -1.
         -5    1    3    3    0  503  0.32801127344E+02 -0.11386955926E+03 -0.96520938513E+02  0.15290706999E+03  0.47000000000E+01 0.  1.
         11    1    4    4    0    0  0.10205492548E+03  0.16862102758E+02 -0.68594699137E+02  0.12411595818E+03  0.00000000000E+00 0. -1.
        -12    1    4    4    0    0  0.26773742582E+02 -0.43173169973E+02 -0.24219844016E+02  0.56279274529E+02  0.00000000000E+00 0.  1.
</event>
<event>
12    1  0.8133495E-002  0.2153666E+03  0.7818608E-02  0.1137604E+00
         21   -1    0    0  501  502  0.00000000000E+00  0.00000000000E+00  0.11635132904E+03  0.11635132904E+03  0.00000000000E+00 0.  1.
         21   -1    0    0  502  503 -0.00000000000E+00 -0.00000000000E+00 -0.57363523280E+03  0.57363523280E+03  0.00000000000E+00 0.  1.
         -6    2    1    2    0  503 -0.12554399306E+03 -0.26075502851E+02 -0.41991147044E+03  0.47140138212E+03  0.17161699804E+03 0.  0.
        -24    2    3    3    0    0 -0.19753597426E+02 -0.33800815410E+02 -0.28162871484E+03  0.29705833306E+03  0.86001281848E+02 0.  0.
          6    2    1    2  501    0  0.12554399306E+03  0.26075502851E+02 -0.37372433318E+02  0.21858517972E+03  0.17303628515E+03 0.  0.
         24    2    5    5    0    0  0.77621276405E+02  0.82602942004E+01 -0.90748887424E+02  0.14452368984E+03  0.80984204294E+02 0.  0.
          5    1    5    5  501    0  0.47922716656E+02  0.17815208651E+02  0.53376454106E+02  0.74061489884E+02  0.47000000000E+01 0. -1.
        -13    1    6    6    0    0  0.34506079848E+02  0.41321559742E+02 -0.25361787298E+02  0.59509336250E+02  0.00000000000E+00 0.  1.
         14    1    6    6    0    0  0.43115196556E+02 -0.33061265541E+02 -0.65387100126E+02  0.85014353589E+02  0.00000000000E+00 0. -1.
         -5    1    3    3    0  503 -0.10579039563E+03  0.77253125590E+01 -0.13828275560E+03  0.17434304907E+03  0.47000000000E+01 0.  1.
         13    1    4    4    0    0 -0.16902990286E+02 -0.52754994582E+02 -0.26768166739E+03  0.27335375540E+03  0.00000000000E+00 0. -1.
        -14    1    4    4    0    0 -0.28506071405E+01  0.18954179172E+02 -0.13947047450E+02  0.23704577653E+02  0.00000000000E+00 0.  1.
</event>
<event>
12    1  0.8133495E-002  0.1790654E+03  0.7818608E-02  0.1169356E+00
         21   -1    0    0  501  502  0.00000000000E+00  0.00000000000E+00  0.82741667568E+02  0.82741667568E+02  0.00000000000E+00 0.  1.
         21   -1    0    0  502  503 -0.00000000000E+00 -0.00000000000E+00 -0.39284094542E+03  0.39284094542E+03  0.00000000000E+00 0.  1.
         -6    2    1    2    0  503  0.64439236214E+01  0.38806906868E+02 -0.19368955158E+03  0.26200443946E+03  0.17199762712E+03 0.  0.
        -24    2    3    3    0    0 -0.53647383815E+00  0.59020525435E+02 -0.21135502329E+03  0.23387127016E+03  0.80877159398E+02 0.  0.
          6    2    1    2  501    0 -0.64439236214E+01 -0.38806906868E+02 -0.11640972627E+03  0.21357817352E+03  0.17469090320E+03 0.  0.
         24    2    5    5    0    0  0.13540056665E+01 -0.22513914861E+02  0.11337186320E+02  0.84474986240E+02  0.80615022253E+02 0.  0.
          5    1    5    5  501    0 -0.77979292879E+01 -0.16292992007E+02 -0.12774691259E+03  0.12910318728E+03  0.47000000000E+01 0. -1.
        -13    1    6    6    0    0  0.34664396766E+02  0.48649635678E+01 -0.99464992296E+01  0.36389849142E+02  0.00000000000E+00 0.  1.
         14    1    6    6    0    0 -0.33310391099E+02 -0.27378878429E+02  0.21283685549E+02  0.48085137098E+02  0.00000000000E+00 0. -1.
         -5    1    3    3    0  503  0.69803974595E+01 -0.20213618567E+02  0.17665471708E+02  0.28133169301E+02  0.47000000000E+01 0.  1.
         11    1    4    4    0    0  0.22067125864E+02  0.49388294417E+02 -0.61034547692E+02  0.81555978820E+02  0.00000000000E+00 0. -1.
        -12    1    4    4    0    0 -0.22603599702E+02  0.96322310181E+01 -0.15032047559E+03  0.15231529134E+03  0.00000000000E+00 0.  1.
</event>
<event>
12    1  0.8133495E-002  0.1835464E+03  0.7818608E-02  0.1165892E+00
         21   -1    0    0  501  502  0.00000000000E+00  0.00000000000E+00  0.36645248193E+03  0.36645248193E+03  0.00000000000E+00 0.  1.
         21   -1    0    0  502  503 -0.00000000000E+00 -0.00000000000E+00 -0.19818560464E+03  0.19818560464E+03  0.00000000000E+00 0.  1.
         -6    2    1    2    0  503 -0.99144846630E+01  0.46220892725E+02 -0.12487604831E+03  0.22199840570E+03  0.17735443824E+03 0.  0.
        -24    2    3    3    0    0 -0.54681425127E+02 -0.23410149772E+02 -0.61305692901E+02  0.11751950293E+03  0.80711537100E+02 0.  0.
          6    2    1    2  501    0  0.99144846630E+01 -0.46220892725E+02  0.29314292560E+03  0.34263968087E+03  0.17098101691E+03 0.  0.
         24    2    5    5    0    0  0.23357888419E+02 -0.53707586901E+02  0.30576141117E+03  0.32219238588E+03  0.82992753418E+02 0.  0.
          5    1    5    5  501    0 -0.13443403756E+02  0.74866941758E+01 -0.12618485565E+02  0.20447294985E+02  0.47000000000E+01 0. -1.
        -11    1    6    6    0    0  0.49859891885E+02 -0.11430827501E+02  0.17114834745E+03  0.17862930743E+03  0.00000000000E+00 0.  1.
         12    1    6    6    0    0 -0.26502003466E+02 -0.42276759400E+02  0.13461306372E+03  0.14356307846E+03  0.00000000000E+00 0. -1.
         -5    1    3    3    0  503  0.44766940464E+02  0.69631042497E+02 -0.63570355405E+02  0.10447890277E+03  0.47000000000E+01 0.  1.
         13    1    4    4    0    0  0.17686291213E+02  0.53856691261E+01 -0.26251048209E+02  0.32108065356E+02  0.00000000000E+00 0. -1.
        -14    1    4    4    0    0 -0.72367716341E+02 -0.28795818898E+02 -0.35054644692E+02  0.85411437577E+02  0.00000000000E+00 0.  1.
</event>
<event>
12    1  0.8133495E-002  0.2043140E+03  0.7818608E-02  0.1146285E+00
         21   -1    0    0  501  502  0.00000000000E+00  0.00000000000E+00  0.60246459598E+03  0.60246459598E+03  0.00000000000E+00 0. -1.
         21   -1    0    0  502  503 -0.00000000000E+00 -0.00000000000E+00 -0.17060900063E+03  0.17060900063E+03  0.00000000000E+00 0. -1.
         -6    2    1    2    0  503  0.39592957688E+02 -0.10432048716E+03 -0.82135732088E+02  0.22020554166E+03  0.17115442078E+03 0.  0.
        -24    2    3    3    0    0  0.22859052876E+02 -0.18345596451E+02 -0.10030469784E+03  0.13062927963E+03  0.78382900433E+02 0.  0.
          6    2    1    2  501    0 -0.39592957688E+02  0.10432048716E+03  0.51399132744E+03  0.55286805496E+03  0.17036911449E+03 0.  0.
         24    2    5    5    0    0 -0.49116545736E+02  0.61835717871E+01  0.17128965713E+03  0.19623367956E+03  0.81956322063E+02 0.  0.
          5    1    5    5  501    0  0.95235880480E+01  0.98136915376E+02  0.34270167030E+03  0.35663437540E+03  0.47000000000E+01 0. -1.
        -13    1    6    6    0    0 -0.53859245179E+02  0.26425864218E+02  0.67179488836E+02  0.90067909442E+02  0.00000000000E+00 0.  1.
         14    1    6    6    0    0  0.47426994439E+01 -0.20242292431E+02  0.10411016830E+03  0.10616577012E+03  0.00000000000E+00 0. -1.
         -5    1    3    3    0  503  0.16733904812E+02 -0.85974890712E+02  0.18168965748E+02  0.89576262032E+02  0.47000000000E+01 0.  1.
         13    1    4    4    0    0  0.44337238903E+02  0.12080518554E+02 -0.62339790589E+02  0.77446621442E+02  0.00000000000E+00 0. -1.
        -14    1    4    4    0    0 -0.21478186027E+02 -0.30426115005E+02 -0.37964907247E+02  0.53182658185E+02  0.00000000000E+00 0.  1.
</event>
<event>
12    1  0.8133495E-002  0.2243861E+03  0.7818608E-02  0.1131051E+00
         21   -1    0    0  501  502  0.00000000000E+00  0.00000000000E+00  0.50158451042E+02  0.50158451042E+02  0.00000000000E+00 0.  1.
         21   -1    0    0  502  503 -0.00000000000E+00 -0.00000000000E+00 -0.11183717311E+04  0.11183717311E+04  0.00000000000E+00 0.  1.
         -6    2    1    2    0  503 -0.13431089537E+03 -0.48353398513E+02 -0.72653980845E+03  0.75976390549E+03  0.17030452447E+03 0.  0.
        -24    2    3    3    0    0 -0.68991183296E+02  0.37444857601E+02 -0.44114701446E+03  0.45464238478E+03  0.76987719396E+02 0.  0.
          6    2    1    2  501    0  0.13431089537E+03  0.48353398513E+02 -0.34167347161E+03  0.40876627666E+03  0.17312319304E+03 0.  0.
         24    2    5    5    0    0  0.15056634513E+03  0.75746631436E+02 -0.31614038640E+03  0.36767300109E+03  0.82649351802E+02 0.  0.
          5    1    5    5  501    0 -0.16255449763E+02 -0.27393232924E+02 -0.25533085212E+02  0.41093275575E+02  0.47000000000E+01 0. -1.
        -11    1    6    6    0    0  0.56992160994E+02  0.67077847275E+02 -0.19824009792E+03  0.21690246756E+03  0.00000000000E+00 0.  1.
         12    1    6    6    0    0  0.93574184138E+02  0.86687841610E+01 -0.11790028848E+03  0.15077053352E+03  0.00000000000E+00 0. -1.
         -5    1    3    3    0  503 -0.65319712072E+02 -0.85798256113E+02 -0.28539279399E+03  0.30512152071E+03  0.47000000000E+01 0.  1.
         13    1    4    4    0    0 -0.57994205927E+01 -0.16622905233E+02 -0.27036733982E+02  0.32263590036E+02  0.00000000000E+00 0. -1.
        -14    1    4    4    0    0 -0.63191762703E+02  0.54067762834E+02 -0.41411028047E+03  0.42237879474E+03  0.00000000000E+00 0.  1.
</event>
<event>
12    1  0.8133495E-002  0.2170564E+03  0.7818608E-02  0.1136111E+00
         21   -1    0    0  503  502  0.00000000000E+00  0.00000000000E+00  0.15518770943E+03  0.15518770943E+03  0.00000000000E+00 0. -1.
         21   -1    0    0  501  503 -0.00000000000E+00 -0.00000000000E+00 -0.68908665071E+03  0.68908665071E+03  0.00000000000E+00 0.  1.
          6    2    1    2  501    0 -0.13363561487E+03 -0.73245953532E+01 -0.58270960768E+03  0.62179748651E+03  0.17079080799E+03 0.  0.
         24    2    3    3    0    0 -0.14847992259E+03 -0.44120775043E+02 -0.50882589040E+03  0.53780221289E+03  0.79589592563E+02 0.  0.
         -6    2    1    2    0  502  0.13363561487E+03  0.73245953532E+01  0.48810666397E+02  0.22247687363E+03  0.17088402760E+03 0.  0.
        -24    2    5    5    0    0  0.14767734861E+03  0.43985857535E+02  0.21876316279E+02  0.17463580709E+03  0.79219549027E+02 0.  0.
          5    1    3    3  501    0  0.14844307727E+02  0.36796179690E+02 -0.73883717273E+02  0.83995273616E+02  0.47000000000E+01 0. -1.
        -13    1    4    4    0    0 -0.84839399932E+02  0.16211980538E+02 -0.26062122533E+03  0.27456142334E+03  0.00000000000E+00 0.  1.
         14    1    4    4    0    0 -0.63640522660E+02 -0.60332755581E+02 -0.24820466507E+03  0.26324078955E+03  0.00000000000E+00 0. -1.
         -5    1    5    5    0  502 -0.14041733749E+02 -0.36661262182E+02  0.26934350118E+02  0.47841066541E+02  0.47000000000E+01 0.  1.
         13    1    6    6    0    0  0.77086971617E+02  0.20984583552E+02  0.51112764394E+02  0.94843389985E+02  0.00000000000E+00 0. -1.
        -14    1    6    6    0    0  0.70590376998E+02  0.23001273983E+02 -0.29236448115E+02  0.79792417108E+02  0.00000000000E+00 0.  1.
</event>
<event>
12    1  0.8133495E-002  0.2027428E+03  0.7818608E-02  0.1147525E+00
         21   -1    0    0  501  502  0.00000000000E+00  0.00000000000E+00  0.72387382616E+02  0.72387382616E+02  0.00000000000E+00 0. -1.
         21   -1    0    0  502  503 -0.00000000000E+00 -0.00000000000E+00 -0.64365345985E+03  0.64365345985E+03  0.00000000000E+00 0.  1.
         -6    2    1    2    0  503 -0.91715529427E+02  0.55248658671E+02 -0.16213582803E+03  0.25960099747E+03  0.17216416158E+03 0.  0.
        -24    2    3    3    0    0 -0.11096726370E+03  0.37416014103E+02 -0.44904279388E+02  0.13937638068E+03  0.60792182558E+02 0.  0.
          6    2    1    2  501    0  0.91715529427E+02 -0.55248658671E+02 -0.40913024920E+03  0.45643984500E+03  0.17171376959E+03 0.  0.
         24    2    5    5    0    0  0.88748810682E+02 -0.10062443737E+03 -0.33203382542E+03  0.36680887227E+03  0.79376689005E+02 0.  0.
          5    1    5    5  501    0  0.29667187452E+01  0.45375778700E+02 -0.77096423781E+02  0.89630972730E+02  0.47000000000E+01 0. -1.
        -11    1    6    6    0    0  0.93169603463E+02 -0.81678386247E+02 -0.32179410190E+03  0.34482369090E+03  0.00000000000E+00 0.  1.
         12    1    6    6    0    0 -0.44207927812E+01 -0.18946051123E+02 -0.10239723523E+02  0.21985181368E+02  0.00000000000E+00 0. -1.
         -5    1    3    3    0  503  0.19251734269E+02  0.17832644568E+02 -0.11723154864E+03  0.12022461679E+03  0.47000000000E+01 0.  1.
         11    1    4    4    0    0 -0.63436171628E+02  0.48520459953E+02 -0.12622598268E+02  0.80856124640E+02  0.00000000000E+00 0. -1.
        -12    1    4    4    0    0 -0.47531092069E+02 -0.11104445850E+02 -0.32281681120E+02  0.58520256038E+02  0.00000000000E+00 0.  1.
</event>
<event>
12    1  0.8133495E-002  0.2071888E+03  0.7818608E-02  0.1143833E+00
         21   -1    0    0  501  502  0.00000000000E+00  0.00000000000E+00  0.15686287425E+03  0.15686287425E+03  0.00000000000E+00 0. -1.
         21   -1    0    0  502  503 -0.00000000000E+00 -0.00000000000E+00 -0.51179959684E+03  0.51179959684E+03  0.00000000000E+00 0. -1.
         -6    2    1    2    0  503 -0.11627278526E+03  0.23087748263E+01 -0.40556670982E+03  0.45537721823E+03  0.17134574327E+03 0.  0.
        -24    2    3    3    0    0 -0.91929048752E+02 -0.30585772406E+02 -0.39247765623E+03  0.41215590325E+03  0.80295320334E+02 0.  0.
          6    2    1    2  501    0  0.11627278526E+03 -0.23087748263E+01  0.50629987226E+02  0.21328525285E+03  0.17147160828E+03 0.  0.
         24    2    5    5    0    0  0.62354619452E+02 -0.30987943745E+02  0.91482706571E+02  0.13965986313E+03  0.79293382721E+02 0.  0.
          5    1    5    5  501    0  0.53918165806E+02  0.28679168919E+02 -0.40852719345E+02  0.73625389722E+02  0.47000000000E+01 0. -1.
        -13    1    6    6    0    0  0.42314264169E+02 -0.56285819402E+02  0.46839875782E+02  0.84572834771E+02  0.00000000000E+00 0.  1.
         14    1    6    6    0    0  0.20040355283E+02  0.25297875656E+02  0.44642830789E+02  0.55087028359E+02  0.00000000000E+00 0. -1.
         -5    1    3    3    0  503 -0.24343736506E+02  0.32894547233E+02 -0.13089053589E+02  0.43221314980E+02  0.47000000000E+01 0.  1.
         13    1    4    4    0    0 -0.30501336527E+02  0.25344655543E+02 -0.87528275951E+02  0.96093091247E+02  0.00000000000E+00 0. -1.
        -14    1    4    4    0    0 -0.61427712225E+02 -0.55930427949E+02 -0.30494938028E+03  0.31606281200E+03  0.00000000000E+00 0.  1.
</event>
<event>
12    1  0.8133495E-002  0.2475275E+03  0.7818608E-02  0.1114972E+00
         21   -1    0    0  501  502  0.00000000000E+00  0.00000000000E+00  0.52727566954E+03  0.52727566954E+03  0.00000000000E+00 0.  1.
         21   -1    0    0  502  503 -0.00000000000E+00 -0.00000000000E+00 -0.26861165118E+03  0.26861165118E+03  0.00000000000E+00 0.  1.
         -6    2    1    2    0  503 -0.16975933022E+03 -0.55550933793E+02 -0.17076060548E+03  0.30023083048E+03  0.17051460566E+03 0.  0.
        -24    2    3    3    0    0 -0.36327135278E+02 -0.43095085000E+02 -0.12469311956E+03  0.15844365872E+03  0.79869717755E+02 0.  0.
          6    2    1    2  501    0  0.16975933022E+03  0.55550933793E+02  0.42942462384E+03  0.49565649024E+03  0.17136426790E+03 0.  0.
         24    2    5    5    0    0  0.77691088757E+02  0.10424338505E+02  0.10191249544E+03  0.15243752961E+03  0.81893049769E+02 0.  0.
          5    1    5    5  501    0  0.92068241466E+02  0.45126595288E+02  0.32751212840E+03  0.34321896063E+03  0.47000000000E+01 0. -1.
        -11    1    6    6    0    0  0.46126137002E+02  0.31293289286E+02  0.10007764210E+03  0.11455315324E+03  0.00000000000E+00 0.  1.
         12    1    6    6    0    0  0.31564951755E+02 -0.20868950781E+02  0.18348533413E+01  0.37884376367E+02  0.00000000000E+00 0. -1.
         -5    1    3    3    0  503 -0.13343219494E+03 -0.12455848793E+02 -0.46067485916E+02  0.14178717176E+03  0.47000000000E+01 0.  1.
         11    1    4    4    0    0 -0.49521901326E+02 -0.15952434920E+02 -0.11584735818E+03  0.12699413092E+03  0.00000000000E+00 0. -1.
        -12    1    4    4    0    0  0.13194766048E+02 -0.27142650080E+02 -0.88457613791E+01  0.31449527799E+02  0.00000000000E+00 0.  1.
</event>
<event>
12    1  0.8133495E-002  0.1725493E+03  0.7818608E-02  0.1175501E+00
         21   -1    0    0  503  502  0.00000000000E+00  0.00000000000E+00  0.25734871893E+03  0.25734871893E+03  0.00000000000E+00 0.  1.
         21   -1    0    0  501  503 -0.00000000000E+00 -0.00000000000E+00 -0.18175516472E+03  0.18175516472E+03  0.00000000000E+00 0.  1.
          6    2    1    2  501    0  0.12373231321E+02  0.13900981042E+01 -0.95390704602E+02  0.19618648156E+03  0.17098163584E+03 0.  0.
         24    2    3    3    0    0 -0.10590852197E+02  0.62669749510E+02 -0.79385334654E+02  0.12865273684E+03  0.78802485271E+02 0.  0.
         -6    2    1    2    0  502 -0.12373231321E+02 -0.13900981042E+01  0.17098425882E+03  0.24291740209E+03  0.17209944292E+03 0.  0.
        -24    2    5    5    0    0  0.36384984889E+02 -0.43119258375E+02  0.12061153678E+03  0.16119722350E+03  0.90852982836E+02 0.  0.
          5    1    3    3  501    0  0.22964083518E+02 -0.61279651406E+02 -0.16005369948E+02  0.67533744716E+02  0.47000000000E+01 0. -1.
        -13    1    4    4    0    0  0.15011753301E+02  0.12630593945E+02 -0.68688593039E+02  0.71435337574E+02  0.00000000000E+00 0.  1.
         14    1    4    4    0    0 -0.25602605498E+02  0.50039155564E+02 -0.10696741615E+02  0.57217399269E+02  0.00000000000E+00 0. -1.
         -5    1    5    5    0  502 -0.48758216211E+02  0.41729160270E+02  0.50372722035E+02  0.81720178598E+02  0.47000000000E+01 0.  1.
         13    1    6    6    0    0  0.73718917469E+01 -0.41382783982E+02  0.54043521738E+01  0.42380262157E+02  0.00000000000E+00 0. -1.
        -14    1    6    6    0    0  0.29013093143E+02 -0.17364743923E+01  0.11520718461E+03  0.11881696134E+03  0.00000000000E+00 0.  1.
</event>
<event>
12    1  0.8133495E-002  0.2256338E+03  0.7818608E-02  0.1130763E+00
         21   -1    0    0  503  502  0.00000000000E+00  0.00000000000E+00  0.70250180930E+02  0.70250180930E+02  0.00000000000E+00 0. -1.
         21   -1    0    0  501  503 -0.00000000000E+00 -0.00000000000E+00 -0.16940130854E+04  0.16940130854E+04  0.00000000000E+00 0. -1.
          6    2    1    2  501    0  0.95692221634E+02  0.10031604823E+03 -0.14809834966E+04  0.14972490862E+04  0.17094559935E+03 0.  0.
         24    2    3    3    0    0  0.96496200175E+02  0.36967657216E+02 -0.58106219320E+03  0.59508828710E+03  0.76280225102E+02 0.  0.
         -6    2    1    2    0  502 -0.95692221634E+02 -0.10031604823E+03 -0.14277940785E+03  0.26701418017E+03  0.17801770218E+03 0.  0.
        -24    2    5    5    0    0 -0.10845024708E+03 -0.62422212411E+02 -0.16423695786E+03  0.22139371920E+03  0.79896256994E+02 0.  0.
          5    1    3    3  501    0 -0.80397854084E+00  0.63348391014E+02 -0.89992130340E+03  0.90216079905E+03  0.47000000000E+01 0. -1.
        -13    1    4    4    0    0  0.55888418091E+00  0.45515747642E+01  0.64643033835E+00  0.46310966892E+01  0.00000000000E+00 0.  1.
         14    1    4    4    0    0  0.95937315994E+02  0.32416082452E+02 -0.58170862354E+03  0.59045719041E+03  0.00000000000E+00 0. -1.
         -5    1    5    5    0  502  0.12758025450E+02 -0.37893835819E+02  0.21457550006E+02  0.45620460966E+02  0.47000000000E+01 0.  1.
         11    1    6    6    0    0 -0.51491997114E+02 -0.72769633093E+02 -0.11421234633E+03  0.14488376486E+03  0.00000000000E+00 0. -1.
        -12    1    6    6    0    0 -0.56958249970E+02  0.10347420682E+02 -0.50024611529E+02  0.76509954340E+02  0.00000000000E+00 0.  1.
</event>
<event>
12    1  0.8133495E-002  0.1887803E+03  0.7818608E-02  0.1159604E+00
         21   -1    0    0  503  502  0.00000000000E+00  0.00000000000E+00  0.11484375879E+04  0.11484375879E+04  0.00000000000E+00 0.  1.
         21   -1    0    0  501  503 -0.00000000000E+00 -0.00000000000E+00 -0.31005396872E+02  0.31005396872E+02  0.00000000000E+00 0.  1.
          6    2    1    2  501    0  0.25886466336E+00 -0.79241663803E+02  0.55543320329E+03  0.58658477881E+03  0.17116176887E+03 0.  0.
         24    2    3    3    0    0 -0.10112781859E+02 -0.11928004907E+03  0.46788687560E+03  0.48964617537E+03  0.80655131416E+02 0.  0.
         -6    2    1    2    0  502 -0.25886466336E+00  0.79241663803E+02  0.56199898775E+03  0.59285820597E+03  0.17134375350E+03 0.  0.
        -24    2    5    5    0    0 -0.63866964467E+02  0.25593726392E+02  0.31544672549E+03  0.33260025783E+03  0.79889091250E+02 0.  0.
          5    1    3    3  501    0  0.10371646523E+02  0.40038385272E+02  0.87546327682E+02  0.96938603442E+02  0.47000000000E+01 0. -1.
        -11    1    4    4    0    0  0.23775084774E+02 -0.88667634578E+02  0.23439799473E+03  0.25173323978E+03  0.00000000000E+00 0.  1.
         12    1    4    4    0    0 -0.33887866633E+02 -0.30612414496E+02  0.23348888088E+03  0.23791293559E+03  0.00000000000E+00 0. -1.
         -5    1    5    5    0  502  0.63608099804E+02  0.53647937411E+02  0.24655226226E+03  0.26025794815E+03  0.47000000000E+01 0.  1.
         11    1    6    6    0    0 -0.20532344558E+02  0.31545064995E+01  0.95988939976E+01  0.22883768271E+02  0.00000000000E+00 0. -1.
        -12    1    6    6    0    0 -0.43334619910E+02  0.22439219893E+02  0.30584783150E+03  0.30971648956E+03  0.00000000000E+00 0.  1.
</event>
<event>
12    1  0.8133495E-002  0.1746691E+03  0.7818608E-02  0.1173393E+00
         21   -1    0    0  503  502  0.00000000000E+00  0.00000000000E+00  0.71378672974E+02  0.71378672974E+02  0.00000000000E+00 0.  1.
         21   -1    0    0  501  503 -0.00000000000E+00 -0.00000000000E+00 -0.89851185779E+03  0.89851185779E+03  0.00000000000E+00 0.  1.
          6    2    1    2  501    0 -0.18369727692E+02 -0.14660136744E+02 -0.76515784022E+03  0.78455239611E+03  0.17176604813E+03 0.  0.
         24    2    3    3    0    0  0.12626621910E+01  0.57090579395E+02 -0.41769760969E+03  0.42918737561E+03  0.80433709768E+02 0.  0.
         -6    2    1    2    0  502  0.18369727692E+02  0.14660136744E+02 -0.61975344593E+02  0.18533813465E+03  0.17308065840E+03 0.  0.
        -24    2    5    5    0    0  0.21553787131E+02  0.70144013941E+02 -0.90055804271E+01  0.10841944525E+03  0.79302756559E+02 0.  0.
          5    1    3    3  501    0 -0.19632389883E+02 -0.71750716139E+02 -0.34746023053E+03  0.35536502050E+03  0.47000000000E+01 0. -1.
        -13    1    4    4    0    0 -0.22587274642E+02  0.50169770881E+02 -0.38052810025E+03  0.38448514401E+03  0.00000000000E+00 0.  1.
         14    1    4    4    0    0  0.23849936833E+02  0.69208085139E+01 -0.37169509438E+02  0.44702231592E+02  0.00000000000E+00 0. -1.
         -5    1    5    5    0  502 -0.31840594386E+01 -0.55483877197E+02 -0.52969764166E+02  0.76918689401E+02  0.47000000000E+01 0.  1.
         13    1    6    6    0    0  0.66059965389E+01  0.35457789013E+02 -0.44024859363E+02  0.56912935559E+02  0.00000000000E+00 0. -1.
        -14    1    6    6    0    0  0.14947790592E+02  0.34686224927E+02  0.35019278935E+02  0.51506509690E+02  0.00000000000E+00 0.  1.
</event>
<event>
12    1  0.8133495E-002  0.2083712E+03  0.7818608E-02  0.1142880E+00
         21   -1    0    0  503  502  0.00000000000E+00  0.00000000000E+00  0.84816892575E+03  0.84816892575E+03  0.00000000000E+00 0.  1.
         21   -1    0    0  501  503 -0.00000000000E+00 -0.00000000000E+00 -0.10774509179E+03  0.10774509179E+03  0.00000000000E+00 0.  1.
          6    2    1    2  501    0  0.97355774238E+02  0.63529932205E+02  0.23834605501E+02  0.20964417393E+03  0.17282474412E+03 0.  0.
         24    2    3    3    0    0  0.51200600470E+02  0.90145020299E+02  0.61029733967E+02  0.14449641448E+03  0.80043483154E+02 0.  0.
         -6    2    1    2    0  502 -0.97355774238E+02 -0.63529932205E+02  0.71658922845E+03  0.74626984361E+03  0.17292876594E+03 0.  0.
        -24    2    5    5    0    0 -0.13572983044E+03 -0.39905528530E+02  0.57137794379E+03  0.59415446690E+03  0.80819167350E+02 0.  0.
          5    1    3    3  501    0  0.46155173768E+02 -0.26615088094E+02 -0.37195128467E+02  0.65147759451E+02  0.47000000000E+01 0. -1.
        -11    1    4    4    0    0  0.42066052898E+02  0.28183480624E+02  0.64224011565E+02  0.81783770077E+02  0.00000000000E+00 0.  1.
         12    1    4    4    0    0  0.91345475718E+01  0.61961539675E+02 -0.31942775977E+01  0.62712644400E+02  0.00000000000E+00 0. -1.
         -5    1    5    5    0  502  0.38374056207E+02 -0.23624403675E+02  0.14521128467E+03  0.15211537671E+03  0.47000000000E+01 0.  1.
         11    1    6    6    0    0  0.45894505128E+01 -0.17093935924E+02  0.10861515204E+03  0.11004779396E+03  0.00000000000E+00 0. -1.
        -12    1    6    6    0    0 -0.14031928096E+03 -0.22811592606E+02  0.46276279175E+03  0.48410667294E+03  0.00000000000E+00 0.  1.
</event>
<event>
12    1  0.8133495E-002  0.1968022E+03  0.7818608E-02  0.1153201E+00
         21   -1    0    0  503  502  0.00000000000E+00  0.00000000000E+00  0.12987933716E+03  0.12987933716E+03  0.00000000000E+00 0.  1.
         21   -1    0    0  501  503 -0.00000000000E+00 -0.00000000000E+00 -0.29326063677E+03  0.29326063677E+03  0.00000000000E+00 0.  1.
          6    2    1    2  501    0  0.15413124821E+02 -0.92918541886E+02 -0.77471762469E+02  0.21150174159E+03  0.17279957429E+03 0.  0.
         24    2    3    3    0    0  0.65907919488E+02 -0.85780767475E+02 -0.24479007340E+02  0.13780646218E+03  0.81787561997E+02 0.  0.
         -6    2    1    2    0  502 -0.15413124821E+02  0.92918541886E+02 -0.85909537138E+02  0.21163823234E+03  0.16893452274E+03 0.  0.
        -24    2    5    5    0    0 -0.32101999691E+02  0.23919987339E+02 -0.10556407053E+03  0.13782963015E+03  0.79060292078E+02 0.  0.
          5    1    3    3  501    0 -0.50494794667E+02 -0.71377744107E+01 -0.52992755129E+02  0.73695279416E+02  0.47000000000E+01 0. -1.
        -13    1    4    4    0    0 -0.64395898502E+01 -0.17626028485E+02  0.21290689306E+02  0.28380251033E+02  0.00000000000E+00 0.  1.
         14    1    4    4    0    0  0.72347509338E+02 -0.68154738991E+02 -0.45769696645E+02  0.10942621114E+03  0.00000000000E+00 0. -1.
         -5    1    5    5    0  502  0.16688874870E+02  0.68998554547E+02  0.19654533389E+02  0.73808602187E+02  0.47000000000E+01 0.  1.
         11    1    6    6    0    0  0.19989577519E+02  0.29086685373E+02 -0.52755888319E+02  0.63472846381E+02  0.00000000000E+00 0. -1.
        -12    1    6    6    0    0 -0.52091577210E+02 -0.51666980343E+01 -0.52808182208E+02  0.74356783772E+02  0.00000000000E+00 0.  1.
</event>
<event>
12    1  0.8133495E-002  0.1919316E+03  0.7818608E-02  0.1156909E+00
         21   -1    0    0  503  502  0.00000000000E+00  0.00000000000E+00  0.93350098602E+03  0.93350098602E+03  0.00000000000E+00 0.  1.
         21   -1    0    0  501  503 -0.00000000000E+00 -0.00000000000E+00 -0.44215423245E+02  0.44215423245E+02  0.00000000000E+00 0.  1.
          6    2    1    2  501    0  0.81710597881E+02  0.12648938283E+02  0.28078471707E+03  0.33966388670E+03  0.17232202745E+03 0.  0.
         24    2    3    3    0    0  0.74822302313E+02 -0.54631147425E+02  0.19132447421E+03  0.22741735624E+03  0.80812500859E+02 0.  0.
         -6    2    1    2    0  502 -0.81710597881E+02 -0.12648938283E+02  0.60850084571E+03  0.63805252257E+03  0.17320832796E+03 0.  0.
        -24    2    5    5    0    0 -0.10110812153E+03 -0.58655936571E+02  0.46360523527E+03  0.48472367420E+03  0.79773774055E+02 0.  0.
          5    1    3    3  501    0  0.68882955677E+01  0.67280085709E+02  0.89460242858E+02  0.11224653046E+03  0.47000000000E+01 0. -1.
        -13    1    4    4    0    0  0.67161574739E+02  0.60418619611E+00  0.10590569277E+03  0.12540756725E+03  0.00000000000E+00 0.  1.
         14    1    4    4    0    0  0.76607275742E+01 -0.55235333621E+02  0.85418781443E+02  0.10200978899E+03  0.00000000000E+00 0. -1.
         -5    1    5    5    0  502  0.19397523652E+02  0.46006998288E+02  0.14489561045E+03  0.15332884837E+03  0.47000000000E+01 0.  1.
         13    1    6    6    0    0 -0.15479418146E+02  0.89656436399E+01  0.17946704112E+03  0.18035635281E+03  0.00000000000E+00 0. -1.
        -14    1    6    6    0    0 -0.85628703387E+02 -0.67621580211E+02  0.28413819415E+03  0.30436732139E+03  0.00000000000E+00 0.  1.
</event>
<event>
12    1  0.8133495E-002  0.1912005E+03  0.7818608E-02  0.1157739E+00
         21   -1    0    0  503  502  0.00000000000E+00  0.00000000000E+00  0.18004481243E+03  0.18004481243E+03  0.00000000000E+00 0.  1.
         21   -1    0    0  501  503 -0.00000000000E+00 -0.00000000000E+00 -0.20286199316E+03  0.20286199316E+03  0.00000000000E+00 0.  1.
          6    2    1    2  501    0 -0.54660022129E+02 -0.59461523349E+02 -0.27897652440E+02  0.19322501492E+03  0.17330388513E+03 0.  0.
         24    2    3    3    0    0  0.12376500711E+02  0.11875778111E+02  0.20937274529E+02  0.83726859379E+02  0.79231342543E+02 0.  0.
         -6    2    1    2    0  502  0.54660022129E+02  0.59461523349E+02  0.50804717111E+01  0.18968179067E+03  0.17155168242E+03 0.  0.
        -24    2    5    5    0    0  0.46266432127E+02  0.17252585979E+02  0.66426181841E+02  0.11459895043E+03  0.79260629194E+02 0.  0.
          5    1    3    3  501    0 -0.67036522840E+02 -0.71337301460E+02 -0.48834926969E+02  0.10949815554E+03  0.47000000000E+01 0. -1.
        -11    1    4    4    0    0  0.24023240586E+02  0.36850926532E+02  0.31616183673E+02  0.54172778631E+02  0.00000000000E+00 0.  1.
         12    1    4    4    0    0 -0.11646739875E+02 -0.24975148421E+02 -0.10678909144E+02  0.29554080748E+02  0.00000000000E+00 0. -1.
         -5    1    5    5    0  502  0.83935900027E+01  0.42208937371E+02 -0.61345710130E+02  0.75082840240E+02  0.47000000000E+01 0.  1.
         13    1    6    6    0    0  0.64994720799E+02  0.17718448327E+02  0.68099369815E+02  0.95790298632E+02  0.00000000000E+00 0. -1.
        -14    1    6    6    0    0 -0.18728288672E+02 -0.46586234839E+00 -0.16731879738E+01  0.18808651794E+02  0.00000000000E+00 0.  1.
</event>
<event>
12    1  0.8133495E-002  0.1981569E+03  0.7818608E-02  0.1151380E+00
         21   -1    0    0  503  502  0.00000000000E+00  0.00000000000E+00  0.13565826172E+04  0.13565826172E+04  0.00000000000E+00 0.  1.
         21   -1    0    0  501  503 -0.00000000000E+00 -0.00000000000E+00 -0.77629469148E+02  0.77629469148E+02  0.00000000000E+00 0.  1.
          6    2    1    2  501    0 -0.29126262830E+02 -0.92272824274E+02  0.12074575642E+04  0.12235517076E+04  0.17251782080E+03 0.  0.
         24    2    3    3    0    0 -0.14756700043E+02 -0.13195011421E+03  0.92013357746E+03  0.93310733248E+03  0.80093075364E+02 0.  0.
         -6    2    1    2    0  502  0.29126262830E+02  0.92272824274E+02  0.71495583869E+02  0.21066037879E+03  0.17292646816E+03 0.  0.
        -24    2    5    5    0    0  0.72301679540E+01  0.10938223860E+02  0.91604780403E+02  0.12393537674E+03  0.82441626283E+02 0.  0.
          5    1    3    3  501    0 -0.14369562787E+02  0.39677289936E+02  0.28732398676E+03  0.29044437512E+03  0.47000000000E+01 0. -1.
        -13    1    4    4    0    0 -0.21837677437E+02 -0.12906664273E+03  0.91394323112E+03  0.92326990210E+03  0.00000000000E+00 0.  1.
         14    1    4    4    0    0  0.70809773936E+01 -0.28834714747E+01  0.61903463443E+01  0.98374303787E+01  0.00000000000E+00 0. -1.
         -5    1    5    5    0  502  0.21896094876E+02  0.81334600413E+02 -0.20109196534E+02  0.86725002049E+02  0.47000000000E+01 0.  1.
         11    1    6    6    0    0 -0.10989112363E+02 -0.33202347405E+02  0.47051266785E+02  0.58625746646E+02  0.00000000000E+00 0. -1.
        -12    1    6    6    0    0  0.18219280317E+02  0.44140571265E+02  0.44553513618E+02  0.65309630091E+02  0.00000000000E+00 0.  1.
</event>
<event>
12    1  0.8133495E-002  0.1793184E+03  0.7818608E-02  0.1168515E+00
         21   -1    0    0  503  502  0.00000000000E+00  0.00000000000E+00  0.46261433197E+04  0.46261433197E+04  0.00000000000E+00 0.  1.
         21   -1    0    0  501  503 -0.00000000000E+00 -0.00000000000E+00 -0.80777650835E+01  0.80777650835E+01  0.00000000000E+00 0.  1.
          6    2    1    2  501    0 -0.46064687877E+02  0.23944177083E+02  0.14415777768E+04  0.14526877048E+04  0.17163857943E+03 0.  0.
         24    2    3    3    0    0 -0.79152184277E+02  0.52295208931E+02  0.12504946583E+04  0.12566432925E+04  0.80097546059E+02 0.  0.
         -6    2    1    2    0  502  0.46064687877E+02 -0.23944177083E+02  0.31764877778E+04  0.31815333800E+04  0.17141985422E+03 0.  0.
        -24    2    5    5    0    0  0.29688783271E+02  0.52981754839E+02  0.18096403823E+04  0.18124170001E+04  0.79803374699E+02 0.  0.
          5    1    3    3  501    0  0.33087496401E+02 -0.28351031848E+02  0.19108311850E+03  0.19604441231E+03  0.47000000000E+01 0. -1.
        -11    1    4    4    0    0 -0.45458570627E+02  0.48652159417E+02  0.40238888330E+03  0.40786067188E+03  0.00000000000E+00 0.  1.
         12    1    4    4    0    0 -0.33693613650E+02  0.36430495137E+01  0.84810577504E+03  0.84878262062E+03  0.00000000000E+00 0. -1.
         -5    1    5    5    0  502  0.16375904606E+02 -0.76925931921E+02  0.13668473955E+04  0.13691163799E+04  0.47000000000E+01 0.  1.
         13    1    6    6    0    0 -0.21203570568E+02  0.42957928551E+02  0.77812557200E+03  0.77959885892E+03  0.00000000000E+00 0. -1.
        -14    1    6    6    0    0  0.50892353839E+02  0.10023826288E+02  0.10315148103E+04  0.10328181412E+04  0.00000000000E+00 0.  1.
</event>
<event>
12    1  0.8133495E-002  0.1806907E+03  0.7818608E-02  0.1167665E+00
         21   -1    0    0  501  502  0.00000000000E+00  0.00000000000E+00  0.10578235129E+03  0.10578235129E+03  0.00000000000E+00 0.  1.
         21   -1    0    0  502  503 -0.00000000000E+00 -0.00000000000E+00 -0.38471753605E+03  0.38471753605E+03  0.00000000000E+00 0.  1.
         -6    2    1    2    0  503  0.18172485586E+02  0.43645014155E+02 -0.27108377257E+02  0.18055495510E+03  0.17213396295E+03 0.  0.
        -24    2    3    3    0    0  0.63705398000E+02 -0.10359639522E+02 -0.33414329855E+01  0.10587760665E+03  0.83864191107E+02 0.  0.
          6    2    1    2  501    0 -0.18172485586E+02 -0.43645014155E+02 -0.25182680751E+03  0.30994493224E+03  0.17439608238E+03 0.  0.
         24    2    5    5    0    0 -0.34785665931E+02 -0.93308626102E+02 -0.16366994228E+03  0.20729896301E+03  0.79173655964E+02 0.  0.
          5    1    5    5  501    0  0.16613180345E+02  0.49663611946E+02 -0.88156865229E+02  0.10264596923E+03  0.47000000000E+01 0. -1.
        -11    1    6    6    0    0 -0.12587374570E+02 -0.47530161970E+02 -0.14499211801E+03  0.15310216387E+03  0.00000000000E+00 0.  1.
         12    1    6    6    0    0 -0.22198291361E+02 -0.45778464132E+02 -0.18677824268E+02  0.54196799140E+02  0.00000000000E+00 0. -1.
         -5    1    3    3    0  503 -0.45532912413E+02  0.54004653677E+02 -0.23766944272E+02  0.74677348451E+02  0.47000000000E+01 0.  1.
         11    1    4    4    0    0  0.51723851046E+02  0.29925447082E+02 -0.16220928468E+02  0.61919364260E+02  0.00000000000E+00 0. -1.
        -12    1    4    4    0    0  0.11981546954E+02 -0.40285086603E+02  0.12879495482E+02  0.43958242389E+02  0.00000000000E+00 0.  1.
</event>
<event>
12    1  0.8133495E-002  0.6207788E+03  0.7818608E-02  0.9863326E-01
         21   -1    0    0  503  502  0.00000000000E+00  0.00000000000E+00  0.92212169569E+02  0.92212169569E+02  0.00000000000E+00 0. -1.
         21   -1    0    0  501  503 -0.00000000000E+00 -0.00000000000E+00 -0.41799240474E+04  0.41799240474E+04  0.00000000000E+00 0.  1.
          6    2    1    2  501    0  0.36853395077E+03 -0.46870323436E+03 -0.19926528665E+04  0.20870415814E+04  0.17198000272E+03 0.  0.
         24    2    3    3    0    0  0.17341294335E+03 -0.31231580518E+03 -0.10749820669E+04  0.11358996246E+04  0.84073193806E+02 0.  0.
         -6    2    1    2    0  502 -0.36853395077E+03  0.46870323436E+03 -0.20950590113E+04  0.21850946356E+04  0.17281872204E+03 0.  0.
        -24    2    5    5    0    0 -0.23381037979E+03  0.17913888171E+03 -0.97435982989E+03  0.10197677715E+04  0.61572696899E+02 0.  0.
          5    1    3    3  501    0  0.19512100742E+03 -0.15638742917E+03 -0.91767079961E+03  0.95114195681E+03  0.47000000000E+01 0. -1.
        -11    1    4    4    0    0  0.17795258921E+03 -0.26979427720E+03 -0.97448763868E+03  0.10266850705E+04  0.00000000000E+00 0.  1.
         12    1    4    4    0    0 -0.45396458620E+01 -0.42521527984E+02 -0.10049442819E+03  0.10921455408E+03  0.00000000000E+00 0. -1.
         -5    1    5    5    0  502 -0.13472357098E+03  0.28956435265E+03 -0.11206991814E+04  0.11653268641E+04  0.47000000000E+01 0.  1.
         13    1    6    6    0    0 -0.56491456765E+02  0.75382936883E+02 -0.35129402026E+03  0.36370504606E+03  0.00000000000E+00 0. -1.
        -14    1    6    6    0    0 -0.17731892303E+03  0.10375594483E+03 -0.62306580963E+03  0.65606272541E+03  0.00000000000E+00 0.  1.
</event>
<event>
12    1  0.8133495E-002  0.2275405E+03  0.7818608E-02  0.1128636E+00
         21   -1    0    0  501  502  0.00000000000E+00  0.00000000000E+00  0.31826252270E+03  0.31826252270E+03  0.00000000000E+00 0. -1.
         21   -1    0    0  502  503 -0.00000000000E+00 -0.00000000000E+00 -0.33445340934E+03  0.33445340934E+03  0.00000000000E+00 0. -1.
         -6    2    1    2    0  503  0.10212807751E+03 -0.10576837888E+03 -0.24267856351E+03  0.33266738115E+03  0.17365945728E+03 0.  0.
        -24    2    3    3    0    0  0.94945668179E+02 -0.92684185748E+02 -0.90225525832E+02  0.17941333777E+03  0.80271178294E+02 0.  0.
          6    2    1    2  501    0 -0.10212807751E+03  0.10576837888E+03  0.22648767687E+03  0.32004855090E+03  0.17180603298E+03 0.  0.
         24    2    5    5    0    0  0.48130098975E+01  0.23505094268E+02  0.12891339124E+03  0.15347581786E+03  0.79752803766E+02 0.  0.
          5    1    5    5  501    0 -0.10694108741E+03  0.82263284616E+02  0.97574285637E+02  0.16657273303E+03  0.47000000000E+01 0. -1.
        -11    1    6    6    0    0 -0.32205710716E+02  0.24707151446E+02  0.94787148546E+02  0.10311282493E+03  0.00000000000E+00 0.  1.
         12    1    6    6    0    0  0.37018720614E+02 -0.12020571782E+01  0.34126242690E+02  0.50362992936E+02  0.00000000000E+00 0. -1.
         -5    1    3    3    0  503  0.71824093343E+01 -0.13084193136E+02 -0.15245303768E+03  0.15325404338E+03  0.47000000000E+01 0.  1.
         13    1    4    4    0    0  0.33932677497E+02  0.95956126624E+01 -0.13589511724E+02  0.37791231964E+02  0.00000000000E+00 0. -1.
        -14    1    4    4    0    0  0.61012990683E+02 -0.10227979841E+03 -0.76636014108E+02  0.14162210581E+03  0.00000000000E+00 0.  1.
</event>
<event>
12    1  0.8133495E-002  0.1947882E+03  0.7818608E-02  0.1154290E+00
         21   -1    0    0  503  502  0.00000000000E+00  0.00000000000E+00  0.56969271023E+03  0.56969271023E+03  0.00000000000E+00 0. -1.
         21   -1    0    0  501  503 -0.00000000000E+00 -0.00000000000E+00 -0.66836425613E+02  0.66836425613E+02  0.00000000000E+00 0. -1.
          6    2    1    2  501    0  0.89722520305E+02 -0.11829558317E+02  0.22840102635E+03  0.30018236619E+03  0.17248870987E+03 0.  0.
         24    2    3    3    0    0  0.32195541510E+02 -0.22771708925E+02  0.36465713910E+02  0.99457833283E+02  0.83707877108E+02 0.  0.
         -6    2    1    2    0  502 -0.89722520305E+02  0.11829558317E+02  0.27445525827E+03  0.33634676966E+03  0.17208541939E+03 0.  0.
        -24    2    5    5    0    0 -0.41738426118E+02 -0.59629703363E+02  0.13806868989E+03  0.17500153295E+03  0.79150335867E+02 0.  0.
          5    1    3    3  501    0  0.57526978794E+02  0.10942150608E+02  0.19193531244E+03  0.20072453290E+03  0.47000000000E+01 0. -1.
        -13    1    4    4    0    0  0.33397098096E+02 -0.37938906997E+02  0.55515460237E+02  0.75077913868E+02  0.00000000000E+00 0.  1.
         14    1    4    4    0    0 -0.12015565855E+01  0.15167198072E+02 -0.19049746327E+02  0.24379919415E+02  0.00000000000E+00 0. -1.
         -5    1    5    5    0  502 -0.47984094187E+02  0.71459261679E+02  0.13638656838E+03  0.16134523671E+03  0.47000000000E+01 0.  1.
         11    1    6    6    0    0  0.76278186912E+00 -0.56253588707E+02  0.11115803556E+03  0.12458393536E+03  0.00000000000E+00 0. -1.
        -12    1    6    6    0    0 -0.42501207987E+02 -0.33761146560E+01  0.26910654328E+02  0.50417597591E+02  0.00000000000E+00 0.  1.
</event>
<event>
12    1  0.8133495E-002  0.2291522E+03  0.7818608E-02  0.1127475E+00
         21   -1    0    0  503  502  0.00000000000E+00  0.00000000000E+00  0.73722595639E+02  0.73722595639E+02  0.00000000000E+00 0. -1.
         21   -1    0    0  501  503 -0.00000000000E+00 -0.00000000000E+00 -0.85013422077E+03  0.85013422077E+03  0.00000000000E+00 0.  1.
          6    2    1    2  501    0  0.97166502477E+02  0.11600469751E+03 -0.20035684116E+03  0.30439052469E+03  0.17208227298E+03 0.  0.
         24    2    3    3    0    0  0.96447964569E+00  0.65871063459E+02 -0.16282482081E+03  0.18950382828E+03  0.71132632730E+02 0.  0.
         -6    2    1    2    0  502 -0.97166502477E+02 -0.11600469751E+03 -0.57605478396E+03  0.61946629172E+03  0.17029666291E+03 0.  0.
        -24    2    5    5    0    0 -0.25330115901E+02 -0.10560388590E+03 -0.23436994244E+03  0.27012510571E+03  0.79022195134E+02 0.  0.
          5    1    3    3  501    0  0.96202022831E+02  0.50133634048E+02 -0.37532020351E+02  0.11488669641E+03  0.47000000000E+01 0. -1.
        -13    1    4    4    0    0  0.17103236601E+02  0.71820778384E+02 -0.99590218544E+02  0.12397159570E+03  0.00000000000E+00 0.  1.
         14    1    4    4    0    0 -0.16138756955E+02 -0.59497149247E+01 -0.63234602268E+02  0.65532232586E+02  0.00000000000E+00 0. -1.
         -5    1    5    5    0  502 -0.71836386576E+02 -0.10400811611E+02 -0.34168484152E+03  0.34934118601E+03  0.47000000000E+01 0.  1.
         13    1    6    6    0    0  0.81469459060E+01  0.90260829634E+01 -0.91971738067E+01  0.15245684874E+02  0.00000000000E+00 0. -1.
        -14    1    6    6    0    0 -0.33477061807E+02 -0.11462996886E+03 -0.22517276864E+03  0.25487942083E+03  0.00000000000E+00 0.  1.
</event>
<event>
12    1  0.8133495E-002  0.1855527E+03  0.7818608E-02  0.1162689E+00
         21   -1    0    0  503  502  0.00000000000E+00  0.00000000000E+00  0.56728460955E+02  0.56728460955E+02  0.00000000000E+00 0. -1.
         21   -1    0    0  501  503 -0.00000000000E+00 -0.00000000000E+00 -0.64901939829E+03  0.64901939829E+03  0.00000000000E+00 0. -1.
          6    2    1    2  501    0  0.63126983013E+02  0.28652546606E+02 -0.38779973402E+03  0.42962028127E+03  0.17140294035E+03 0.  0.
         24    2    3    3    0    0  0.17496314004E+02  0.52586161858E+02 -0.10986316700E+03  0.14690876545E+03  0.80254871990E+02 0.  0.
         -6    2    1    2    0  502 -0.63126983013E+02 -0.28652546606E+02 -0.20449120332E+03  0.27612757798E+03  0.17211566656E+03 0.  0.
        -24    2    5    5    0    0  0.15334327168E+02 -0.17049561527E+02 -0.46735320310E+02  0.99492884101E+02  0.84786878020E+02 0.  0.
          5    1    3    3  501    0  0.45630669009E+02 -0.23933615252E+02 -0.27793656702E+03  0.28271151582E+03  0.47000000000E+01 0. -1.
        -11    1    4    4    0    0  0.11888379967E+01  0.11434228346E+02  0.12382158420E+02  0.16895939181E+02  0.00000000000E+00 0.  1.
         12    1    4    4    0    0  0.16307476007E+02  0.41151933512E+02 -0.12224532542E+03  0.13001282626E+03  0.00000000000E+00 0. -1.
         -5    1    5    5    0  502 -0.78461310181E+02 -0.11602985079E+02 -0.15775588301E+03  0.17663469388E+03  0.47000000000E+01 0.  1.
         13    1    6    6    0    0 -0.33011930708E+02  0.71327089001E+01 -0.18336192653E+02  0.38430184313E+02  0.00000000000E+00 0. -1.
        -14    1    6    6    0    0  0.48346257877E+02 -0.24182270427E+02 -0.28399127657E+02  0.61062699788E+02  0.00000000000E+00 0.  1.
</event>
<event>
12    1  0.8133495E-002  0.2011525E+03  0.7818608E-02  0.1149148E+00
         21   -1    0    0  501  502  0.00000000000E+00  0.00000000000E+00  0.22383604395E+03  0.22383604395E+03  0.00000000000E+00 0. -1.
         21   -1    0    0  502  503 -0.00000000000E+00 -0.00000000000E+00 -0.18225376518E+03  0.18225376518E+03  0.00000000000E+00 0. -1.
         -6    2    1    2    0  503 -0.15592846187E+02 -0.10143655207E+03  0.47350598139E+02  0.20665041383E+03  0.17300232208E+03 0.  0.
        -24    2    3    3    0    0 -0.72056470733E+02 -0.57857254757E+02  0.50337271433E+02  0.13510807484E+03  0.84739330239E+02 0.  0.
          6    2    1    2  501    0  0.15592846187E+02  0.10143655207E+03 -0.57683193727E+01  0.19943939531E+03  0.17091017508E+03 0.  0.
         24    2    5    5    0    0  0.54676216653E+00  0.67191060047E+02  0.63845342944E+02  0.12027317556E+03  0.76645100588E+02 0.  0.
          5    1    5    5  501    0  0.15046084020E+02  0.34245492019E+02 -0.69613662316E+02  0.79166219747E+02  0.47000000000E+01 0. -1.
        -11    1    6    6    0    0  0.13103499472E+01 -0.15820291214E+01  0.50092125857E+02  0.50134228886E+02  0.00000000000E+00 0.  1.
         12    1    6    6    0    0 -0.76358778065E+00  0.68773089168E+02  0.13753217086E+02  0.70138946672E+02  0.00000000000E+00 0. -1.
         -5    1    3    3    0  503  0.56463624546E+02 -0.43579297309E+02 -0.29866732937E+01  0.71542338990E+02  0.47000000000E+01 0.  1.
         11    1    4    4    0    0 -0.26406579473E+01 -0.53341164866E+02  0.89115955939E+01  0.54144893385E+02  0.00000000000E+00 0. -1.
        -12    1    4    4    0    0 -0.69415812785E+02 -0.45160898905E+01  0.41425675839E+02  0.80963181455E+02  0.00000000000E+00 0.  1.
</event>
<event>
12    1  0.8133495E-002  0.2258956E+03  0.7818608E-02  0.1130791E+00
         21   -1    0    0  503  502  0.00000000000E+00  0.00000000000E+00  0.14682668064E+03  0.14682668064E+03  0.00000000000E+00 0. -1.
         21   -1    0    0  501  503 -0.00000000000E+00 -0.00000000000E+00 -0.40594848710E+03  0.40594848710E+03  0.00000000000E+00 0. -1.
          6    2    1    2  501    0 -0.45282559650E+02  0.12797557592E+03 -0.24158694053E+03  0.32620001904E+03  0.17208702549E+03 0.  0.
         24    2    3    3    0    0  0.19534052630E+02  0.70703469075E+02 -0.20575901061E+03  0.23246092360E+03  0.79503149651E+02 0.  0.
         -6    2    1    2    0  502  0.45282559650E+02 -0.12797557592E+03 -0.17534865926E+02  0.22657514871E+03  0.18055627446E+03 0.  0.
        -24    2    5    5    0    0  0.85756284999E+02 -0.94727932159E+02 -0.56838145430E+02  0.16092177074E+03  0.79609798223E+02 0.  0.
          5    1    3    3  501    0 -0.64816612280E+02  0.57272106846E+02 -0.35827929926E+02  0.93739095434E+02  0.47000000000E+01 0. -1.
        -13    1    4    4    0    0  0.44373924494E+02  0.52552895658E+02 -0.93569266319E+02  0.11612949503E+03  0.00000000000E+00 0.  1.
         14    1    4    4    0    0 -0.24839871863E+02  0.18150573417E+02 -0.11218974429E+03  0.11633142857E+03  0.00000000000E+00 0. -1.
         -5    1    5    5    0  502 -0.40473725349E+02 -0.33247643761E+02  0.39303279504E+02  0.65653377971E+02  0.47000000000E+01 0.  1.
         13    1    6    6    0    0  0.77588721815E+02 -0.43144825044E+02 -0.75294210467E+01  0.89096452580E+02  0.00000000000E+00 0. -1.
        -14    1    6    6    0    0  0.81675631834E+01 -0.51583107115E+02 -0.49308724383E+02  0.71825318157E+02  0.00000000000E+00 0.  1.
</event>
<event>
12    1  0.8133495E-002  0.2776504E+03  0.7818608E-02  0.1097179E+00
         21   -1    0    0  501  502  0.00000000000E+00  0.00000000000E+00  0.35326972477E+03  0.35326972477E+03  0.00000000000E+00 0.  1.
         21   -1    0    0  502  503 -0.00000000000E+00 -0.00000000000E+00 -0.36843899596E+03  0.36843899596E+03  0.00000000000E+00 0.  1.
         -6    2    1    2    0  503  0.66810735527E+02 -0.20650929445E+03 -0.23885744761E+03  0.36516115740E+03  0.17082162484E+03 0.  0.
        -24    2    3    3    0    0  0.45291531289E+02 -0.12577515194E+03 -0.23788043944E+03  0.28147052194E+03  0.69049544545E+02 0.  0.
          6    2    1    2  501    0 -0.66810735527E+02  0.20650929445E+03  0.22368817642E+03  0.35654756333E+03  0.17314734063E+03 0.  0.
         24    2    5    5    0    0 -0.81631318484E+02  0.19811831642E+03  0.24067694857E+03  0.33203702333E+03  0.80054055692E+02 0.  0.
          5    1    5    5  501    0  0.14820582957E+02  0.83909780373E+01 -0.16988772151E+02  0.24510539994E+02  0.47000000000E+01 0. -1.
        -13    1    6    6    0    0 -0.27274801843E+02  0.29621564036E+02  0.93511105392E+02  0.10181197721E+03  0.00000000000E+00 0.  1.
         14    1    6    6    0    0 -0.54356516641E+02  0.16849675238E+03  0.14716584318E+03  0.23022504613E+03  0.00000000000E+00 0. -1.
         -5    1    3    3    0  503  0.21519204239E+02 -0.80734142510E+02 -0.97700817492E+00  0.83690635455E+02  0.47000000000E+01 0.  1.
         11    1    4    4    0    0  0.30936496350E+02 -0.45971328825E+02 -0.42185646886E+02  0.69642362707E+02  0.00000000000E+00 0. -1.
        -12    1    4    4    0    0  0.14355034939E+02 -0.79803823119E+02 -0.19569479255E+03  0.21182815923E+03  0.00000000000E+00 0.  1.
</event>
<event>
12    1  0.8133495E-002  0.1835233E+03  0.7818608E-02  0.1165364E+00
         21   -1    0    0  501  502  0.00000000000E+00  0.00000000000E+00  0.16676713646E+03  0.16676713646E+03  0.00000000000E+00 0.  1.
         21   -1    0    0  502  503 -0.00000000000E+00 -0.00000000000E+00 -0.23372813440E+03  0.23372813440E+03  0.00000000000E+00 0.  1.
         -6    2    1    2    0  503 -0.52174325660E+02  0.22352373366E+02 -0.11239234841E+03  0.21520421446E+03  0.17452514170E+03 0.  0.
        -24    2    3    3    0    0 -0.39609665339E+02  0.64616080762E+02 -0.13734357064E+02  0.10703961346E+03  0.74328210021E+02 0.  0.
          6    2    1    2  501    0  0.52174325660E+02 -0.22352373366E+02  0.45431350470E+02  0.18529105641E+03  0.17043174331E+03 0.  0.
         24    2    5    5    0    0  0.95338942084E+02  0.64103585025E+01  0.41625243424E+02  0.13306984131E+03  0.82730376542E+02 0.  0.
          5    1    5    5  501    0 -0.43164616424E+02 -0.28762731869E+02  0.38061070451E+01  0.52221215099E+02  0.47000000000E+01 0. -1.
        -13    1    6    6    0    0  0.33314865750E+02 -0.27306162518E+02  0.45129025846E+02  0.62386983941E+02  0.00000000000E+00 0.  1.
         14    1    6    6    0    0  0.62024076335E+02  0.33716521021E+02 -0.35037824216E+01  0.70682857372E+02  0.00000000000E+00 0. -1.
         -5    1    3    3    0  503 -0.12564660322E+02 -0.42263707396E+02 -0.98657991346E+02  0.10816460099E+03  0.47000000000E+01 0.  1.
         13    1    4    4    0    0 -0.11048162365E+02 -0.10576173402E+02  0.15196872901E+02  0.21560665144E+02  0.00000000000E+00 0. -1.
        -14    1    4    4    0    0 -0.28561502974E+02  0.75192254164E+02 -0.28931229965E+02  0.85478948319E+02  0.00000000000E+00 0.  1.
</event>
<event>
12    1  0.8133495E-002  0.1777597E+03  0.7818608E-02  0.1170011E+00
         21   -1    0    0  501  502  0.00000000000E+00  0.00000000000E+00  0.50888302729E+03  0.50888302729E+03  0.00000000000E+00 0. -1.
         21   -1    0    0  502  503 -0.00000000000E+00 -0.00000000000E+00 -0.85709302783E+02  0.85709302783E+02  0.00000000000E+00 0. -1.
         -6    2    1    2    0  503 -0.36071777572E+02  0.26067306846E+02  0.55391274445E+02  0.18610435020E+03  0.17200569251E+03 0.  0.
        -24    2    3    3    0    0  0.44190726168E+02  0.61514257087E+01  0.18053461702E+02  0.95247792436E+02  0.82192178260E+02 0.  0.
          6    2    1    2  501    0  0.36071777572E+02 -0.26067306846E+02  0.36778245006E+03  0.40848797987E+03  0.17209829024E+03 0.  0.
         24    2    5    5    0    0  0.89876557829E+02 -0.80147315009E+01  0.24666132523E+03  0.27464752733E+03  0.80295848826E+02 0.  0.
          5    1    5    5  501    0 -0.53804780257E+02 -0.18052575345E+02  0.12112112483E+03  0.13384045254E+03  0.47000000000E+01 0. -1.
        -13    1    6    6    0    0  0.41813176498E+02 -0.10607687149E+02  0.20934513479E+03  0.21374342145E+03  0.00000000000E+00 0.  1.
         14    1    6    6    0    0  0.48063381331E+02  0.25929556480E+01  0.37316190441E+02  0.60904105879E+02  0.00000000000E+00 0. -1.
         -5    1    3    3    0  503 -0.80262503740E+02  0.19915881137E+02  0.37337812743E+02  0.90856557763E+02  0.47000000000E+01 0.  1.
         11    1    4    4    0    0 -0.53768201820E+01  0.32433497713E+02  0.21093527714E+02  0.39061219651E+02  0.00000000000E+00 0. -1.
        -12    1    4    4    0    0  0.49567546350E+02 -0.26282072005E+02 -0.30400660120E+01  0.56186572786E+02  0.00000000000E+00 0.  1.
</event>
<event>
12    1  0.8133495E-002  0.2872570E+03  0.7818608E-02  0.1092450E+00
         21   -1    0    0  503  502  0.00000000000E+00  0.00000000000E+00  0.26445821205E+03  0.26445821205E+03  0.00000000000E+00 0.  1.
         21   -1    0    0  501  503 -0.00000000000E+00 -0.00000000000E+00 -0.30667182163E+03  0.30667182163E+03  0.00000000000E+00 0. -1.
          6    2    1    2  501    0 -0.50467475102E+02  0.22675283866E+03 -0.21796961048E+02  0.28314842046E+03  0.16041852953E+03 0.  0.
         24    2    3    3    0    0 -0.67396778406E+02  0.23061749098E+03 -0.40727044395E+02  0.25703377125E+03  0.81736861527E+02 0.  0.
         -6    2    1    2    0  502  0.50467475102E+02 -0.22675283866E+03 -0.20416648538E+02  0.28798161322E+03  0.16897560218E+03 0.  0.
        -24    2    5    5    0    0  0.87753992589E+02 -0.19892962648E+03  0.13957787860E+02  0.22994621540E+03  0.73530147755E+02 0.  0.
          5    1    3    3  501    0  0.16929303304E+02 -0.38646523228E+01  0.18930083347E+02  0.26114649212E+02  0.47000000000E+01 0. -1.
        -11    1    4    4    0    0 -0.51392896874E+02  0.11928713309E+03  0.16338460255E+02  0.13091063842E+03  0.00000000000E+00 0.  1.
         12    1    4    4    0    0 -0.16003881532E+02  0.11133035790E+03 -0.57065504650E+02  0.12612313283E+03  0.00000000000E+00 0. -1.
         -5    1    5    5    0  502 -0.37286517487E+02 -0.27823212177E+02 -0.34374436398E+02  0.58035397817E+02  0.47000000000E+01 0.  1.
         11    1    6    6    0    0 -0.11490857206E+02 -0.44234052463E+02  0.14000972243E+01  0.45723642340E+02  0.00000000000E+00 0. -1.
        -12    1    6    6    0    0  0.99244849795E+02 -0.15469557402E+03  0.12557690636E+02  0.18422257306E+03  0.00000000000E+00 0.  1.
</event>
<event>
12    1  0.8133495E-002  0.2465443E+03  0.7818608E-02  0.1115582E+00
         21   -1    0    0  501  502  0.00000000000E+00  0.00000000000E+00  0.30888967674E+02  0.30888967674E+02  0.00000000000E+00 0.  1.
         21   -1    0    0  502  503 -0.00000000000E+00 -0.00000000000E+00 -0.19831512871E+04  0.19831512871E+04  0.00000000000E+00 0. -1.
         -6    2    1    2    0  503 -0.17545635660E+03  0.19359403808E+02 -0.10754857850E+04  0.11033828696E+04  0.17211729605E+03 0.  0.
        -24    2    3    3    0    0 -0.16230944154E+03 -0.44169196069E+01 -0.59128896119E+03  0.61840162345E+03  0.80212644046E+02 0.  0.
          6    2    1    2  501    0  0.17545635660E+03 -0.19359403808E+02 -0.87677653449E+03  0.91065738523E+03  0.17146446357E+03 0.  0.
         24    2    5    5    0    0  0.17990680640E+03 -0.11029501589E+02 -0.55856722586E+03  0.59227326523E+03  0.79386182720E+02 0.  0.
          5    1    5    5  501    0 -0.44504497962E+01 -0.83299022191E+01 -0.31820930863E+03  0.31838412001E+03  0.47000000000E+01 0. -1.
        -11    1    6    6    0    0  0.12774335599E+03 -0.43531611203E+02 -0.40345527712E+03  0.42542863892E+03  0.00000000000E+00 0.  1.
         12    1    6    6    0    0  0.52163450409E+02  0.32502109614E+02 -0.15511194873E+03  0.16684462631E+03  0.00000000000E+00 0. -1.
         -5    1    3    3    0  503 -0.13146915061E+02  0.23776323415E+02 -0.48419682380E+03  0.48498124614E+03  0.47000000000E+01 0.  1.
         13    1    4    4    0    0 -0.63004057885E+02 -0.13615501738E+02 -0.37141568474E+03  0.37696751062E+03  0.00000000000E+00 0. -1.
        -14    1    4    4    0    0 -0.99305383659E+02  0.91985821307E+01 -0.21987327645E+03  0.24143411283E+03  0.00000000000E+00 0.  1.
</event>
<event>
12    1  0.8133495E-002  0.1981615E+03  0.7818608E-02  0.1151545E+00
         21   -1    0    0  503  502  0.00000000000E+00  0.00000000000E+00  0.24959974439E+03  0.24959974439E+03  0.00000000000E+00 0. -1.
         21   -1    0    0  501  503 -0.00000000000E+00 -0.00000000000E+00 -0.22939842565E+03  0.22939842565E+03  0.00000000000E+00 0. -1.
          6    2    1    2  501    0  0.57471878469E+02  0.78698636006E+02 -0.12496844324E+03  0.23427569080E+03  0.17254418382E+03 0.  0.
         24    2    3    3    0    0  0.54744752443E+02 -0.18011965075E+02 -0.43726567706E+02  0.10785294792E+03  0.79992667446E+02 0.  0.
         -6    2    1    2    0  502 -0.57471878469E+02 -0.78698636006E+02  0.14516976199E+03  0.24472247924E+03  0.17122599080E+03 0.  0.
        -24    2    5    5    0    0 -0.93067903166E+02 -0.45031750299E+02  0.14587058339E+03  0.19549730968E+03  0.79066287768E+02 0.  0.
          5    1    3    3  501    0  0.27271260262E+01  0.96710601081E+02 -0.81241875535E+02  0.12642274288E+03  0.47000000000E+01 0. -1.
        -11    1    4    4    0    0 -0.47761894097E+01  0.21226413803E+02  0.39176396985E+01  0.22107024427E+02  0.00000000000E+00 0.  1.
         12    1    4    4    0    0  0.59520941853E+02 -0.39238378878E+02 -0.47644207405E+02  0.85745923491E+02  0.00000000000E+00 0. -1.
         -5    1    5    5    0  502  0.35596024696E+02 -0.33666885707E+02 -0.70082139852E+00  0.49225169558E+02  0.47000000000E+01 0.  1.
         13    1    6    6    0    0 -0.39803130050E+02 -0.29868854061E+02  0.12795381761E+03  0.13729026567E+03  0.00000000000E+00 0. -1.
        -14    1    6    6    0    0 -0.53264773116E+02 -0.15162896238E+02  0.17916765770E+02  0.58207044016E+02  0.00000000000E+00 0.  1.
</event>
<event>
12    1  0.8133495E-002  0.2482159E+03  0.7818608E-02  0.1114599E+00
         21   -1    0    0  501  502  0.00000000000E+00  0.00000000000E+00  0.17563625390E+04  0.17563625390E+04  0.00000000000E+00 0.  1.
         21   -1    0    0  502  503 -0.00000000000E+00 -0.00000000000E+00 -0.35408491926E+02  0.35408491926E+02  0.00000000000E+00 0.  1.
         -6    2    1    2    0  503  0.17350007492E+03 -0.39880501477E+02  0.96221212825E+03  0.99346004530E+03  0.17151662151E+03 0.  0.
        -24    2    3    3    0    0  0.58873753983E+02  0.12042204137E+01  0.66435089123E+03  0.67163625136E+03  0.79155406698E+02 0.  0.
          6    2    1    2  501    0 -0.17350007492E+03  0.39880501477E+02  0.75874191882E+03  0.79831098563E+03  0.17296936145E+03 0.  0.
         24    2    5    5    0    0 -0.69399074234E+02  0.79277951530E+02  0.48577943520E+03  0.50348937027E+03  0.80116547687E+02 0.  0.
          5    1    5    5  501    0 -0.10410100069E+03 -0.39397450053E+02  0.27296248362E+03  0.29482161536E+03  0.47000000000E+01 0. -1.
        -13    1    6    6    0    0 -0.69168735695E+02  0.24600178305E+02  0.33895769863E+03  0.34681667236E+03  0.00000000000E+00 0.  1.
         14    1    6    6    0    0 -0.23033853904E+00  0.54677773226E+02  0.14682173657E+03  0.15667269791E+03  0.00000000000E+00 0. -1.
         -5    1    3    3    0  503  0.11462632094E+03 -0.41084721891E+02  0.29786123702E+03  0.32182379394E+03  0.47000000000E+01 0.  1.
         11    1    4    4    0    0 -0.10919866699E+02 -0.11113701022E+02  0.35048981385E+02  0.38356080812E+02  0.00000000000E+00 0. -1.
        -12    1    4    4    0    0  0.69793620682E+02  0.12317921435E+02  0.62930190984E+03  0.63328017055E+03  0.00000000000E+00 0.  1.
</event>
<event>
12    1  0.8133495E-002  0.4555415E+03  0.7818608E-02  0.1026285E+00
         21   -1    0    0  501  502  0.00000000000E+00  0.00000000000E+00  0.32382211807E+03  0.32382211807E+03  0.00000000000E+00 0. -1.
         21   -1    0    0  502  503 -0.00000000000E+00 -0.00000000000E+00 -0.66361245079E+03  0.66361245079E+03  0.00000000000E+00 0.  1.
         -6    2    1    2    0  503  0.22466146027E+02 -0.42118619460E+03 -0.26930467273E+03  0.52919098715E+03  0.17209170780E+03 0.  0.
        -24    2    3    3    0    0 -0.27452272554E+02 -0.17530997100E+03 -0.17452320156E+03  0.26095120054E+03  0.78421731556E+02 0.  0.
          6    2    1    2  501    0 -0.22466146027E+02  0.42118619460E+03 -0.70485659994E+02  0.45824358171E+03  0.16467062177E+03 0.  0.
         24    2    5    5    0    0 -0.77786048914E+02  0.27409386254E+03 -0.44463338108E+02  0.29888330735E+03  0.78588345774E+02 0.  0.
          5    1    5    5  501    0  0.55319902887E+02  0.14709233206E+03 -0.26022321885E+02  0.15936027435E+03  0.47000000000E+01 0. -1.
        -13    1    6    6    0    0 -0.22392142667E+02  0.98685723811E+02 -0.53977851438E+02  0.11469040319E+03  0.00000000000E+00 0.  1.
         14    1    6    6    0    0 -0.55393906247E+02  0.17540813873E+03  0.95145133296E+01  0.18419290417E+03  0.00000000000E+00 0. -1.
         -5    1    3    3    0  503  0.49918418581E+02 -0.24587622359E+03 -0.94781471163E+02  0.26823978661E+03  0.47000000000E+01 0.  1.
         13    1    4    4    0    0 -0.15347883688E+02  0.26816691576E+01 -0.13016466906E+02  0.20302149982E+02  0.00000000000E+00 0. -1.
        -14    1    4    4    0    0 -0.12104388865E+02 -0.17799164016E+03 -0.16150673466E+03  0.24064905056E+03  0.00000000000E+00 0.  1.
</event>
<event>
12    1  0.8133495E-002  0.2299471E+03  0.7818608E-02  0.1126720E+00
         21   -1    0    0  501  502  0.00000000000E+00  0.00000000000E+00  0.67375885071E+03  0.67375885071E+03  0.00000000000E+00 0.  1.
         21   -1    0    0  502  503 -0.00000000000E+00 -0.00000000000E+00 -0.10594789509E+03  0.10594789509E+03  0.00000000000E+00 0. -1.
         -6    2    1    2    0  503 -0.13780406108E+03 -0.66123756951E+02  0.48282432269E+03  0.53478500596E+03  0.17179454454E+03 0.  0.
        -24    2    3    3    0    0 -0.24347237816E+00 -0.67917399841E+01  0.15278254170E+03  0.17230346022E+03  0.79371218616E+02 0.  0.
          6    2    1    2  501    0  0.13780406108E+03  0.66123756951E+02  0.84986632931E+02  0.24492173985E+03  0.17146900708E+03 0.  0.
         24    2    5    5    0    0  0.14309602817E+02  0.15008845985E+02  0.73301155719E+02  0.11067474464E+03  0.80285798748E+02 0.  0.
          5    1    5    5  501    0  0.12349445827E+03  0.51114910966E+02  0.11685477212E+02  0.13424699521E+03  0.47000000000E+01 0. -1.
        -13    1    6    6    0    0 -0.32720004388E+02  0.88622836087E+01  0.20137599707E+02  0.39429198317E+02  0.00000000000E+00 0.  1.
         14    1    6    6    0    0  0.47029607205E+02  0.61465623762E+01  0.53163556012E+02  0.71245546322E+02  0.00000000000E+00 0. -1.
         -5    1    3    3    0  503 -0.13756058871E+03 -0.59332016967E+02  0.33004178098E+03  0.36248154573E+03  0.47000000000E+01 0.  1.
         13    1    4    4    0    0  0.17611896073E+02  0.67567766323E+01  0.14823829882E+03  0.14943368479E+03  0.00000000000E+00 0. -1.
        -14    1    4    4    0    0 -0.17855368451E+02 -0.13548516616E+02  0.45442428895E+01  0.22869775436E+02  0.00000000000E+00 0.  1.
</event>
<event>
12    1  0.8133495E-002  0.2865750E+03  0.7818608E-02  0.1092693E+00
         21   -1    0    0  503  502  0.00000000000E+00  0.00000000000E+00  0.13457969863E+03  0.13457969863E+03  0.00000000000E+00 0.  1.
         21   -1    0    0  501  503 -0.00000000000E+00 -0.00000000000E+00 -0.67207531813E+03  0.67207531813E+03  0.00000000000E+00 0. -1.
          6    2    1    2  501    0  0.19005107773E+03 -0.12734001158E+03 -0.13644553024E+03  0.31373881559E+03  0.16577023554E+03 0.  0.
         24    2    3    3    0    0  0.80755743483E+02 -0.71850233242E+01 -0.85666654998E+02  0.14349406395E+03  0.81723044148E+02 0.  0.
         -6    2    1    2    0  502 -0.19005107773E+03  0.12734001158E+03 -0.40105008927E+03  0.49291620117E+03  0.17259871545E+03 0.  0.
        -24    2    5    5    0    0 -0.12910456384E+03  0.15224514681E+03 -0.25971808599E+03  0.33693040544E+03  0.78879913730E+02 0.  0.
          5    1    3    3  501    0  0.10929533424E+03 -0.12015498826E+03 -0.50778875239E+02  0.17024475164E+03  0.47000000000E+01 0. -1.
        -11    1    4    4    0    0  0.88121867092E+02 -0.17551757031E+02 -0.44228430831E+02  0.10014829868E+03  0.00000000000E+00 0.  1.
         12    1    4    4    0    0 -0.73661236093E+01  0.10366733707E+02 -0.41438224167E+02  0.43345765270E+02  0.00000000000E+00 0. -1.
         -5    1    5    5    0  502 -0.60946513892E+02 -0.24905135231E+02 -0.14133200329E+03  0.15598579573E+03  0.47000000000E+01 0.  1.
         11    1    6    6    0    0 -0.12082322101E+03  0.15477406954E+03 -0.26252296479E+03  0.32782856858E+03  0.00000000000E+00 0. -1.
        -12    1    6    6    0    0 -0.82813428241E+01 -0.25289227241E+01  0.28048788017E+01  0.91018368590E+01  0.00000000000E+00 0.  1.
</event>
<event>
12    1  0.8133495E-002  0.2079876E+03  0.7818608E-02  0.1143276E+00
         21   -1    0    0  503  502  0.00000000000E+00  0.00000000000E+00  0.38389203229E+03  0.38389203229E+03  0.00000000000E+00 0. -1.
         21   -1    0    0  501  503 -0.00000000000E+00 -0.00000000000E+00 -0.13200563154E+03  0.13200563154E+03  0.00000000000E+00 0. -1.
          6    2    1    2  501    0 -0.10338634419E+03  0.51114257207E+02  0.22549658285E+03  0.30676955279E+03  0.17308219489E+03 0.  0.
         24    2    3    3    0    0 -0.74421267794E+02  0.27491574304E+02  0.43917269245E+02  0.12132375497E+03  0.80600342588E+02 0.  0.
         -6    2    1    2    0  502  0.10338634419E+03 -0.51114257207E+02  0.26389817893E+02  0.20912811104E+03  0.17244344256E+03 0.  0.
        -24    2    5    5    0    0  0.89409231923E+02  0.83334179221E+01  0.60081104555E+02  0.13922404433E+03  0.87807395973E+02 0.  0.
          5    1    3    3  501    0 -0.28965076393E+02  0.23622682903E+02  0.18157931360E+03  0.18544579781E+03  0.47000000000E+01 0. -1.
        -11    1    4    4    0    0  0.11903954618E+02 -0.85631244338E+01 -0.53281868470E+01  0.15601948939E+02  0.00000000000E+00 0.  1.
         12    1    4    4    0    0 -0.86325222412E+02  0.36054698738E+02  0.49245456092E+02  0.10572180604E+03  0.00000000000E+00 0. -1.
         -5    1    5    5    0  502  0.13977112265E+02 -0.59447675129E+02 -0.33691286662E+02  0.69904066709E+02  0.47000000000E+01 0.  1.
         11    1    6    6    0    0  0.45902531955E+02 -0.39767578390E+02  0.28652094897E+02  0.67152403329E+02  0.00000000000E+00 0. -1.
        -12    1    6    6    0    0  0.43506699968E+02  0.48100996312E+02  0.31429009659E+02  0.72071641000E+02  0.00000000000E+00 0.  1.
</event>
<event>
12    1  0.8133495E-002  0.2023259E+03  0.7818608E-02  0.1147960E+00
         21   -1    0    0  501  502  0.00000000000E+00  0.00000000000E+00  0.20304342206E+02  0.20304342206E+02  0.00000000000E+00 0.  1.
         21   -1    0    0  502  503 -0.00000000000E+00 -0.00000000000E+00 -0.20081753544E+04  0.20081753544E+04  0.00000000000E+00 0.  1.
         -6    2    1    2    0  503  0.17800590153E+02  0.10457542437E+03 -0.98849213915E+03  0.10089858684E+04  0.17228724025E+03 0.  0.
        -24    2    3    3    0    0 -0.42768284147E+02  0.21433328014E+02 -0.34640049409E+03  0.35868980711E+03  0.79853376517E+02 0.  0.
          6    2    1    2  501    0 -0.17800590153E+02 -0.10457542437E+03 -0.99937887301E+03  0.10194938281E+04  0.17133783411E+03 0.  0.
         24    2    5    5    0    0 -0.29108387945E+02 -0.32738366745E+02 -0.83109650771E+03  0.83611042210E+03  0.80250444916E+02 0.  0.
          5    1    5    5  501    0  0.11307797792E+02 -0.71837057622E+02 -0.16828236530E+03  0.18338340604E+03  0.47000000000E+01 0. -1.
        -11    1    6    6    0    0 -0.47589719164E+02 -0.16160049360E+02 -0.28135792992E+03  0.28581149958E+03  0.00000000000E+00 0.  1.
         12    1    6    6    0    0  0.18481331220E+02 -0.16578317385E+02 -0.54973857780E+03  0.55029892252E+03  0.00000000000E+00 0. -1.
         -5    1    3    3    0  503  0.60568874299E+02  0.83142096352E+02 -0.64209164506E+03  0.65029606133E+03  0.47000000000E+01 0.  1.
         11    1    4    4    0    0 -0.48702482921E+02  0.20824664190E+02 -0.34839608406E+03  0.35239953160E+03  0.00000000000E+00 0. -1.
        -12    1    4    4    0    0  0.59341987741E+01  0.60866382478E+00  0.19955899688E+01  0.62902755159E+01  0.00000000000E+00 0.  1.
</event>
<event>
12    1  0.8133495E-002  0.1916670E+03  0.7818608E-02  0.1160798E+00
         21   -1    0    0  503  502  0.00000000000E+00  0.00000000000E+00  0.68324491092E+03  0.68324491092E+03  0.00000000000E+00 0. -1.
         21   -1    0    0  501  503 -0.00000000000E+00 -0.00000000000E+00 -0.59411864945E+02  0.59411864945E+02  0.00000000000E+00 0. -1.
          6    2    1    2  501    0  0.10357412219E+02 -0.83077514510E+02  0.17016757875E+03  0.25630691940E+03  0.17241543630E+03 0.  0.
         24    2    3    3    0    0 -0.28988529650E+02 -0.31436169231E+02  0.16869894257E+03  0.19119794478E+03  0.79175458813E+02 0.  0.
         -6    2    1    2    0  502 -0.10357412219E+02  0.83077514510E+02  0.45366546723E+03  0.48634985646E+03  0.15399570552E+03 0.  0.
        -24    2    5    5    0    0 -0.16351061519E+02  0.98899561783E+02  0.45070020966E+03  0.46854132580E+03  0.79698271401E+02 0.  0.
          5    1    3    3  501    0  0.39345941869E+02 -0.51641345279E+02  0.14686361751E+01  0.65108974619E+02  0.47000000000E+01 0. -1.
        -13    1    4    4    0    0  0.20763116895E+02 -0.22500950492E+02  0.27245707603E+02  0.40984489493E+02  0.00000000000E+00 0.  1.
         14    1    4    4    0    0 -0.49751646545E+02 -0.89352187392E+01  0.14145323497E+03  0.15021345529E+03  0.00000000000E+00 0. -1.
         -5    1    5    5    0  502  0.59936492996E+01 -0.15822047273E+02  0.29652575726E+01  0.17808530661E+02  0.47000000000E+01 0.  1.
         13    1    6    6    0    0  0.22332813184E+02  0.77090711583E+02  0.33821012026E+03  0.34760296000E+03  0.00000000000E+00 0. -1.
        -14    1    6    6    0    0 -0.38683874703E+02  0.21808850200E+02  0.11249008940E+03  0.12093836580E+03  0.00000000000E+00 0.  1.
</event>
<event>
12    1  0.8133495E-002  0.1736020E+03  0.7818608E-02  0.1174226E+00
         21   -1    0    0  501  502  0.00000000000E+00  0.00000000000E+00  0.20494108802E+03  0.20494108802E+03  0.00000000000E+00 0. -1.
         21   -1    0    0  502  503 -0.00000000000E+00 -0.00000000000E+00 -0.57358786364E+03  0.57358786364E+03  0.00000000000E+00 0. -1.
         -6    2    1    2    0  503 -0.99022602713E+01  0.16122908148E+02 -0.52006413101E+03  0.54817083585E+03  0.17223983858E+03 0.  0.
        -24    2    3    3    0    0 -0.22411128510E+02  0.56649332609E+02 -0.47828778348E+03  0.48845303217E+03  0.78203294326E+02 0.  0.
          6    2    1    2  501    0  0.99022602713E+01 -0.16122908148E+02  0.15141735539E+03  0.23035811581E+03  0.17256779270E+03 0.  0.
         24    2    5    5    0    0 -0.79187752088E+01 -0.62002967711E+02  0.39897258500E+02  0.10836880815E+03  0.79024884302E+02 0.  0.
          5    1    5    5  501    0  0.17821035480E+02  0.45880059563E+02  0.11152009689E+03  0.12198930765E+03  0.47000000000E+01 0. -1.
        -11    1    6    6    0    0  0.82184610542E+01 -0.63319445302E+02  0.56441303894E+02  0.85220396859E+02  0.00000000000E+00 0.  1.
         12    1    6    6    0    0 -0.16137236263E+02  0.13164775907E+01 -0.16544045395E+02  0.23148411295E+02  0.00000000000E+00 0. -1.
         -5    1    3    3    0  503  0.12508868239E+02 -0.40526424461E+02 -0.41776347530E+02  0.59717803687E+02  0.47000000000E+01 0.  1.
         13    1    4    4    0    0 -0.39316153624E+02  0.36499921242E+02 -0.15354886625E+03  0.16265072552E+03  0.00000000000E+00 0. -1.
        -14    1    4    4    0    0  0.16905025114E+02  0.20149411367E+02 -0.32473891723E+03  0.32580230665E+03  0.00000000000E+00 0.  1.
</event>
<event>
12    1  0.8133495E-002  0.1825248E+03  0.7818608E-02  0.1165410E+00
         21   -1    0    0  503  502  0.00000000000E+00  0.00000000000E+00  0.20421053990E+03  0.20421053990E+03  0.00000000000E+00 0.  1.
         21   -1    0    0  501  503 -0.00000000000E+00 -0.00000000000E+00 -0.16653668426E+03  0.16653668426E+03  0.00000000000E+00 0.  1.
          6    2    1    2  501    0 -0.41713055568E+02  0.42096343474E+02  0.45706737302E+02  0.18804576718E+03  0.17251093757E+03 0.  0.
         24    2    3    3    0    0  0.42961537678E+02  0.21812108907E+02  0.94215732119E+01  0.93600332954E+02  0.79691872062E+02 0.  0.
         -6    2    1    2    0  502  0.41713055568E+02 -0.42096343474E+02 -0.80328816529E+01  0.18270145698E+03  0.17263607403E+03 0.  0.
        -24    2    5    5    0    0 -0.12259196333E+02  0.25989715446E+02 -0.35618966074E+02  0.91422776838E+02  0.79143288893E+02 0.  0.
          5    1    3    3  501    0 -0.84674593245E+02  0.20284234567E+02  0.36285164090E+02  0.94445434227E+02  0.47000000000E+01 0. -1.
        -13    1    4    4    0    0  0.12238101948E+02  0.15287508515E+02 -0.34460626741E+02  0.39636017097E+02  0.00000000000E+00 0.  1.
         14    1    4    4    0    0  0.30723435729E+02  0.65246003917E+01  0.43882199953E+02  0.53964315858E+02  0.00000000000E+00 0. -1.
         -5    1    5    5    0  502  0.53972251901E+02 -0.68086058920E+02  0.27586084421E+02  0.91278680141E+02  0.47000000000E+01 0.  1.
         13    1    6    6    0    0 -0.14867094078E+02 -0.69486315514E+01  0.20524166549E+02  0.26278420411E+02  0.00000000000E+00 0. -1.
        -14    1    6    6    0    0  0.26078977444E+01  0.32938346997E+02 -0.56143132623E+02  0.65144356427E+02  0.00000000000E+00 0.  1.
</event>
<event>
12    1  0.8133495E-002  0.4109572E+03  0.7818608E-02  0.1040153E+00
         21   -1    0    0  503  502  0.00000000000E+00  0.00000000000E+00  0.37431426557E+03  0.37431426557E+03  0.00000000000E+00 0. -1.
         21   -1    0    0  501  503 -0.00000000000E+00 -0.00000000000E+00 -0.92099598947E+03  0.92099598947E+03  0.00000000000E+00 0.  1.
          6    2    1    2  501    0  0.22991565745E+03 -0.29392162958E+03 -0.73637223993E+03  0.84268640688E+03  0.16918974770E+03 0.  0.
         24    2    3    3    0    0  0.72432077906E+02 -0.14576070917E+03 -0.23690384157E+03  0.29840384504E+03  0.80180012081E+02 0.  0.
         -6    2    1    2    0  502 -0.22991565745E+03  0.29392162958E+03  0.18969051603E+03  0.45262384816E+03  0.17214738504E+03 0.  0.
        -24    2    5    5    0    0 -0.64900493609E+02  0.15851292645E+03  0.42325424088E+02  0.19319354634E+03  0.78701225531E+02 0.  0.
          5    1    3    3  501    0  0.15748357955E+03 -0.14816092041E+03 -0.49946839836E+03  0.54428256184E+03  0.47000000000E+01 0. -1.
        -11    1    4    4    0    0  0.55429562976E+02 -0.97842249730E+02 -0.21582170228E+03  0.24336094481E+03  0.00000000000E+00 0.  1.
         12    1    4    4    0    0  0.17002514930E+02 -0.47918459439E+02 -0.21082139294E+02  0.55042900234E+02  0.00000000000E+00 0. -1.
         -5    1    5    5    0  502 -0.16501516384E+03  0.13540870313E+03  0.14736509194E+03  0.25943030182E+03  0.47000000000E+01 0.  1.
         11    1    6    6    0    0 -0.76200576967E+02  0.12282612036E+03  0.53502199450E+02  0.15412744441E+03  0.00000000000E+00 0. -1.
        -12    1    6    6    0    0  0.11300083358E+02  0.35686806088E+02 -0.11176775362E+02  0.39066101932E+02  0.00000000000E+00 0.  1.
</event>
<event>
12    1  0.8133495E-002  0.1719462E+03  0.7818608E-02  0.1177690E+00
         21   -1    0    0  503  502  0.00000000000E+00  0.00000000000E+00  0.34654226436E+03  0.34654226436E+03  0.00000000000E+00 0. -1.
         21   -1    0    0  501  503 -0.00000000000E+00 -0.00000000000E+00 -0.18343243779E+03  0.18343243779E+03  0.00000000000E+00 0. -1.
          6    2    1    2  501    0 -0.18100260938E+02 -0.11719714395E+01 -0.11638875675E+03  0.20182084728E+03  0.16387897588E+03 0.  0.
         24    2    3    3    0    0 -0.10731610584E+01  0.20593060473E+02 -0.56174211520E+00  0.82650271786E+02  0.80034530409E+02 0.  0.
         -6    2    1    2    0  502  0.18100260938E+02  0.11719714395E+01  0.27949858332E+03  0.32815385487E+03  0.17098684577E+03 0.  0.
        -24    2    5    5    0    0 -0.52233394227E+02  0.21874031256E+02  0.14885173359E+03  0.17826693858E+03  0.80096579722E+02 0.  0.
          5    1    3    3  501    0 -0.17027099880E+02 -0.21765031913E+02 -0.11582701464E+03  0.11917057550E+03  0.47000000000E+01 0. -1.
        -13    1    4    4    0    0  0.22775081259E+02  0.30560695734E+02 -0.26194997702E+02  0.46247576744E+02  0.00000000000E+00 0.  1.
         14    1    4    4    0    0 -0.23848242317E+02 -0.99676352611E+01  0.25633255587E+02  0.36402695042E+02  0.00000000000E+00 0. -1.
         -5    1    5    5    0  502  0.70333655165E+02 -0.20702059817E+02  0.13064684973E+03  0.14988691629E+03  0.47000000000E+01 0.  1.
         11    1    6    6    0    0  0.16749366574E+02  0.14781826621E+02  0.13279068852E+02  0.25988023173E+02  0.00000000000E+00 0. -1.
        -12    1    6    6    0    0 -0.68982760801E+02  0.70922046352E+01  0.13557266473E+03  0.15227891541E+03  0.00000000000E+00 0.  1.
</event>
<event>
12    1  0.8133495E-002  0.2046264E+03  0.7818608E-02  0.1146269E+00
         21   -1    0    0  501  502  0.00000000000E+00  0.00000000000E+00  0.61108003816E+03  0.61108003816E+03  0.00000000000E+00 0.  1.
         21   -1    0    0  502  503 -0.00000000000E+00 -0.00000000000E+00 -0.74776044740E+02  0.74776044740E+02  0.00000000000E+00 0.  1.
         -6    2    1    2    0  503  0.73318955018E+02 -0.78437222145E+02  0.37096297388E+03  0.42277890410E+03  0.17204768751E+03 0.  0.
        -24    2    3    3    0    0 -0.60029394675E+01  0.14827743841E+02  0.12556346977E+03  0.14849196777E+03  0.77638793659E+02 0.  0.
          6    2    1    2  501    0 -0.73318955018E+02  0.78437222145E+02  0.16534101954E+03  0.26307717880E+03  0.17419495481E+03 0.  0.
         24    2    5    5    0    0 -0.54794500958E+02  0.87263903418E+02  0.40350270559E+02  0.13632607217E+03  0.79619265542E+02 0.  0.
          5    1    5    5  501    0 -0.18524454060E+02 -0.88266812733E+01  0.12499074898E+03  0.12675110663E+03  0.47000000000E+01 0. -1.
        -11    1    6    6    0    0 -0.57800200787E+02  0.20561123663E+02  0.31526959198E+02  0.68975156205E+02  0.00000000000E+00 0.  1.
         12    1    6    6    0    0  0.30056998288E+01  0.66702779755E+02  0.88233113611E+01  0.67350915969E+02  0.00000000000E+00 0. -1.
         -5    1    3    3    0  503  0.79321894485E+02 -0.93264965986E+02  0.24539950411E+03  0.27428693633E+03  0.47000000000E+01 0.  1.
         13    1    4    4    0    0 -0.24319203303E+02  0.23134293930E+02  0.16155357998E+02  0.37250701966E+02  0.00000000000E+00 0. -1.
        -14    1    4    4    0    0  0.18316263835E+02 -0.83065500886E+01  0.10940811178E+03  0.11124126580E+03  0.00000000000E+00 0.  1.
</event>
<event>
12    1  0.8133495E-002  0.1774647E+03  0.7818608E-02  0.1172581E+00
         21   -1    0    0  503  502  0.00000000000E+00  0.00000000000E+00  0.10896448197E+04  0.10896448197E+04  0.00000000000E+00 0. -1.
         21   -1    0    0  501  503 -0.00000000000E+00 -0.00000000000E+00 -0.43987714171E+02  0.43987714171E+02  0.00000000000E+00 0. -1.
          6    2    1    2  501    0  0.13101508278E+01 -0.13176268517E+02  0.18384409514E+03  0.25552370101E+03  0.17696999721E+03 0.  0.
         24    2    3    3    0    0 -0.16456350671E+02  0.27440621687E+02  0.19099685212E+03  0.21037248532E+03  0.82176553026E+02 0.  0.
         -6    2    1    2    0  502 -0.13101508278E+01  0.13176268517E+02  0.86181301035E+03  0.87810883282E+03  0.16786341749E+03 0.  0.
        -24    2    5    5    0    0 -0.48738579967E+02 -0.33805214241E+02  0.57351676845E+03  0.58214679353E+03  0.80344034210E+02 0.  0.
          5    1    3    3  501    0  0.17766501499E+02 -0.40616890204E+02 -0.71527569746E+01  0.45151215684E+02  0.47000000000E+01 0. -1.
        -11    1    4    4    0    0  0.33150578836E+02  0.17529260274E+02  0.86266518973E+02  0.94064595564E+02  0.00000000000E+00 0.  1.
         12    1    4    4    0    0 -0.49606929507E+02  0.99113614130E+01  0.10473033314E+03  0.11630788976E+03  0.00000000000E+00 0. -1.
         -5    1    5    5    0  502  0.47428429139E+02  0.46981482759E+02  0.28829624190E+03  0.29596203930E+03  0.47000000000E+01 0.  1.
         13    1    6    6    0    0 -0.67025838538E+00 -0.21303033006E+02  0.42521759285E+03  0.42575141777E+03  0.00000000000E+00 0. -1.
        -14    1    6    6    0    0 -0.48068321581E+02 -0.12502181236E+02  0.14829917559E+03  0.15639537575E+03  0.00000000000E+00 0.  1.
</event>
<event>
12    1  0.8133495E-002  0.1901457E+03  0.7818608E-02  0.1158481E+00
         21   -1    0    0  503  502  0.00000000000E+00  0.00000000000E+00  0.93144569398E+02  0.93144569398E+02  0.00000000000E+00 0. -1.
         21   -1    0    0  501  503 -0.00000000000E+00 -0.00000000000E+00 -0.40365395413E+03  0.40365395413E+03  0.00000000000E+00 0. -1.
          6    2    1    2  501    0 -0.80562125698E+02 -0.25631762936E+01 -0.20574570539E+03  0.27970218143E+03  0.17147941288E+03 0.  0.
         24    2    3    3    0    0 -0.52130716665E+02 -0.50993159920E+02 -0.19583398824E+03  0.22248207596E+03  0.76350567749E+02 0.  0.
         -6    2    1    2    0  502  0.80562125698E+02  0.25631762936E+01 -0.10476367934E+03  0.21709634210E+03  0.17221662891E+03 0.  0.
        -24    2    5    5    0    0  0.93446228551E+02 -0.32093610408E+02 -0.12193807104E+03  0.17605803437E+03  0.79783086164E+02 0.  0.
          5    1    3    3  501    0 -0.28431409033E+02  0.48429983626E+02 -0.99117171558E+01  0.57220105475E+02  0.47000000000E+01 0. -1.
        -13    1    4    4    0    0 -0.38522039434E+01  0.10535429832E+02 -0.91002715259E+02  0.91691487835E+02  0.00000000000E+00 0.  1.
         14    1    4    4    0    0 -0.48278512721E+02 -0.61528589752E+02 -0.10483127298E+03  0.13079058812E+03  0.00000000000E+00 0. -1.
         -5    1    5    5    0  502 -0.12884102853E+02  0.34656786702E+02  0.17174391699E+02  0.41038307727E+02  0.47000000000E+01 0.  1.
         13    1    6    6    0    0 -0.22716630512E+01  0.62077873285E+01 -0.49782575822E+02  0.50219537353E+02  0.00000000000E+00 0. -1.
        -14    1    6    6    0    0  0.95717891602E+02 -0.38301397737E+02 -0.72155495222E+02  0.12583849702E+03  0.00000000000E+00 0.  1.
</event>
<event>
12    1  0.8133495E-002  0.2207197E+03  0.7818608E-02  0.1133427E+00
         21   -1    0    0  503  502  0.00000000000E+00  0.00000000000E+00  0.17065583507E+04  0.17065583507E+04  0.00000000000E+00 0. -1.
         21   -1    0    0  501  503 -0.00000000000E+00 -0.00000000000E+00 -0.43404202729E+02  0.43404202729E+02  0.00000000000E+00 0. -1.
          6    2    1    2  501    0 -0.86584323534E+02 -0.10771396812E+03  0.31817318879E+03  0.38699118473E+03  0.17154840419E+03 0.  0.
         24    2    3    3    0    0 -0.11289670948E+03 -0.92621280963E+02  0.20414166157E+03  0.26890049898E+03  0.96484670623E+02 0.  0.
         -6    2    1    2    0  502  0.86584323534E+02  0.10771396812E+03  0.13449809592E+04  0.13629713687E+04  0.17209888824E+03 0.  0.
        -24    2    5    5    0    0  0.76740532385E+02  0.89822486382E+02  0.13295402349E+04  0.13369423213E+04  0.76028586039E+02 0.  0.
          5    1    3    3  501    0  0.26312385945E+02 -0.15092687154E+02  0.11403152722E+03  0.11809068575E+03  0.47000000000E+01 0. -1.
        -13    1    4    4    0    0 -0.21373920063E+02 -0.16999645072E+02 -0.56099639128E+01  0.27880173718E+02  0.00000000000E+00 0.  1.
         14    1    4    4    0    0 -0.91522789415E+02 -0.75621635891E+02  0.20975162548E+03  0.24102032526E+03  0.00000000000E+00 0. -1.
         -5    1    5    5    0  502  0.98437911485E+01  0.17891481734E+02  0.15440724303E+02  0.26029047425E+02  0.47000000000E+01 0.  1.
         11    1    6    6    0    0 -0.45927925625E+01  0.37521238069E+02  0.22263096290E+03  0.22581736579E+03  0.00000000000E+00 0. -1.
        -12    1    6    6    0    0  0.81333324948E+02  0.52301248313E+02  0.11069092720E+04  0.11111249555E+04  0.00000000000E+00 0.  1.
</event>
<event>
12    1  0.8133495E-002  0.2093647E+03  0.7818608E-02  0.1142235E+00
         21   -1    0    0  503  502  0.00000000000E+00  0.00000000000E+00  0.11993808450E+04  0.11993808450E+04  0.00000000000E+00 0.  1.
         21   -1    0    0  501  503 -0.00000000000E+00 -0.00000000000E+00 -0.37049264207E+02  0.37049264207E+02  0.00000000000E+00 0.  1.
          6    2    1    2  501    0  0.89832081633E+02 -0.79816880777E+02  0.50058895055E+03  0.54260748438E+03  0.17144400647E+03 0.  0.
         24    2    3    3    0    0  0.16696729921E+02  0.19754357725E+02  0.19452559516E+03  0.21251646858E+03  0.81572218338E+02 0.  0.
         -6    2    1    2    0  502 -0.89832081633E+02  0.79816880777E+02  0.66174263024E+03  0.69382262482E+03  0.17042883759E+03 0.  0.
        -24    2    5    5    0    0 -0.86150836060E+01 -0.24468207704E+02  0.18462816641E+03  0.19871467493E+03  0.68753540606E+02 0.  0.
          5    1    3    3  501    0  0.73135351712E+02 -0.99571238502E+02  0.30606335538E+03  0.33009101581E+03  0.47000000000E+01 0. -1.
        -13    1    4    4    0    0  0.29049384172E+02  0.44884488559E+02  0.15586780522E+03  0.16478245276E+03  0.00000000000E+00 0.  1.
         14    1    4    4    0    0 -0.12352654251E+02 -0.25130130833E+02  0.38657789941E+02  0.47734015815E+02  0.00000000000E+00 0. -1.
         -5    1    5    5    0  502 -0.81216998027E+02  0.10428508848E+03  0.47711446384E+03  0.49510794990E+03  0.47000000000E+01 0.  1.
         13    1    6    6    0    0 -0.18719934158E+02 -0.58463907785E+01  0.85971641577E+01  0.21413254109E+02  0.00000000000E+00 0. -1.
        -14    1    6    6    0    0  0.10104850552E+02 -0.18621816926E+02  0.17603100225E+03  0.17730142082E+03  0.00000000000E+00 0.  1.
</event>
<event>
12    1  0.8133495E-002  0.2417638E+03  0.7818608E-02  0.1119862E+00
         21   -1    0    0  503  502  0.00000000000E+00  0.00000000000E+00  0.26690338860E+03  0.26690338860E+03  0.00000000000E+00 0. -1.
         21   -1    0    0  501  503 -0.00000000000E+00 -0.00000000000E+00 -0.21627154137E+03  0.21627154137E+03  0.00000000000E+00 0.  1.
          6    2    1    2  501    0  0.14636551713E+03 -0.70791876271E+02  0.58217908350E+02  0.24867462714E+03  0.17892845212E+03 0.  0.
         24    2    3    3    0    0  0.17194102036E+02 -0.12279231165E+02  0.65730674325E+02  0.10659184927E+03  0.81208891883E+02 0.  0.
         -6    2    1    2    0  502 -0.14636551713E+03  0.70791876271E+02 -0.75860611128E+01  0.23450030283E+03  0.16881495596E+03 0.  0.
        -24    2    5    5    0    0 -0.13460272748E+03  0.15782277526E+01  0.22193182829E+02  0.15809489902E+03  0.79881629204E+02 0.  0.
          5    1    3    3  501    0  0.12917141509E+03 -0.58512645107E+02 -0.75127659748E+01  0.14208277787E+03  0.47000000000E+01 0. -1.
        -11    1    4    4    0    0 -0.30038806720E+02 -0.58796001603E+01  0.78271937477E+01  0.31593742564E+02  0.00000000000E+00 0.  1.
         12    1    4    4    0    0  0.47232908757E+02 -0.63996310043E+01  0.57903480577E+02  0.74998106706E+02  0.00000000000E+00 0. -1.
         -5    1    5    5    0  502 -0.11762789644E+02  0.69213648519E+02 -0.29779243942E+02  0.76405403809E+02  0.47000000000E+01 0.  1.
         11    1    6    6    0    0 -0.90980384715E+02  0.38417052923E+02  0.69732566496E+01  0.99004680023E+02  0.00000000000E+00 0. -1.
        -12    1    6    6    0    0 -0.43622342768E+02 -0.36838825171E+02  0.15219926179E+02  0.59090219000E+02  0.00000000000E+00 0.  1.
</event>
<event>
12    1  0.8133495E-002  0.2063076E+03  0.7818608E-02  0.1144551E+00
         21   -1    0    0  503  502  0.00000000000E+00  0.00000000000E+00  0.68994515716E+02  0.68994515716E+02  0.00000000000E+00 0.  1.
         21   -1    0    0  501  503 -0.00000000000E+00 -0.00000000000E+00 -0.61929312900E+03  0.61929312900E+03  0.00000000000E+00 0.  1.
          6    2    1    2  501    0 -0.23774015240E+02 -0.11155999227E+03 -0.29815875228E+03  0.36250040063E+03  0.17174709086E+03 0.  0.
         24    2    3    3    0    0 -0.74006139201E+02 -0.40808783656E+02 -0.20052390375E+03  0.23179594988E+03  0.79857754426E+02 0.  0.
         -6    2    1    2    0  502  0.23774015240E+02  0.11155999227E+03 -0.25213986100E+03  0.32578724409E+03  0.17190690279E+03 0.  0.
        -24    2    5    5    0    0 -0.33541678603E+02  0.33888669000E+02 -0.18980517820E+03  0.21078452282E+03  0.78298296906E+02 0.  0.
          5    1    3    3  501    0  0.50232123961E+02 -0.70751208615E+02 -0.97634848527E+02  0.13070445075E+03  0.47000000000E+01 0. -1.
        -13    1    4    4    0    0 -0.37656308035E+02 -0.35321787897E+02 -0.18468749922E+03  0.19176834619E+03  0.00000000000E+00 0.  1.
         14    1    4    4    0    0 -0.36349831166E+02 -0.54869957584E+01 -0.15836404535E+02  0.40027603686E+02  0.00000000000E+00 0. -1.
         -5    1    5    5    0  502  0.57315693843E+02  0.77671323270E+02 -0.62334682805E+02  0.11500272127E+03  0.47000000000E+01 0.  1.
         11    1    6    6    0    0 -0.35031588071E+02 -0.20647710477E+00 -0.26432714679E+02  0.43885569392E+02  0.00000000000E+00 0. -1.
        -12    1    6    6    0    0  0.14899094680E+01  0.34095146105E+02 -0.16337246352E+03  0.16689895343E+03  0.00000000000E+00 0.  1.
</event>
<event>
12    1  0.8133495E-002  0.2452005E+03  0.7818608E-02  0.1116494E+00
         21   -1    0    0  501  502  0.00000000000E+00  0.00000000000E+00  0.14144665459E+03  0.14144665459E+03  0.00000000000E+00 0.  1.
         21   -1    0    0  502  503 -0.00000000000E+00 -0.00000000000E+00 -0.67994892519E+03  0.67994892519E+03  0.00000000000E+00 0. -1.
         -6    2    1    2    0  503  0.18541147387E+02  0.17592177160E+03 -0.52107656206E+03  0.57557661585E+03  0.16874659498E+03 0.  0.
        -24    2    3    3    0    0 -0.31974756033E+02  0.17021668734E+03 -0.37345332688E+03  0.41937445822E+03  0.80071487884E+02 0.  0.
          6    2    1    2  501    0 -0.18541147387E+02 -0.17592177160E+03 -0.17425708534E+02  0.24581896393E+03  0.16979712554E+03 0.  0.
         24    2    5    5    0    0  0.44135448788E+02 -0.55082775244E+02 -0.26605928515E+02  0.10930235253E+03  0.79101699533E+02 0.  0.
          5    1    5    5  501    0 -0.62676596175E+02 -0.12083899635E+03  0.91802199808E+01  0.13651661139E+03  0.47000000000E+01 0. -1.
        -13    1    6    6    0    0  0.45753747978E+02 -0.25264828125E+02  0.18297428158E+02  0.55376103794E+02  0.00000000000E+00 0.  1.
         14    1    6    6    0    0 -0.16182991898E+01 -0.29817947119E+02 -0.44903356673E+02  0.53926248740E+02  0.00000000000E+00 0. -1.
         -5    1    3    3    0  503  0.50515903420E+02  0.57050842536E+01 -0.14762323518E+03  0.15620215763E+03  0.47000000000E+01 0.  1.
         11    1    4    4    0    0  0.17475624130E+02  0.99110044988E+02 -0.24039153491E+03  0.26060753733E+03  0.00000000000E+00 0. -1.
        -12    1    4    4    0    0 -0.49450380164E+02  0.71106642355E+02 -0.13306179197E+03  0.15876692089E+03  0.00000000000E+00 0.  1.
</event>
<event>
12    1  0.8133495E-002  0.2073289E+03  0.7818608E-02  0.1143734E+00
         21   -1    0    0  501  502  0.00000000000E+00  0.00000000000E+00  0.24746572192E+02  0.24746572192E+02  0.00000000000E+00 0. -1.
         21   -1    0    0  502  503 -0.00000000000E+00 -0.00000000000E+00 -0.21410860694E+04  0.21410860694E+04  0.00000000000E+00 0. -1.
         -6    2    1    2    0  503 -0.10936512207E+03 -0.34632629116E+02 -0.15290950549E+04  0.15430635873E+04  0.17249173429E+03 0.  0.
        -24    2    3    3    0    0 -0.52645183488E+02  0.37015771516E+02 -0.55241380855E+03  0.56210538643E+03  0.81607394849E+02 0.  0.
          6    2    1    2  501    0  0.10936512207E+03  0.34632629116E+02 -0.58724444230E+03  0.62276905435E+03  0.17269948211E+03 0.  0.
         24    2    5    5    0    0  0.12474607570E+03  0.11250482903E+02 -0.57162540809E+03  0.59037549441E+03  0.78099042627E+02 0.  0.
          5    1    5    5  501    0 -0.15380953623E+02  0.23382146213E+02 -0.15619034207E+02  0.32393559938E+02  0.47000000000E+01 0. -1.
        -11    1    6    6    0    0 -0.90308424753E+01  0.92990130905E+01 -0.71398678438E+02  0.72565825586E+02  0.00000000000E+00 0.  1.
         12    1    6    6    0    0  0.13377691817E+03  0.19514698126E+01 -0.50022672965E+03  0.51780966882E+03  0.00000000000E+00 0. -1.
         -5    1    3    3    0  503 -0.56719938586E+02 -0.71648400632E+02 -0.97668124639E+03  0.98095820084E+03  0.47000000000E+01 0.  1.
         11    1    4    4    0    0 -0.22212134561E+02 -0.94735426786E+01 -0.38407395081E+03  0.38483233573E+03  0.00000000000E+00 0. -1.
        -12    1    4    4    0    0 -0.30433048928E+02  0.46489314194E+02 -0.16833985774E+03  0.17727305070E+03  0.00000000000E+00 0.  1.
</event>
<event>
12    1  0.8133495E-002  0.2347950E+03  0.7818608E-02  0.1123650E+00
         21   -1    0    0  501  502  0.00000000000E+00  0.00000000000E+00  0.79513052571E+03  0.79513052571E+03  0.00000000000E+00 0. -1.
         21   -1    0    0  502  503 -0.00000000000E+00 -0.00000000000E+00 -0.19940436824E+03  0.19940436824E+03  0.00000000000E+00 0. -1.
         -6    2    1    2    0  503  0.14415530164E+03 -0.62453810100E+02 -0.10421912023E+03  0.25688584736E+03  0.17449207479E+03 0.  0.
        -24    2    3    3    0    0  0.13004756215E+03  0.17109023234E+02 -0.76579595504E+02  0.17135628470E+03  0.79331297485E+02 0.  0.
          6    2    1    2  501    0 -0.14415530164E+03  0.62453810100E+02  0.69994527769E+03  0.73764904660E+03  0.17181820275E+03 0.  0.
         24    2    5    5    0    0 -0.14282635803E+02 -0.18510093144E+01  0.31200208384E+03  0.32349444891E+03  0.84237392127E+02 0.  0.
          5    1    5    5  501    0 -0.12987266584E+03  0.64304819414E+02  0.38794319386E+03  0.41415459769E+03  0.47000000000E+01 0. -1.
        -13    1    6    6    0    0  0.56739751664E+01 -0.30588810119E+02  0.48106682315E+02  0.57289808710E+02  0.00000000000E+00 0.  1.
         14    1    6    6    0    0 -0.19956610969E+02  0.28737800805E+02  0.26389540152E+03  0.26620464019E+03  0.00000000000E+00 0. -1.
         -5    1    3    3    0  503  0.14107739494E+02 -0.79562833334E+02 -0.27639524721E+02  0.85529562659E+02  0.47000000000E+01 0.  1.
         13    1    4    4    0    0  0.81613727179E+02 -0.28806412198E+02 -0.42533855943E+02  0.96435153077E+02  0.00000000000E+00 0. -1.
        -14    1    4    4    0    0  0.48433834971E+02  0.45915435432E+02 -0.34045739562E+02  0.74921131620E+02  0.00000000000E+00 0.  1.
</event>
<event>
12    1  0.8133495E-002  0.2152044E+03  0.7818608E-02  0.1137537E+00
         21   -1    0    0  501  502  0.00000000000E+00  0.00000000000E+00  0.36654455997E+03  0.36654455997E+03  0.00000000000E+00 0. -1.
         21   -1    0    0  502  503 -0.00000000000E+00 -0.00000000000E+00 -0.78695190777E+03  0.78695190777E+03  0.00000000000E+00 0. -1.
         -6    2    1    2    0  503  0.88823646395E+01 -0.12333264163E+03 -0.73867102478E+03  0.76938144555E+03  0.17613372481E+03 0.  0.
        -24    2    3    3    0    0 -0.33405496662E+02 -0.27008565012E+01 -0.13196685081E+03  0.14933924094E+03  0.61349305918E+02 0.  0.
          6    2    1    2  501    0 -0.88823646395E+01  0.12333264163E+03  0.31826367698E+03  0.38411502218E+03  0.17596234054E+03 0.  0.
         24    2    5    5    0    0  0.59895080176E+02  0.87686736678E+02  0.23566295527E+03  0.27077510564E+03  0.80658198153E+02 0.  0.
          5    1    5    5  501    0 -0.68777444816E+02  0.35645904950E+02  0.82600721711E+02  0.11333991654E+03  0.47000000000E+01 0. -1.
        -13    1    6    6    0    0  0.53174954396E+02  0.84707601377E+01  0.96154713010E+02  0.11020462053E+03  0.00000000000E+00 0.  1.
         14    1    6    6    0    0  0.67201257800E+01  0.79215976540E+02  0.13950824226E+03  0.16057048511E+03  0.00000000000E+00 0. -1.
         -5    1    3    3    0  503  0.42287861301E+02 -0.12063178513E+03 -0.60670417397E+03  0.62004220462E+03  0.47000000000E+01 0.  1.
         11    1    4    4    0    0 -0.49110172589E+02  0.46114503734E+01 -0.11480985552E+03  0.12495750258E+03  0.00000000000E+00 0. -1.
        -12    1    4    4    0    0  0.15704675927E+02 -0.73123068746E+01 -0.17156995294E+02  0.24381738357E+02  0.00000000000E+00 0.  1.
</event>
<event>
12    1  0.8133495E-002  0.2662660E+03  0.7818608E-02  0.1103631E+00
         21   -1    0    0  501  502  0.00000000000E+00  0.00000000000E+00  0.40713195820E+03  0.40713195820E+03  0.00000000000E+00 0.  1.
         21   -1    0    0  502  503 -0.00000000000E+00 -0.00000000000E+00 -0.17698829918E+03  0.17698829918E+03  0.00000000000E+00 0.  1.
         -6    2    1    2    0  503  0.88593627680E+02 -0.18231990462E+03  0.73009803611E+02  0.27609416474E+03  0.17265045002E+03 0.  0.
        -24    2    3    3    0    0  0.46362532359E+02 -0.57954346786E+02  0.95282170955E+02  0.14279598120E+03  0.76182737059E+02 0.  0.
          6    2    1    2  501    0 -0.88593627680E+02  0.18231990462E+03  0.15713385541E+03  0.30802609264E+03  0.17058618568E+03 0.  0.
         24    2    5    5    0    0 -0.72813394654E+02  0.20419589277E+03  0.11597346485E+03  0.25859085862E+03  0.80135101829E+02 0.  0.
          5    1    5    5  501    0 -0.15780233026E+02 -0.21875988151E+02  0.41160390562E+02  0.49435234026E+02  0.47000000000E+01 0. -1.
        -13    1    6    6    0    0 -0.31997008501E+02  0.12516518192E+03  0.25436655574E+02  0.13167062985E+03  0.00000000000E+00 0.  1.
         14    1    6    6    0    0 -0.40816386153E+02  0.79030710849E+02  0.90536809278E+02  0.12692022877E+03  0.00000000000E+00 0. -1.
         -5    1    3    3    0  503  0.42231095321E+02 -0.12436555783E+03 -0.22272367345E+02  0.13329818354E+03  0.47000000000E+01 0.  1.
         11    1    4    4    0    0  0.63927561110E+02 -0.59449175466E+02  0.87249168625E+02  0.12342347815E+03  0.00000000000E+00 0. -1.
        -12    1    4    4    0    0 -0.17565028751E+02  0.14948286797E+01  0.80330023300E+01  0.19372503046E+02  0.00000000000E+00 0.  1.
</event>
<event>
12    1  0.8133495E-002  0.1894386E+03  0.7818608E-02  0.1159354E+00
         21   -1    0    0  503  502  0.00000000000E+00  0.00000000000E+00  0.28267618040E+03  0.28267618040E+03  0.00000000000E+00 0.  1.
         21   -1    0    0  501  503 -0.00000000000E+00 -0.00000000000E+00 -0.12594821939E+03  0.12594821939E+03  0.00000000000E+00 0.  1.
          6    2    1    2  501    0  0.17860609013E+02 -0.74954862265E+02  0.85231474453E+02  0.20772914335E+03  0.17305998968E+03 0.  0.
         24    2    3    3    0    0  0.52432509834E+02 -0.10052477514E+03  0.38173739528E+02  0.14381077989E+03  0.79811700389E+02 0.  0.
         -6    2    1    2    0  502 -0.17860609013E+02  0.74954862265E+02  0.71496486561E+02  0.20089525643E+03  0.17120141277E+03 0.  0.
        -24    2    5    5    0    0 -0.15417300869E+02  0.13248855698E+02  0.10004720064E+03  0.13269823102E+03  0.84771179157E+02 0.  0.
          5    1    3    3  501    0 -0.34571900821E+02  0.25569912875E+02  0.47057734925E+02  0.63918363458E+02  0.47000000000E+01 0. -1.
        -13    1    4    4    0    0  0.89309447416E+01 -0.78639565046E+02  0.50107427204E+02  0.93673353872E+02  0.00000000000E+00 0.  1.
         14    1    4    4    0    0  0.43501565093E+02 -0.21885210094E+02 -0.11933687676E+02  0.50137426020E+02  0.00000000000E+00 0. -1.
         -5    1    5    5    0  502 -0.24433081440E+01  0.61706006567E+02 -0.28550714081E+02  0.68197025417E+02  0.47000000000E+01 0.  1.
         11    1    6    6    0    0  0.15197740486E+02  0.32481287829E+02  0.12496230979E+02  0.37975797076E+02  0.00000000000E+00 0. -1.
        -12    1    6    6    0    0 -0.30615041355E+02 -0.19232432131E+02  0.87550969663E+02  0.94722433942E+02  0.00000000000E+00 0.  1.
</event>
<event>
12    1  0.8133495E-002  0.3021024E+03  0.7818608E-02  0.1084374E+00
         21   -1    0    0  501  502  0.00000000000E+00  0.00000000000E+00  0.12488121286E+04  0.12488121286E+04  0.00000000000E+00 0.  1.
         21   -1    0    0  502  503 -0.00000000000E+00 -0.00000000000E+00 -0.76538652703E+02  0.76538652703E+02  0.00000000000E+00 0.  1.
         -6    2    1    2    0  503  0.16678244188E+02 -0.24661379566E+03  0.73526223398E+03  0.79490655110E+03  0.17369324753E+03 0.  0.
        -24    2    3    3    0    0 -0.18977659218E+02 -0.23542171399E+03  0.68174835922E+03  0.72946626587E+03  0.10750196640E+03 0.  0.
          6    2    1    2  501    0 -0.16678244188E+02  0.24661379566E+03  0.43701124189E+03  0.53044423016E+03  0.17115994783E+03 0.  0.
         24    2    5    5    0    0 -0.33408535832E+02  0.17357796380E+03  0.18713202639E+03  0.26953074310E+03  0.79893594194E+02 0.  0.
          5    1    5    5  501    0  0.16730291644E+02  0.73035831864E+02  0.24987921549E+03  0.26091348706E+03  0.47000000000E+01 0. -1.
        -13    1    6    6    0    0 -0.38625851274E+02  0.55987947931E+02  0.10821936310E+03  0.12782033191E+03  0.00000000000E+00 0.  1.
         14    1    6    6    0    0  0.52173154425E+01  0.11759001587E+03  0.78912663291E+02  0.14171041119E+03  0.00000000000E+00 0. -1.
         -5    1    3    3    0  503  0.35655903406E+02 -0.11192081672E+02  0.53513874756E+02  0.65440285232E+02  0.47000000000E+01 0.  1.
         11    1    4    4    0    0 -0.50431610384E+02 -0.11815763771E+03  0.25145026438E+03  0.28236821728E+03  0.00000000000E+00 0. -1.
        -12    1    4    4    0    0  0.31453951166E+02 -0.11726407628E+03  0.43029809484E+03  0.44709804859E+03  0.00000000000E+00 0.  1.
</event>
<event>
12    1  0.8133495E-002  0.1875678E+03  0.7818608E-02  0.1161146E+00
         21   -1    0    0  501  502  0.00000000000E+00  0.00000000000E+00  0.40017636870E+02  0.40017636870E+02  0.00000000000E+00 0. -1.
         21   -1    0    0  502  503 -0.00000000000E+00 -0.00000000000E+00 -0.91343137644E+03  0.91343137644E+03  0.00000000000E+00 0. -1.
         -6    2    1    2    0  503 -0.69659059135E+02  0.24377159810E+02 -0.32997193438E+03  0.37854842951E+03  0.17020812426E+03 0.  0.
        -24    2    3    3    0    0 -0.12511211177E+02 -0.42763150011E+02 -0.21926752100E+03  0.23694597589E+03  0.77973920771E+02 0.  0.
          6    2    1    2  501    0  0.69659059135E+02 -0.24377159810E+02 -0.54344180519E+03  0.57490058380E+03  0.17243855481E+03 0.  0.
         24    2    5    5    0    0 -0.28234326252E+02 -0.17987653933E+02 -0.20696518462E+03  0.22438304233E+03  0.79952668299E+02 0.  0.
          5    1    5    5  501    0  0.97893385387E+02 -0.63895058773E+01 -0.33647662057E+03  0.35051754147E+03  0.47000000000E+01 0. -1.
        -13    1    6    6    0    0  0.22164230152E+02 -0.25322322736E+02 -0.59319510430E+02  0.68200274520E+02  0.00000000000E+00 0.  1.
         14    1    6    6    0    0 -0.50398556404E+02  0.73346688033E+01 -0.14764567419E+03  0.15618276781E+03  0.00000000000E+00 0. -1.
         -5    1    3    3    0  503 -0.57147847958E+02  0.67140309821E+02 -0.11070441337E+03  0.14160245361E+03  0.47000000000E+01 0.  1.
         13    1    4    4    0    0 -0.34593294632E+02  0.59603032545E+01 -0.10645103638E+03  0.11208944819E+03  0.00000000000E+00 0. -1.
        -14    1    4    4    0    0  0.22082083455E+02 -0.48723453265E+02 -0.11281648462E+03  0.12485652770E+03  0.00000000000E+00 0.  1.
</event>
<event>
12    1  0.8133495E-002  0.2066735E+03  0.7818608E-02  0.1144230E+00
         21   -1    0    0  503  502  0.00000000000E+00  0.00000000000E+00  0.40831836067E+03  0.40831836067E+03  0.00000000000E+00 0.  1.
         21   -1    0    0  501  503 -0.00000000000E+00 -0.00000000000E+00 -0.10460482393E+03  0.10460482393E+03  0.00000000000E+00 0.  1.
          6    2    1    2  501    0 -0.55330500475E+02  0.10006782639E+03  0.15123338754E+03  0.25609659450E+03  0.17215950176E+03 0.  0.
         24    2    3    3    0    0 -0.65489185830E+02 -0.30765194169E+01  0.11269617809E+03  0.14542066454E+03  0.64408405404E+02 0.  0.
         -6    2    1    2    0  502  0.55330500475E+02 -0.10006782639E+03  0.15248014920E+03  0.25682659010E+03  0.17214722572E+03 0.  0.
        -24    2    5    5    0    0  0.23032296891E+02  0.17919651712E+02  0.65080108362E+02  0.10641024763E+03  0.78969105853E+02 0.  0.
          5    1    3    3  501    0  0.10158685355E+02  0.10314434581E+03  0.38537209452E+02  0.11067592996E+03  0.47000000000E+01 0. -1.
        -13    1    4    4    0    0 -0.11891949006E+02  0.26605387855E+02  0.24728405874E+02  0.38219879266E+02  0.00000000000E+00 0.  1.
         14    1    4    4    0    0 -0.53597236824E+02 -0.29681907272E+02  0.87967772212E+02  0.10720078527E+03  0.00000000000E+00 0. -1.
         -5    1    5    5    0  502  0.32298203584E+02 -0.11798747811E+03  0.87400040836E+02  0.15041634247E+03  0.47000000000E+01 0.  1.
         13    1    6    6    0    0 -0.25544101816E+02  0.17204271123E+01  0.27586232691E+01  0.25750165230E+02  0.00000000000E+00 0. -1.
        -14    1    6    6    0    0  0.48576398707E+02  0.16199224600E+02  0.62321485093E+02  0.80660082403E+02  0.00000000000E+00 0.  1.
</event>
<event>
12    1  0.8133495E-002  0.1990251E+03  0.7818608E-02  0.1151764E+00
         21   -1    0    0  501  502  0.00000000000E+00  0.00000000000E+00  0.46384939755E+03  0.46384939755E+03  0.00000000000E+00 0.  1.
         21   -1    0    0  502  503 -0.00000000000E+00 -0.00000000000E+00 -0.39711375332E+03  0.39711375332E+03  0.00000000000E+00 0.  1.
         -6    2    1    2    0  503  0.17304071625E+02  0.86760896406E+02 -0.34937082467E+03  0.40208326147E+03  0.17828093556E+03 0.  0.
        -24    2    3    3    0    0  0.67362019155E+02  0.70445884760E+02 -0.31303425718E+03  0.33793956456E+03  0.81929474702E+02 0.  0.
          6    2    1    2  501    0 -0.17304071625E+02 -0.86760896406E+02  0.41610646890E+03  0.45887988939E+03  0.17204439948E+03 0.  0.
         24    2    5    5    0    0  0.32407469039E+02 -0.96485349776E+02  0.20959482030E+03  0.24619478584E+03  0.79512370770E+02 0.  0.
          5    1    5    5  501    0 -0.49711540664E+02  0.97244533700E+01  0.20651164860E+03  0.21268510356E+03  0.47000000000E+01 0. -1.
        -11    1    6    6    0    0  0.27803369295E+02 -0.10037444666E+03  0.21448320289E+03  0.23843468961E+03  0.00000000000E+00 0.  1.
         12    1    6    6    0    0  0.46040997442E+01  0.38890968812E+01 -0.48883825960E+01  0.77600962243E+01  0.00000000000E+00 0. -1.
         -5    1    3    3    0  503 -0.50057947530E+02  0.16315011647E+02 -0.36336567493E+02  0.64143696908E+02  0.47000000000E+01 0.  1.
         13    1    4    4    0    0 -0.28000955145E+01  0.52127732239E+02 -0.98447381951E+02  0.11143171908E+03  0.00000000000E+00 0. -1.
        -14    1    4    4    0    0  0.70162114669E+02  0.18318152520E+02 -0.21458687523E+03  0.22650784549E+03  0.00000000000E+00 0.  1.
</event>
<event>
12    1  0.8133495E-002  0.2044017E+03  0.7818608E-02  0.1146100E+00
         21   -1    0    0  501  502  0.00000000000E+00  0.00000000000E+00  0.65330361143E+03  0.65330361143E+03  0.00000000000E+00 0.  1.
         21   -1    0    0  502  503 -0.00000000000E+00 -0.00000000000E+00 -0.82095227463E+02  0.82095227463E+02  0.00000000000E+00 0. -1.
         -6    2    1    2    0  503 -0.17909922016E+02 -0.10811199121E+03  0.11252312571E+03  0.23323132277E+03  0.17241353819E+03 0.  0.
        -24    2    3    3    0    0  0.28176093976E+02 -0.42110940117E+02  0.11982262007E+03  0.15226569900E+03  0.79121168231E+02 0.  0.
          6    2    1    2  501    0  0.17909922016E+02  0.10811199121E+03  0.45868525825E+03  0.50216751611E+03  0.17254298061E+03 0.  0.
         24    2    5    5    0    0 -0.22990045275E+02  0.21351643925E+02  0.33875125068E+03  0.34852370284E+03  0.75709489002E+02 0.  0.
          5    1    5    5  501    0  0.40899967291E+02  0.86760347286E+02  0.11993400756E+03  0.15364381327E+03  0.47000000000E+01 0. -1.
        -11    1    6    6    0    0 -0.38717188977E+02  0.24418493875E+02  0.32238880674E+03  0.32562221404E+03  0.00000000000E+00 0.  1.
         12    1    6    6    0    0  0.15727143702E+02 -0.30668499504E+01  0.16362443943E+02  0.22901488804E+02  0.00000000000E+00 0. -1.
         -5    1    3    3    0  503 -0.46086015992E+02 -0.66001051095E+02 -0.72994943520E+01  0.80965623776E+02  0.47000000000E+01 0.  1.
         13    1    4    4    0    0 -0.15227614346E-01 -0.37874830242E+02  0.10522990750E+02  0.39309494172E+02  0.00000000000E+00 0. -1.
        -14    1    4    4    0    0  0.28191321590E+02 -0.42361098752E+01  0.10929962932E+03  0.11295620483E+03  0.00000000000E+00 0.  1.
</event>
<event>
12    1  0.8133495E-002  0.2176590E+03  0.7818608E-02  0.1135835E+00
         21   -1    0    0  501  502  0.00000000000E+00  0.00000000000E+00  0.88022264315E+02  0.88022264315E+02  0.00000000000E+00 0.  1.
         21   -1    0    0  502  503 -0.00000000000E+00 -0.00000000000E+00 -0.53715274650E+03  0.53715274650E+03  0.00000000000E+00 0.  1.
         -6    2    1    2    0  503  0.99486992562E+02 -0.90055764860E+02 -0.20875679631E+03  0.30158720431E+03  0.17137018213E+03 0.  0.
        -24    2    3    3    0    0  0.53307727200E+02  0.11870572420E+02 -0.62583090702E+02  0.11743958692E+03  0.83022822550E+02 0.  0.
          6    2    1    2  501    0 -0.99486992562E+02  0.90055764860E+02 -0.24037368587E+03  0.32358780650E+03  0.17006427369E+03 0.  0.
         24    2    5    5    0    0 -0.84377724156E+02  0.80955377232E+02 -0.25758706083E+03  0.29849802125E+03  0.95271198942E+02 0.  0.
          5    1    5    5  501    0 -0.15109268406E+02  0.91003876274E+01  0.17213374955E+02  0.25089785254E+02  0.47000000000E+01 0. -1.
        -13    1    6    6    0    0 -0.26465292661E+02  0.61316203547E+02 -0.53875658307E+02  0.85806031788E+02  0.00000000000E+00 0.  1.
         14    1    6    6    0    0 -0.57912431495E+02  0.19639173685E+02 -0.20371140252E+03  0.21269198946E+03  0.00000000000E+00 0. -1.
         -5    1    3    3    0  503  0.46179265361E+02 -0.10192633728E+03 -0.14617370561E+03  0.18414761740E+03  0.47000000000E+01 0.  1.
         11    1    4    4    0    0 -0.15693470165E+02  0.19814597176E+02 -0.21425831383E+01  0.25367182137E+02  0.00000000000E+00 0. -1.
        -12    1    4    4    0    0  0.69001197365E+02 -0.79440247559E+01 -0.60440507564E+02  0.92072404779E+02  0.00000000000E+00 0.  1.
</event>
<event>
12    1  0.8133495E-002  0.3147751E+03  0.7818608E-02  0.1078146E+00
         21   -1    0    0  501  502  0.00000000000E+00  0.00000000000E+00  0.21603774953E+03  0.21603774953E+03  0.00000000000E+00 0.  1.
         21   -1    0    0  502  503 -0.00000000000E+00 -0.00000000000E+00 -0.49106970238E+03  0.49106970238E+03  0.00000000000E+00 0.  1.
         -6    2    1    2    0  503  0.23420424219E+03  0.12019503057E+03 -0.45627983999E+02  0.31806491937E+03  0.17258304546E+03 0.  0.
        -24    2    3    3    0    0  0.12248259058E+03  0.11869065239E+03  0.21707809239E+02  0.18752684200E+03  0.74870765530E+02 0.  0.
          6    2    1    2  501    0 -0.23420424219E+03 -0.12019503057E+03 -0.22940396885E+03  0.38904253254E+03  0.17155010570E+03 0.  0.
         24    2    5    5    0    0 -0.22163619869E+03 -0.44751542183E+02 -0.19738873055E+03  0.30599591225E+03  0.59547311175E+02 0.  0.
          5    1    5    5  501    0 -0.12568043497E+02 -0.75443488387E+02 -0.32015238293E+02  0.83046620282E+02  0.47000000000E+01 0. -1.
        -11    1    6    6    0    0 -0.14478144141E+03 -0.68825334083E+01 -0.98982855989E+02  0.17551820653E+03  0.00000000000E+00 0.  1.
         12    1    6    6    0    0 -0.76854757276E+02 -0.37869008775E+02 -0.98405874566E+02  0.13047770572E+03  0.00000000000E+00 0. -1.
         -5    1    3    3    0  503  0.11172165161E+03  0.15043781851E+01 -0.67335793239E+02  0.13053807737E+03  0.47000000000E+01 0.  1.
         11    1    4    4    0    0  0.48305419984E+02  0.92772337535E+02  0.29203025948E+02  0.10859528966E+03  0.00000000000E+00 0. -1.
        -12    1    4    4    0    0  0.74177170591E+02  0.25918314850E+02 -0.74952167086E+01  0.78931552342E+02  0.00000000000E+00 0.  1.
</event>
<event>
12    1  0.8133495E-002  0.2567560E+03  0.7818608E-02  0.1109876E+00
         21   -1    0    0  501  502  0.00000000000E+00  0.00000000000E+00  0.75604101885E+03  0.75604101885E+03  0.00000000000E+00 0.  1.
         21   -1    0    0  502  503 -0.00000000000E+00 -0.00000000000E+00 -0.85998092949E+02  0.85998092949E+02  0.00000000000E+00 0. -1.
         -6    2    1    2    0  503 -0.85764373732E+00 -0.18200766094E+03  0.30014630462E+03  0.39176455838E+03  0.17396591860E+03 0.  0.
        -24    2    3    3    0    0  0.60727541655E+02 -0.14349580347E+03  0.23810961651E+03  0.29612701922E+03  0.81952072017E+02 0.  0.
          6    2    1    2  501    0  0.85764373732E+00  0.18200766094E+03  0.36989662128E+03  0.45027455342E+03  0.18109704257E+03 0.  0.
         24    2    5    5    0    0  0.19880225559E+02  0.13404191698E+03  0.36578456757E+03  0.39829792215E+03  0.80501093390E+02 0.  0.
          5    1    5    5  501    0 -0.19022581821E+02  0.47965743960E+02  0.41120537124E+01  0.51976631273E+02  0.47000000000E+01 0. -1.
        -11    1    6    6    0    0  0.12087170300E+02  0.87972059073E+02  0.32286276176E+03  0.33485152799E+03  0.00000000000E+00 0.  1.
         12    1    6    6    0    0  0.77930552588E+01  0.46069857906E+02  0.42921805810E+02  0.63446394159E+02  0.00000000000E+00 0. -1.
         -5    1    3    3    0  503 -0.61585185393E+02 -0.38511857468E+02  0.62036688114E+02  0.95637539166E+02  0.47000000000E+01 0.  1.
         13    1    4    4    0    0  0.16529744289E+02 -0.26562656594E+02  0.50948330737E+01  0.31698020374E+02  0.00000000000E+00 0. -1.
        -14    1    4    4    0    0  0.44197797367E+02 -0.11693314688E+03  0.23301478343E+03  0.26442899884E+03  0.00000000000E+00 0.  1.
</event>
<event>
12    1  0.8133495E-002  0.2210971E+03  0.7818608E-02  0.1133184E+00
         21   -1    0    0  503  502  0.00000000000E+00  0.00000000000E+00  0.34888492028E+03  0.34888492028E+03  0.00000000000E+00 0.  1.
         21   -1    0    0  501  503 -0.00000000000E+00 -0.00000000000E+00 -0.14167035039E+03  0.14167035039E+03  0.00000000000E+00 0. -1.
          6    2    1    2  501    0 -0.29391297550E+02 -0.13578567654E+03  0.13253675418E+03  0.25777879871E+03  0.17199511485E+03 0.  0.
         24    2    3    3    0    0  0.50834208860E+02 -0.80825870011E+02  0.74656475388E+02  0.14451393706E+03  0.78700385222E+02 0.  0.
         -6    2    1    2    0  502  0.29391297550E+02  0.13578567654E+03  0.74677815712E+02  0.23277647195E+03  0.17119144666E+03 0.  0.
        -24    2    5    5    0    0  0.64197802852E+02  0.14503804494E+03  0.82113023846E+02  0.19570260713E+03  0.79997308593E+02 0.  0.
          5    1    3    3  501    0 -0.80225506410E+02 -0.54959806528E+02  0.57880278792E+02  0.11326486165E+03  0.47000000000E+01 0. -1.
        -13    1    4    4    0    0 -0.14227391722E+02 -0.13806117247E+02  0.40440330173E+02  0.45038293186E+02  0.00000000000E+00 0.  1.
         14    1    4    4    0    0  0.65061600582E+02 -0.67019752764E+02  0.34216145215E+02  0.99475643875E+02  0.00000000000E+00 0. -1.
         -5    1    5    5    0  502 -0.34806505302E+02 -0.92523684020E+01 -0.74352081340E+01  0.37073864816E+02  0.47000000000E+01 0.  1.
         13    1    6    6    0    0  0.27774376162E+02  0.83939191510E+02  0.18205342897E+01  0.88433693735E+02  0.00000000000E+00 0. -1.
        -14    1    6    6    0    0  0.36423426690E+02  0.61098853432E+02  0.80292489557E+02  0.10726891340E+03  0.00000000000E+00 0.  1.
</event>
<event>
12    1  0.8133495E-002  0.1799248E+03  0.7818608E-02  0.1168024E+00
         21   -1    0    0  503  502  0.00000000000E+00  0.00000000000E+00  0.94943918064E+03  0.94943918064E+03  0.00000000000E+00 0. -1.
         21   -1    0    0  501  503 -0.00000000000E+00 -0.00000000000E+00 -0.12003934323E+03  0.12003934323E+03  0.00000000000E+00 0. -1.
          6    2    1    2  501    0  0.48983086259E+02 -0.20713184309E+02 -0.38267882403E+02  0.18335200241E+03  0.17124586775E+03 0.  0.
         24    2    3    3    0    0 -0.34998178511E+02 -0.35690315303E+02 -0.20388162845E+02  0.96065453294E+02  0.79462085467E+02 0.  0.
         -6    2    1    2    0  502 -0.48983086259E+02  0.20713184309E+02  0.86766771981E+03  0.88612652146E+03  0.17188531437E+03 0.  0.
        -24    2    5    5    0    0  0.17948471889E+02  0.25394395379E+02  0.21598919579E+03  0.23098628008E+03  0.75738404568E+02 0.  0.
          5    1    3    3  501    0  0.83981264770E+02  0.14977130994E+02 -0.17879719557E+02  0.87286549116E+02  0.47000000000E+01 0. -1.
        -11    1    4    4    0    0 -0.23184576765E+02  0.20731864340E+02  0.75516563198E+01  0.32005660624E+02  0.00000000000E+00 0.  1.
         12    1    4    4    0    0 -0.11813601746E+02 -0.56422179644E+02 -0.27939819165E+02  0.64059792670E+02  0.00000000000E+00 0. -1.
         -5    1    5    5    0  502 -0.66931558148E+02 -0.46812110691E+01  0.65167852401E+03  0.65514024138E+03  0.47000000000E+01 0.  1.
         11    1    6    6    0    0  0.15202624585E+02  0.25752811497E+02  0.22219092079E+03  0.22419440755E+03  0.00000000000E+00 0. -1.
        -12    1    6    6    0    0  0.27458473044E+01 -0.35841611805E+00 -0.62017249983E+01  0.67918725317E+01  0.00000000000E+00 0.  1.
</event>
<event>
12    1  0.8133495E-002  0.2206059E+03  0.7818608E-02  0.1136239E+00
         21   -1    0    0  503  502  0.00000000000E+00  0.00000000000E+00  0.69974858263E+02  0.69974858263E+02  0.00000000000E+00 0.  1.
         21   -1    0    0  501  503 -0.00000000000E+00 -0.00000000000E+00 -0.75958977522E+03  0.75958977522E+03  0.00000000000E+00 0.  1.
          6    2    1    2  501    0 -0.11425480893E+03  0.29432799789E+02 -0.49197509508E+03  0.53337473687E+03  0.16890430629E+03 0.  0.
         24    2    3    3    0    0 -0.77034810482E+02 -0.38483869116E+02 -0.20616652702E+03  0.23722168560E+03  0.79712740807E+02 0.  0.
         -6    2    1    2    0  502  0.11425480893E+03 -0.29432799789E+02 -0.19763982187E+03  0.29618989661E+03  0.18640414318E+03 0.  0.
        -24    2    5    5    0    0  0.15323389660E+03 -0.39042497009E+02 -0.15522966505E+03  0.23760297864E+03  0.85755366626E+02 0.  0.
          5    1    3    3  501    0 -0.37219998453E+02  0.67916668905E+02 -0.28580856806E+03  0.29615305127E+03  0.47000000000E+01 0. -1.
        -13    1    4    4    0    0 -0.56871082387E+02 -0.61478359816E+02 -0.17239056883E+03  0.19165702950E+03  0.00000000000E+00 0.  1.
         14    1    4    4    0    0 -0.20163728095E+02  0.22994490700E+02 -0.33775958189E+02  0.45564656093E+02  0.00000000000E+00 0. -1.
         -5    1    5    5    0  502 -0.38979087665E+02  0.96096972193E+01 -0.42410156823E+02  0.58586917973E+02  0.47000000000E+01 0.  1.
         11    1    6    6    0    0  0.70919321922E+01 -0.32579386108E+02 -0.23996514220E+02  0.41079734616E+02  0.00000000000E+00 0. -1.
        -12    1    6    6    0    0  0.14614196441E+03 -0.64631109008E+01 -0.13123315083E+03  0.19652324402E+03  0.00000000000E+00 0.  1.
</event>
<event>
12    1  0.8133495E-002  0.2166878E+03  0.7818608E-02  0.1136690E+00
         21   -1    0    0  503  502  0.00000000000E+00  0.00000000000E+00  0.29710080367E+03  0.29710080367E+03  0.00000000000E+00 0. -1.
         21   -1    0    0  501  503 -0.00000000000E+00 -0.00000000000E+00 -0.36600994001E+03  0.36600994001E+03  0.00000000000E+00 0. -1.
          6    2    1    2  501    0 -0.47439476709E+02 -0.12192253958E+03 -0.28515275845E+03  0.35814201868E+03  0.17273679481E+03 0.  0.
         24    2    3    3    0    0 -0.71653170914E+02 -0.16256219406E+02 -0.15016052385E+03  0.18494655797E+03  0.79111344390E+02 0.  0.
         -6    2    1    2    0  502  0.47439476709E+02  0.12192253958E+03  0.21624362211E+03  0.30496872501E+03  0.17067222832E+03 0.  0.
        -24    2    5    5    0    0 -0.38135248463E+02  0.40635900051E+02  0.11180816727E+03  0.14730006743E+03  0.78042745009E+02 0.  0.
          5    1    3    3  501    0  0.24213694206E+02 -0.10566632018E+03 -0.13499223460E+03  0.17319546070E+03  0.47000000000E+01 0. -1.
        -11    1    4    4    0    0  0.12052960925E+02 -0.18102460145E+02 -0.16797249010E+02  0.27479456047E+02  0.00000000000E+00 0.  1.
         12    1    4    4    0    0 -0.83706131839E+02  0.18462407387E+01 -0.13336327484E+03  0.15746710193E+03  0.00000000000E+00 0. -1.
         -5    1    5    5    0  502  0.85574725172E+02  0.81286639531E+02  0.10443545484E+03  0.15766865758E+03  0.47000000000E+01 0.  1.
         13    1    6    6    0    0  0.19463952114E+02 -0.64057783777E+01  0.33776939497E+02  0.39506468714E+02  0.00000000000E+00 0. -1.
        -14    1    6    6    0    0 -0.57599200576E+02  0.47041678428E+02  0.78031227771E+02  0.10779359871E+03  0.00000000000E+00 0.  1.
</event>
<event>
12    1  0.8133495E-002  0.1849273E+03  0.7818608E-02  0.1166018E+00
         21   -1    0    0  501  502  0.00000000000E+00  0.00000000000E+00  0.15223647818E+04  0.15223647818E+04  0.00000000000E+00 0. -1.
         21   -1    0    0  502  503 -0.00000000000E+00 -0.00000000000E+00 -0.37044523128E+02  0.37044523128E+02  0.00000000000E+00 0.  1.
         -6    2    1    2    0  503  0.61271116755E+02 -0.25615787611E+02  0.21609264410E+03  0.27678042833E+03  0.15969050176E+03 0.  0.
        -24    2    3    3    0    0  0.33684229445E+02  0.21310285991E+02  0.20131256970E+03  0.22017978051E+03  0.79772360021E+02 0.  0.
          6    2    1    2  501    0 -0.61271116755E+02  0.25615787611E+02  0.12692276146E+04  0.12826288766E+04  0.17259136467E+03 0.  0.
         24    2    5    5    0    0 -0.93182331467E+02 -0.79229625428E+01  0.65380300127E+03  0.66544760821E+03  0.81341468944E+02 0.  0.
          5    1    5    5  501    0  0.31911214713E+02  0.33538750154E+02  0.61542461333E+03  0.61718126841E+03  0.47000000000E+01 0. -1.
        -13    1    6    6    0    0 -0.41792449750E+01  0.11194337734E+01 -0.10986485838E+01  0.44638827544E+01  0.00000000000E+00 0.  1.
         14    1    6    6    0    0 -0.89003086492E+02 -0.90423963161E+01  0.65490164986E+03  0.66098372546E+03  0.00000000000E+00 0. -1.
         -5    1    3    3    0  503  0.27586887310E+02 -0.46926073602E+02  0.14780074404E+02  0.56600647828E+02  0.47000000000E+01 0.  1.
         13    1    4    4    0    0 -0.11787636029E+01 -0.27385531026E+02  0.85688498591E+02  0.89965969033E+02  0.00000000000E+00 0. -1.
        -14    1    4    4    0    0  0.34862993048E+02  0.48695817017E+02  0.11562407111E+03  0.13021381147E+03  0.00000000000E+00 0.  1.
</event>
<event>
12    1  0.8133495E-002  0.2001470E+03  0.7818608E-02  0.1150037E+00
         21   -1    0    0  501  502  0.00000000000E+00  0.00000000000E+00  0.91896204640E+03  0.91896204640E+03  0.00000000000E+00 0. -1.
         21   -1    0    0  502  503 -0.00000000000E+00 -0.00000000000E+00 -0.48724463856E+02  0.48724463856E+02  0.00000000000E+00 0. -1.
         -6    2    1    2    0  503 -0.62881245596E+02 -0.73812549423E+02  0.26966880706E+03  0.33464490322E+03  0.17281088581E+03 0.  0.
        -24    2    3    3    0    0 -0.55537845976E+02 -0.11269740985E+03  0.24738140863E+03  0.28898555569E+03  0.80807991794E+02 0.  0.
          6    2    1    2  501    0  0.62881245596E+02  0.73812549423E+02  0.60056877548E+03  0.63304160703E+03  0.17508991588E+03 0.  0.
         24    2    5    5    0    0  0.66394840777E+02 -0.21247748263E+02  0.34607524392E+03  0.36131039212E+03  0.76924529974E+02 0.  0.
          5    1    5    5  501    0 -0.35135951812E+01  0.95060297686E+02  0.25449353157E+03  0.27173121491E+03  0.47000000000E+01 0.  1.
        -11    1    6    6    0    0  0.49622064214E+01 -0.38204572363E+02  0.16190002416E+03  0.16642064375E+03  0.00000000000E+00 0.  1.
         12    1    6    6    0    0  0.61432634356E+02  0.16956824100E+02  0.18417521976E+03  0.19488974837E+03  0.00000000000E+00 0. -1.
         -5    1    3    3    0  503 -0.73433996200E+01  0.38884860432E+02  0.22287398427E+02  0.45659347536E+02  0.47000000000E+01 0.  1.
         13    1    4    4    0    0 -0.23978477788E+02 -0.10885108277E+03  0.15229932897E+03  0.18872893584E+03  0.00000000000E+00 0. -1.
        -14    1    4    4    0    0 -0.31559368188E+02 -0.38463270884E+01  0.95082079654E+02  0.10025661985E+03  0.00000000000E+00 0.  1.
</event>
<event>
12    1  0.8133495E-002  0.1947974E+03  0.7818608E-02  0.1154233E+00
         21   -1    0    0  503  502  0.00000000000E+00  0.00000000000E+00  0.11744897706E+03  0.11744897706E+03  0.00000000000E+00 0.  1.
         21   -1    0    0  501  503 -0.00000000000E+00 -0.00000000000E+00 -0.32811712494E+03  0.32811712494E+03  0.00000000000E+00 0.  1.
          6    2    1    2  501    0  0.93144812793E+02 -0.11379813410E+02 -0.13354916673E+03  0.23618088089E+03  0.17070609907E+03 0.  0.
         24    2    3    3    0    0  0.13109644475E+03 -0.74309546236E+01 -0.89296212092E+02  0.17756062971E+03  0.79451034082E+02 0.  0.
         -6    2    1    2    0  502 -0.93144812793E+02  0.11379813410E+02 -0.77118981146E+02  0.20938522111E+03  0.17055608245E+03 0.  0.
        -24    2    5    5    0    0 -0.43996831560E+02 -0.54114161244E+02 -0.58956588067E+02  0.12537958262E+03  0.85907489933E+02 0.  0.
          5    1    3    3  501    0 -0.37951631957E+02 -0.39488587862E+01 -0.44252954642E+02  0.58620251181E+02  0.47000000000E+01 0. -1.
        -11    1    4    4    0    0  0.12075817309E+03 -0.58874466270E+01 -0.10402870576E+03  0.15949661445E+03  0.00000000000E+00 0.  1.
         12    1    4    4    0    0  0.10338271656E+02 -0.15435079966E+01  0.14732493671E+02  0.18064015266E+02  0.00000000000E+00 0. -1.
         -5    1    5    5    0  502 -0.49147981233E+02  0.65493974654E+02 -0.18162393079E+02  0.84005638487E+02  0.47000000000E+01 0.  1.
         11    1    6    6    0    0  0.61503215563E+01 -0.26838735831E+01 -0.52865807724E+02  0.53289992109E+02  0.00000000000E+00 0. -1.
        -12    1    6    6    0    0 -0.50147153117E+02 -0.51430287661E+02 -0.60907803430E+01  0.72089590509E+02  0.00000000000E+00 0.  1.
</event>
<event>
12    1  0.8133495E-002  0.1882172E+03  0.7818608E-02  0.1161002E+00
         21   -1    0    0  501  502  0.00000000000E+00  0.00000000000E+00  0.46932695373E+02  0.46932695373E+02  0.00000000000E+00 0. -1.
         21   -1    0    0  502  503 -0.00000000000E+00 -0.00000000000E+00 -0.11309084764E+04  0.11309084764E+04  0.00000000000E+00 0.  1.
         -6    2    1    2    0  503  0.31407050304E+02 -0.69731146059E+02 -0.88491360697E+03  0.90388597096E+03  0.16759749746E+03 0.  0.
        -24    2    3    3    0    0  0.43095507226E+02 -0.10871497000E+03 -0.61112305182E+03  0.62704717916E+03  0.77721380472E+02 0.  0.
          6    2    1    2  501    0 -0.31407050304E+02  0.69731146059E+02 -0.19906217408E+03  0.27395520084E+03  0.17197926438E+03 0.  0.
         24    2    5    5    0    0 -0.99999494378E+01 -0.15256680945E+01 -0.18027323609E+03  0.19707274691E+03  0.78974054442E+02 0.  0.
          5    1    5    5  501    0 -0.21407100866E+02  0.71256814154E+02 -0.18788937996E+02  0.76882453927E+02  0.47000000000E+01 0. -1.
        -13    1    6    6    0    0  0.34290388146E+01 -0.71701936068E+01  0.61697226684E+01  0.10061583442E+02  0.00000000000E+00 0.  1.
         14    1    6    6    0    0 -0.13428988252E+02  0.56445255123E+01 -0.18644295875E+03  0.18701116347E+03  0.00000000000E+00 0. -1.
         -5    1    3    3    0  503 -0.11688456922E+02  0.38983823940E+02 -0.27379055516E+03  0.27683879180E+03  0.47000000000E+01 0.  1.
         11    1    4    4    0    0  0.72153242695E+01  0.52622471316E+01 -0.16368395384E+03  0.16392738909E+03  0.00000000000E+00 0. -1.
        -12    1    4    4    0    0  0.35880182957E+02 -0.11397721713E+03 -0.44743909798E+03  0.46311979007E+03  0.00000000000E+00 0.  1.
</event>
<event>
12    1  0.8133495E-002  0.3088591E+03  0.7818608E-02  0.1081549E+00
         21   -1    0    0  503  502  0.00000000000E+00  0.00000000000E+00  0.18129653306E+04  0.18129653306E+04  0.00000000000E+00 0.  1.
         21   -1    0    0  501  503 -0.00000000000E+00 -0.00000000000E+00 -0.52232726569E+02  0.52232726569E+02  0.00000000000E+00 0. -1.
          6    2    1    2  501    0 -0.77295051162E+02 -0.24376660258E+03  0.96660297845E+03  0.10131207162E+04  0.16338783969E+03 0.  0.
         24    2    3    3    0    0  0.29921690892E+02 -0.60887997499E+02  0.21263564986E+03  0.22990373696E+03  0.55128512149E+02 0.  0.
         -6    2    1    2    0  502  0.77295051162E+02  0.24376660258E+03  0.79412962562E+03  0.85207734102E+03  0.17319714582E+03 0.  0.
        -24    2    5    5    0    0  0.81903401736E+02  0.83956888958E+02  0.45952401755E+03  0.48120892174E+03  0.81503234541E+02 0.  0.
          5    1    3    3  501    0 -0.10721674205E+03 -0.18287860508E+03  0.75396732858E+03  0.78321697922E+03  0.47000000000E+01 0. -1.
        -11    1    4    4    0    0  0.55653168979E+01 -0.76900058057E+01  0.11975681209E+03  0.12013243935E+03  0.00000000000E+00 0.  1.
         12    1    4    4    0    0  0.24356373995E+02 -0.53197991693E+02  0.92878837774E+02  0.10977129762E+03  0.00000000000E+00 0. -1.
         -5    1    5    5    0  502 -0.46083505734E+01  0.15980971362E+03  0.33460560808E+03  0.37086841928E+03  0.47000000000E+01 0.  1.
         11    1    6    6    0    0  0.34208738260E+01 -0.95798728797E+01  0.66250295339E+01  0.12139495807E+02  0.00000000000E+00 0. -1.
        -12    1    6    6    0    0  0.78482527910E+02  0.93536761838E+02  0.45289898801E+03  0.46906942593E+03  0.00000000000E+00 0.  1.
</event>
<event>
12    1  0.8133495E-002  0.1732490E+03  0.7818608E-02  0.1174566E+00
         21   -1    0    0  501  502  0.00000000000E+00  0.00000000000E+00  0.12731028643E+03  0.12731028643E+03  0.00000000000E+00 0. -1.
         21   -1    0    0  502  503 -0.00000000000E+00 -0.00000000000E+00 -0.23611547465E+03  0.23611547465E+03  0.00000000000E+00 0. -1.
         -6    2    1    2    0  503 -0.88475166742E+01 -0.10499176926E+02 -0.44568036913E+02  0.17888969612E+03  0.17270408854E+03 0.  0.
        -24    2    3    3    0    0  0.24104978468E+02 -0.33749923370E+02  0.31327112456E+02  0.92816309738E+02  0.76898452936E+02 0.  0.
          6    2    1    2  501    0  0.88475166742E+01  0.10499176926E+02 -0.64237151308E+02  0.18453606496E+03  0.17244893851E+03 0.  0.
         24    2    5    5    0    0  0.29934956109E+02 -0.35521513894E+01 -0.10554220089E+03  0.13585016299E+03  0.80046181905E+02 0.  0.
          5    1    5    5  501    0 -0.21087439435E+02  0.14051328315E+02  0.41305049586E+02  0.48685901970E+02  0.47000000000E+01 0. -1.
        -11    1    6    6    0    0  0.44724347633E+02 -0.24195717238E+02 -0.96161549397E+02  0.10877841507E+03  0.00000000000E+00 0.  1.
         12    1    6    6    0    0 -0.14789391523E+02  0.20643565848E+02 -0.93806514978E+01  0.27071747913E+02  0.00000000000E+00 0. -1.
         -5    1    3    3    0  503 -0.32952495143E+02  0.23250746444E+02 -0.75895149369E+02  0.86073386387E+02  0.47000000000E+01 0.  1.
         11    1    4    4    0    0  0.26460310192E+02 -0.42428931443E+02 -0.95965816063E+01  0.50916172454E+02  0.00000000000E+00 0. -1.
        -12    1    4    4    0    0 -0.23553317236E+01  0.86790080724E+01  0.40923694063E+02  0.41900137284E+02  0.00000000000E+00 0.  1.
</event>
<event>
12    1  0.8133495E-002  0.4328431E+03  0.7818608E-02  0.1032981E+00
         21   -1    0    0  503  502  0.00000000000E+00  0.00000000000E+00  0.36053849890E+03  0.36053849890E+03  0.00000000000E+00 0. -1.
         21   -1    0    0  501  503 -0.00000000000E+00 -0.00000000000E+00 -0.59083510031E+03  0.59083510031E+03  0.00000000000E+00 0.  1.
          6    2    1    2  501    0 -0.36048233351E+03  0.16589664903E+03 -0.28052091277E+03  0.51562635470E+03  0.17236398762E+03 0.  0.
         24    2    3    3    0    0 -0.33509432874E+03  0.13030968062E+03 -0.19029750547E+03  0.41526034286E+03  0.83421758257E+02 0.  0.
         -6    2    1    2    0  502  0.36048233351E+03 -0.16589664903E+03  0.50224311360E+02  0.43574724451E+03  0.17286980278E+03 0.  0.
        -24    2    5    5    0    0  0.28246856117E+03 -0.12625189809E+03 -0.25090968696E+02  0.32019493445E+03  0.78531582894E+02 0.  0.
          5    1    3    3  501    0 -0.25388004770E+02  0.35586968410E+02 -0.90223407302E+02  0.10036601184E+03  0.47000000000E+01 0. -1.
        -13    1    4    4    0    0 -0.28226936416E+03  0.74443319107E+02 -0.14392806698E+03  0.32547363975E+03  0.00000000000E+00 0.  1.
         14    1    4    4    0    0 -0.52824964575E+02  0.55866361508E+02 -0.46369438491E+02  0.89786703116E+02  0.00000000000E+00 0. -1.
         -5    1    5    5    0  502  0.78013772335E+02 -0.39644750939E+02  0.75315280056E+02  0.11555231006E+03  0.47000000000E+01 0.  1.
         13    1    6    6    0    0  0.64635390443E+02 -0.61630073782E+02  0.11518521637E+02  0.90048187282E+02  0.00000000000E+00 0. -1.
        -14    1    6    6    0    0  0.21783317073E+03 -0.64621824305E+02 -0.36609490333E+02  0.23014674716E+03  0.00000000000E+00 0.  1.
</event>
<event>
12    1  0.8133495E-002  0.3193551E+03  0.7818608E-02  0.1076087E+00
         21   -1    0    0  501  502  0.00000000000E+00  0.00000000000E+00  0.13800617762E+04  0.13800617762E+04  0.00000000000E+00 0.  1.
         21   -1    0    0  502  503 -0.00000000000E+00 -0.00000000000E+00 -0.10469811812E+03  0.10469811812E+03  0.00000000000E+00 0. -1.
         -6    2    1    2    0  503  0.11931237323E+03 -0.23982484053E+03  0.23406504091E+03  0.39594714648E+03  0.17388589043E+03 0.  0.
        -24    2    3    3    0    0  0.15132066597E+03 -0.22941769399E+03  0.20455659136E+03  0.35093961269E+03  0.76057809708E+02 0.  0.
          6    2    1    2  501    0 -0.11931237323E+03  0.23982484053E+03  0.10412986171E+04  0.10888127478E+04  0.17163622340E+03 0.  0.
         24    2    5    5    0    0  0.65915239278E+01  0.12028919819E+03  0.50589173484E+03  0.52594226472E+03  0.78586761316E+02 0.  0.
          5    1    5    5  501    0 -0.12590389716E+03  0.11953564233E+03  0.53540688230E+03  0.56287048308E+03  0.47000000000E+01 0. -1.
        -13    1    6    6    0    0 -0.14444236655E+02  0.89052593431E+02  0.44718711337E+03  0.45619657466E+03  0.00000000000E+00 0.  1.
         14    1    6    6    0    0  0.21035760583E+02  0.31236604762E+02  0.58704621474E+02  0.69745690066E+02  0.00000000000E+00 0. -1.
         -5    1    3    3    0  503 -0.32008292744E+02 -0.10407146539E+02  0.29508449546E+02  0.45007533793E+02  0.47000000000E+01 0.  1.
         11    1    4    4    0    0  0.12404914614E+03 -0.12835063699E+03  0.14849380559E+03  0.23219062637E+03  0.00000000000E+00 0. -1.
        -12    1    4    4    0    0  0.27271519835E+02 -0.10106705699E+03  0.56062785777E+02  0.11874898632E+03  0.00000000000E+00 0.  1.
</event>
<event>
12    1  0.8133495E-002  0.2020420E+03  0.7818608E-02  0.1148469E+00
         21   -1    0    0  503  502  0.00000000000E+00  0.00000000000E+00  0.18376869180E+03  0.18376869180E+03  0.00000000000E+00 0.  1.
         21   -1    0    0  501  503 -0.00000000000E+00 -0.00000000000E+00 -0.22247401120E+03  0.22247401120E+03  0.00000000000E+00 0. -1.
          6    2    1    2  501    0  0.98289174110E+02 -0.37738437260E+02 -0.41647854938E+02  0.20628991052E+03  0.17244138705E+03 0.  0.
         24    2    3    3    0    0  0.67490088951E+01 -0.68276922441E+02 -0.17198908401E+02  0.10663028022E+03  0.79793025701E+02 0.  0.
         -6    2    1    2    0  502 -0.98289174110E+02  0.37738437260E+02  0.29425355388E+01  0.19995279247E+03  0.16996325870E+03 0.  0.
        -24    2    5    5    0    0 -0.13142017962E+03  0.42890096598E+02 -0.15263940347E+02  0.16151103284E+03  0.82109694044E+02 0.  0.
          5    1    3    3  501    0  0.91540165215E+02  0.30538485181E+02 -0.24448946538E+02  0.99659630300E+02  0.47000000000E+01 0. -1.
        -11    1    4    4    0    0  0.34907787107E+02 -0.37037968977E+02  0.15669466689E+02  0.53253140123E+02  0.00000000000E+00 0.  1.
         12    1    4    4    0    0 -0.28158778212E+02 -0.31238953465E+02 -0.32868375089E+02  0.53377140097E+02  0.00000000000E+00 0. -1.
         -5    1    5    5    0  502  0.33131005508E+02 -0.51516593383E+01  0.18206475885E+02  0.38441759638E+02  0.47000000000E+01 0.  1.
         11    1    6    6    0    0 -0.75451008729E+02  0.18545717552E+02 -0.48917401650E+02  0.91813455125E+02  0.00000000000E+00 0. -1.
        -12    1    6    6    0    0 -0.55969170889E+02  0.24344379046E+02  0.33653461304E+02  0.69697577711E+02  0.00000000000E+00 0.  1.
</event>
<event>
12    1  0.8133495E-002  0.1819457E+03  0.7818608E-02  0.1166887E+00
         21   -1    0    0  503  502  0.00000000000E+00  0.00000000000E+00  0.44661664584E+02  0.44661664584E+02  0.00000000000E+00 0.  1.
         21   -1    0    0  501  503 -0.00000000000E+00 -0.00000000000E+00 -0.72613690451E+03  0.72613690451E+03  0.00000000000E+00 0.  1.
          6    2    1    2  501    0 -0.39277249065E+01  0.51256843723E+02 -0.32328254507E+03  0.36904460534E+03  0.17041016910E+03 0.  0.
         24    2    3    3    0    0  0.12306484514E+02  0.14761624737E+02 -0.55426410138E+02  0.98185879093E+02  0.78733885885E+02 0.  0.
         -6    2    1    2    0  502  0.39277249065E+01 -0.51256843723E+02 -0.35819269485E+03  0.40175396375E+03  0.17453237433E+03 0.  0.
        -24    2    5    5    0    0 -0.94416447849E+01  0.36775123988E+02 -0.17107573807E+03  0.19447827077E+03  0.84340590727E+02 0.  0.
          5    1    3    3  501    0 -0.16234209421E+02  0.36495218986E+02 -0.26785613493E+03  0.27085872625E+03  0.47000000000E+01 0. -1.
        -13    1    4    4    0    0  0.16099807406E+02  0.45898288309E+02 -0.41198235081E+02  0.63742852478E+02  0.00000000000E+00 0.  1.
         14    1    4    4    0    0 -0.37933228919E+01 -0.31136663572E+02 -0.14228175057E+02  0.34443026615E+02  0.00000000000E+00 0. -1.
         -5    1    5    5    0  502  0.13369369691E+02 -0.88031967711E+02 -0.18711695678E+03  0.20727569298E+03  0.47000000000E+01 0.  1.
         11    1    6    6    0    0  0.27058799607E+02 -0.34554151985E+01 -0.19692271436E+02  0.33643782259E+02  0.00000000000E+00 0. -1.
        -12    1    6    6    0    0 -0.36500444392E+02  0.40230539187E+02 -0.15138346663E+03  0.16083448851E+03  0.00000000000E+00 0.  1.
</event>
<event>
12    1  0.8133495E-002  0.2185025E+03  0.7818608E-02  0.1135836E+00
         21   -1    0    0  503  502  0.00000000000E+00  0.00000000000E+00  0.72077419277E+03  0.72077419277E+03  0.00000000000E+00 0. -1.
         21   -1    0    0  501  503 -0.00000000000E+00 -0.00000000000E+00 -0.95217570014E+02  0.95217570014E+02  0.00000000000E+00 0.  1.
          6    2    1    2  501    0  0.55910408031E+02 -0.11589923048E+03  0.80480938902E+02  0.22875174219E+03  0.17114780945E+03 0.  0.
         24    2    3    3    0    0  0.72374730041E+02 -0.14331836272E+03  0.79113548072E+02  0.19639679713E+03  0.80836215847E+02 0.  0.
         -6    2    1    2    0  502 -0.55910408031E+02  0.11589923048E+03  0.54507568386E+03  0.58724002059E+03  0.17659200238E+03 0.  0.
        -24    2    5    5    0    0 -0.92463421226E+02  0.12886213940E+03  0.42046685481E+03  0.45665054912E+03  0.81132070047E+02 0.  0.
          5    1    3    3  501    0 -0.16464322010E+02  0.27419132246E+02  0.13673908292E+01  0.32354945063E+02  0.47000000000E+01 0. -1.
        -13    1    4    4    0    0  0.14282585882E+02 -0.40336546160E+02 -0.14929833869E+02  0.45320295177E+02  0.00000000000E+00 0.  1.
         14    1    4    4    0    0  0.58092144159E+02 -0.10298181656E+03  0.94043381941E+02  0.15107650195E+03  0.00000000000E+00 0. -1.
         -5    1    5    5    0  502  0.36553013195E+02 -0.12962908919E+02  0.12460882905E+03  0.13058947147E+03  0.47000000000E+01 0.  1.
         11    1    6    6    0    0 -0.34426349902E+02 -0.19803140928E+01  0.68446230619E+02  0.76641905622E+02  0.00000000000E+00 0. -1.
        -12    1    6    6    0    0 -0.58037071324E+02  0.13084245349E+03  0.35202062419E+03  0.38000864350E+03  0.00000000000E+00 0.  1.
</event>
<event>
12    1  0.8133495E-002  0.1982039E+03  0.7818608E-02  0.1152553E+00
         21   -1    0    0  503  502  0.00000000000E+00  0.00000000000E+00  0.25573654405E+03  0.25573654405E+03  0.00000000000E+00 0.  1.
         21   -1    0    0  501  503 -0.00000000000E+00 -0.00000000000E+00 -0.27792662417E+03  0.27792662417E+03  0.00000000000E+00 0.  1.
          6    2    1    2  501    0 -0.27697630487E+01 -0.95014871109E+02 -0.19288236057E+03  0.27656537139E+03  0.17392326560E+03 0.  0.
         24    2    3    3    0    0 -0.36031335765E+02 -0.12467792035E+03 -0.15798974674E+03  0.21976912848E+03  0.80590748704E+02 0.  0.
         -6    2    1    2    0  502  0.27697630487E+01  0.95014871109E+02  0.17069228045E+03  0.25709779683E+03  0.16711650190E+03 0.  0.
        -24    2    5    5    0    0  0.18245350508E+02 -0.56378974754E+01  0.11204185045E+03  0.13948641740E+03  0.80860408625E+02 0.  0.
          5    1    3    3  501    0  0.33261572717E+02  0.29663049240E+02 -0.34892613827E+02  0.56796242917E+02  0.47000000000E+01 0. -1.
        -11    1    4    4    0    0 -0.39962724486E+00 -0.10000817393E+03 -0.14176991725E+03  0.17349496820E+03  0.00000000000E+00 0.  1.
         12    1    4    4    0    0 -0.35631708521E+02 -0.24669746417E+02 -0.16219829494E+02  0.46274160275E+02  0.00000000000E+00 0. -1.
         -5    1    5    5    0  502 -0.15475587459E+02  0.10065276858E+03  0.58650429999E+02  0.11761137942E+03  0.47000000000E+01 0.  1.
         11    1    6    6    0    0 -0.18438174235E+02 -0.24638827493E+02  0.15458233982E+02  0.34438279388E+02  0.00000000000E+00 0. -1.
        -12    1    6    6    0    0  0.36683524742E+02  0.19000930018E+02  0.96583616473E+02  0.10504813801E+03  0.00000000000E+00 0.  1.
</event>
<event>
12    1  0.8133495E-002  0.2104212E+03  0.7818608E-02  0.1141975E+00
         21   -1    0    0  501  502  0.00000000000E+00  0.00000000000E+00  0.15877576609E+03  0.15877576609E+03  0.00000000000E+00 0. -1.
         21   -1    0    0  502  503 -0.00000000000E+00 -0.00000000000E+00 -0.27696158056E+03  0.27696158056E+03  0.00000000000E+00 0.  1.
         -6    2    1    2    0  503 -0.10714475339E+03 -0.55323661444E+02 -0.82312713249E+02  0.22594787887E+03  0.17244232517E+03 0.  0.
        -24    2    3    3    0    0 -0.11383457937E+03  0.10080813083E+02 -0.78015315097E+02  0.15989444073E+03  0.80124331724E+02 0.  0.
          6    2    1    2  501    0  0.10714475339E+03  0.55323661444E+02 -0.35873101228E+02  0.20978946777E+03  0.16788101650E+03 0.  0.
         24    2    5    5    0    0  0.89233411947E+02 -0.26225488983E+02 -0.19426234074E+02  0.12456230352E+03  0.80548189350E+02 0.  0.
          5    1    5    5  501    0  0.17911341444E+02  0.81549150427E+02 -0.16446867154E+02  0.85227164255E+02  0.47000000000E+01 0. -1.
        -11    1    6    6    0    0 -0.11422286927E+02  0.50733215545E+01 -0.14351178564E+02  0.19030595273E+02  0.00000000000E+00 0.  1.
         12    1    6    6    0    0  0.10065569887E+03 -0.31298810538E+02 -0.50750555102E+01  0.10553170825E+03  0.00000000000E+00 0. -1.
         -5    1    3    3    0  503  0.66898259770E+01 -0.65404474527E+02 -0.42973981518E+01  0.66053438144E+02  0.47000000000E+01 0.  1.
         11    1    4    4    0    0 -0.37690636800E+02 -0.19033467429E+02  0.62111015402E+01  0.42678270433E+02  0.00000000000E+00 0. -1.
        -12    1    4    4    0    0 -0.76143942568E+02  0.29114280513E+02 -0.84226416637E+02  0.11721617030E+03  0.00000000000E+00 0.  1.
</event>
<event>
12    1  0.8133495E-002  0.2125983E+03  0.7818608E-02  0.1139643E+00
         21   -1    0    0  503  502  0.00000000000E+00  0.00000000000E+00  0.16740754865E+03  0.16740754865E+03  0.00000000000E+00 0.  1.
         21   -1    0    0  501  503 -0.00000000000E+00 -0.00000000000E+00 -0.35125798546E+03  0.35125798546E+03  0.00000000000E+00 0.  1.
          6    2    1    2  501    0 -0.58270957057E+02 -0.10969410244E+03 -0.21735436438E+03  0.30404107816E+03  0.17253914613E+03 0.  0.
         24    2    3    3    0    0  0.19576350574E+02 -0.56290590584E+02 -0.46802120420E+02  0.10904801084E+03  0.78416618783E+02 0.  0.
         -6    2    1    2    0  502  0.58270957057E+02  0.10969410244E+03  0.33503927569E+02  0.21462445594E+03  0.17179302483E+03 0.  0.
        -24    2    5    5    0    0  0.50744195540E+02 -0.44991144441E+01 -0.58526984612E+00  0.95121709943E+02  0.80327963686E+02 0.  0.
          5    1    3    3  501    0 -0.77847307632E+02 -0.53403511856E+02 -0.17055224396E+03  0.19499306732E+03  0.47000000000E+01 0. -1.
        -11    1    4    4    0    0 -0.14260405378E+02 -0.89888657908E-01 -0.40744749691E+02  0.43168297035E+02  0.00000000000E+00 0.  1.
         12    1    4    4    0    0  0.33836755952E+02 -0.56200701927E+02 -0.60573707290E+01  0.65879713802E+02  0.00000000000E+00 0. -1.
         -5    1    5    5    0  502  0.75267615179E+01  0.11419321688E+03  0.34089197415E+02  0.11950274600E+03  0.47000000000E+01 0.  1.
         13    1    6    6    0    0  0.18241979745E+01 -0.16682244522E+01 -0.35098568840E+02  0.35185511304E+02  0.00000000000E+00 0. -1.
        -14    1    6    6    0    0  0.48919997565E+02 -0.28308899919E+01  0.34513298994E+02  0.59936198640E+02  0.00000000000E+00 0.  1.
</event>
<event>
12    1  0.8133495E-002  0.1872658E+03  0.7818608E-02  0.1162375E+00
         21   -1    0    0  501  502  0.00000000000E+00  0.00000000000E+00  0.10361975332E+04  0.10361975332E+04  0.00000000000E+00 0.  1.
         21   -1    0    0  502  503 -0.00000000000E+00 -0.00000000000E+00 -0.36462476307E+02  0.36462476307E+02  0.00000000000E+00 0.  1.
         -6    2    1    2    0  503  0.59082054879E+02  0.69169907735E+01  0.66351913825E+03  0.68780986988E+03  0.17113221881E+03 0.  0.
        -24    2    3    3    0    0  0.23625693092E+02  0.28551909086E+02  0.15945011776E+03  0.18201061059E+03  0.79562160780E+02 0.  0.
          6    2    1    2  501    0 -0.59082054879E+02 -0.69169907735E+01  0.33621591862E+03  0.38485013960E+03  0.17756675378E+03 0.  0.
         24    2    5    5    0    0 -0.94234991803E+02 -0.46077843320E+02  0.21259600197E+03  0.25041325798E+03  0.80661876963E+02 0.  0.
          5    1    5    5  501    0  0.35152936924E+02  0.39160852547E+02  0.12361991665E+03  0.13443688162E+03  0.47000000000E+01 0. -1.
        -11    1    6    6    0    0 -0.37006307875E+02 -0.16779691344E+02  0.16628658656E+03  0.17117901078E+03  0.00000000000E+00 0.  1.
         12    1    6    6    0    0 -0.57228683928E+02 -0.29298151976E+02  0.46309415411E+02  0.79234247198E+02  0.00000000000E+00 0. -1.
         -5    1    3    3    0  503  0.35456361786E+02 -0.21634918313E+02  0.50406902049E+03  0.50579925929E+03  0.47000000000E+01 0.  1.
         11    1    4    4    0    0  0.68290343387E+01 -0.15523521538E+02  0.11801742167E+03  0.11922972469E+03  0.00000000000E+00 0. -1.
        -12    1    4    4    0    0  0.16796658753E+02  0.44075430624E+02  0.41432696092E+02  0.62780885908E+02  0.00000000000E+00 0.  1.
</event>
<event>
12    1  0.8133495E-002  0.2153761E+03  0.7818608E-02  0.1137485E+00
         21   -1    0    0  501  502  0.00000000000E+00  0.00000000000E+00  0.13995806163E+04  0.13995806163E+04  0.00000000000E+00 0.  1.
         21   -1    0    0  502  503 -0.00000000000E+00 -0.00000000000E+00 -0.74675160882E+02  0.74675160882E+02  0.00000000000E+00 0. -1.
         -6    2    1    2    0  503  0.11732029808E+03  0.54467492140E+02  0.11178267979E+03  0.24216254180E+03  0.17151259169E+03 0.  0.
        -24    2    3    3    0    0  0.24398323733E+02  0.19340865644E+02 -0.81757253574E+01  0.86340585163E+02  0.80115584479E+02 0.  0.
          6    2    1    2  501    0 -0.11732029808E+03 -0.54467492140E+02  0.12131227757E+04  0.12320932354E+04  0.17220949999E+03 0.  0.
         24    2    5    5    0    0 -0.11180300565E+03  0.16575207898E+02  0.67880372380E+03  0.69302325395E+03  0.82049286832E+02 0.  0.
          5    1    5    5  501    0 -0.55172924274E+01 -0.71042700038E+02  0.53431905185E+03  0.53906998147E+03  0.47000000000E+01 0. -1.
        -13    1    6    6    0    0 -0.86566934458E+02  0.46683383862E+02  0.42753166587E+03  0.43869864120E+03  0.00000000000E+00 0.  1.
         14    1    6    6    0    0 -0.25236071191E+02 -0.30108175964E+02  0.25127205793E+03  0.25432461274E+03  0.00000000000E+00 0. -1.
         -5    1    3    3    0  503  0.92921974344E+02  0.35126626495E+02  0.11995840515E+03  0.15582195664E+03  0.47000000000E+01 0.  1.
         13    1    4    4    0    0  0.51974948975E+02  0.17565608026E+01  0.21334133266E+01  0.52048364808E+02  0.00000000000E+00 0. -1.
        -14    1    4    4    0    0 -0.27576625242E+02  0.17584304842E+02 -0.10309138684E+02  0.34292220355E+02  0.00000000000E+00 0.  1.
</event>
<event>
12    1  0.8133495E-002  0.2517105E+03  0.7818608E-02  0.1113122E+00
         21   -1    0    0  501  502  0.00000000000E+00  0.00000000000E+00  0.17912912376E+03  0.17912912376E+03  0.00000000000E+00 0. -1.
         21   -1    0    0  502  503 -0.00000000000E+00 -0.00000000000E+00 -0.45786772968E+03  0.45786772968E+03  0.00000000000E+00 0. -1.
         -6    2    1    2    0  503  0.15881178334E+03 -0.77206409598E+02 -0.29810820070E+03  0.39016239740E+03  0.17937721373E+03 0.  0.
        -24    2    3    3    0    0  0.17712882680E+03 -0.91774652159E+02 -0.29651735867E+03  0.36623817221E+03  0.80066514377E+02 0.  0.
          6    2    1    2  501    0 -0.15881178334E+03  0.77206409598E+02  0.19369594780E+02  0.24683445604E+03  0.17137693916E+03 0.  0.
         24    2    5    5    0    0 -0.78151906694E+01  0.47758753888E+02  0.10752345061E+01  0.91837975297E+02  0.78045382946E+02 0.  0.
          5    1    5    5  501    0 -0.15099659267E+03  0.29447655710E+02  0.18294360274E+02  0.15499648074E+03  0.47000000000E+01 0. -1.
        -13    1    6    6    0    0  0.26744082077E+01  0.29298775742E+02 -0.37585347644E+02  0.47730797990E+02  0.00000000000E+00 0.  1.
         14    1    6    6    0    0 -0.10489598877E+02  0.18459978146E+02  0.38660582150E+02  0.44107177307E+02  0.00000000000E+00 0. -1.
         -5    1    3    3    0  503 -0.18317043465E+02  0.14568242560E+02 -0.15908420298E+01  0.23924225190E+02  0.47000000000E+01 0.  1.
         13    1    4    4    0    0  0.12742496128E+03 -0.36291791041E+02 -0.23436844830E+03  0.26922626992E+03  0.00000000000E+00 0. -1.
        -14    1    4    4    0    0  0.49703865524E+02 -0.55482861117E+02 -0.62148910370E+02  0.97011902290E+02  0.00000000000E+00 0.  1.
</event>
<event>
12    1  0.8133495E-002  0.1873768E+03  0.7818608E-02  0.1163489E+00
         21   -1    0    0  503  502  0.00000000000E+00  0.00000000000E+00  0.42109710670E+03  0.42109710670E+03  0.00000000000E+00 0.  1.
         21   -1    0    0  501  503 -0.00000000000E+00 -0.00000000000E+00 -0.10648119304E+03  0.10648119304E+03  0.00000000000E+00 0.  1.
          6    2    1    2  501    0  0.11696539800E+02  0.33195808133E+02  0.25676962292E+02  0.18912795746E+03  0.18404159089E+03 0.  0.
         24    2    3    3    0    0  0.10770148469E+02  0.18660178740E+02 -0.58192439914E+02  0.10387357722E+03  0.83301630316E+02 0.  0.
         -6    2    1    2    0  502 -0.11696539800E+02 -0.33195808133E+02  0.28893895137E+03  0.33845034228E+03  0.17269668743E+03 0.  0.
        -24    2    5    5    0    0 -0.53120612438E+02 -0.59737400372E+02  0.12366009587E+03  0.16594063244E+03  0.76512206318E+02 0.  0.
          5    1    3    3  501    0  0.92639133051E+00  0.14535629393E+02  0.83869402206E+02  0.85254380234E+02  0.47000000000E+01 0. -1.
        -13    1    4    4    0    0 -0.19954726137E+02  0.40935989621E+02 -0.44092784292E+02  0.63388642264E+02  0.00000000000E+00 0.  1.
         14    1    4    4    0    0  0.30724874606E+02 -0.22275810881E+02 -0.14099655623E+02  0.40484934959E+02  0.00000000000E+00 0. -1.
         -5    1    5    5    0  502  0.41424072638E+02  0.26541592239E+02  0.16527885550E+03  0.17250970984E+03  0.47000000000E+01 0.  1.
         11    1    6    6    0    0  0.11918400182E+02 -0.33082944954E+02  0.19287058918E+02  0.40106360486E+02  0.00000000000E+00 0. -1.
        -12    1    6    6    0    0 -0.65039012619E+02 -0.26654455419E+02  0.10437303695E+03  0.12583427196E+03  0.00000000000E+00 0.  1.
</event>
<event>
12    1  0.8133495E-002  0.1916829E+03  0.7818608E-02  0.1157113E+00
         21   -1    0    0  501  502  0.00000000000E+00  0.00000000000E+00  0.11135442323E+04  0.11135442323E+04  0.00000000000E+00 0. -1.
         21   -1    0    0  502  503 -0.00000000000E+00 -0.00000000000E+00 -0.68153173167E+02  0.68153173167E+02  0.00000000000E+00 0.  1.
         -6    2    1    2    0  503  0.39509935298E+02 -0.73972198641E+02  0.98056803929E+02  0.21530783336E+03  0.17236416434E+03 0.  0.
        -24    2    3    3    0    0  0.52197955405E+02  0.15935785921E+02  0.25957753190E+02  0.99269931534E+02  0.78753657278E+02 0.  0.
          6    2    1    2  501    0 -0.39509935298E+02  0.73972198641E+02  0.94733425516E+03  0.96638957206E+03  0.17156250417E+03 0.  0.
         24    2    5    5    0    0  0.30045924514E+02  0.28247590870E+01  0.32964155746E+03  0.34071686643E+03  0.80707433477E+02 0.  0.
          5    1    5    5  501    0 -0.69555859812E+02  0.71147439554E+02  0.61769269769E+03  0.62567270563E+03  0.47000000000E+01 0. -1.
        -13    1    6    6    0    0  0.27680040705E+02 -0.62299108612E+01  0.33012857300E+03  0.33134554645E+03  0.00000000000E+00 0.  1.
         14    1    6    6    0    0  0.23658838084E+01  0.90546699482E+01 -0.48701553168E+00  0.93713199814E+01  0.00000000000E+00 0. -1.
         -5    1    3    3    0  503 -0.12688020107E+02 -0.89907984562E+02  0.72099050738E+02  0.11603790182E+03  0.47000000000E+01 0.  1.
         13    1    4    4    0    0 -0.16904211659E+01  0.24691665962E+02  0.36071735934E+02  0.43745925810E+02  0.00000000000E+00 0. -1.
        -14    1    4    4    0    0  0.53888376571E+02 -0.87558800407E+01 -0.10113982743E+02  0.55524005725E+02  0.00000000000E+00 0.  1.
</event>
<event>
12    1  0.8133495E-002  0.2003022E+03  0.7818608E-02  0.1149488E+00
         21   -1    0    0  501  502  0.00000000000E+00  0.00000000000E+00  0.51281617190E+03  0.51281617190E+03  0.00000000000E+00 0. -1.
         21   -1    0    0  502  503 -0.00000000000E+00 -0.00000000000E+00 -0.89583840629E+02  0.89583840629E+02  0.00000000000E+00 0. -1.
         -6    2    1    2    0  503 -0.48129199227E+02  0.91913478895E+02  0.10439652088E+03  0.22587520270E+03  0.17133728784E+03 0.  0.
        -24    2    3    3    0    0  0.45848287856E+01  0.11228840674E+03  0.48099589192E+02  0.14596687428E+03  0.79768734235E+02 0.  0.
          6    2    1    2  501    0  0.48129199227E+02 -0.91913478895E+02  0.31883581039E+03  0.37652480983E+03  0.17131885771E+03 0.  0.
         24    2    5    5    0    0  0.73709271541E+01 -0.94199232916E+02  0.11826503834E+03  0.17178793964E+03  0.81219768912E+02 0.  0.
          5    1    5    5  501    0  0.40758272073E+02  0.22857540215E+01  0.20057077205E+03  0.20473687019E+03  0.47000000000E+01 0. -1.
        -11    1    6    6    0    0 -0.30930992458E+02 -0.17511057258E+02  0.54017019645E+02  0.64662213325E+02  0.00000000000E+00 0.  1.
         12    1    6    6    0    0  0.38301919612E+02 -0.76688175659E+02  0.64248018694E+02  0.10712572631E+03  0.00000000000E+00 0. -1.
         -5    1    3    3    0  503 -0.52714028012E+02 -0.20374927850E+02  0.56296931687E+02  0.79908328424E+02  0.47000000000E+01 0.  1.
         11    1    4    4    0    0  0.80329087752E+01  0.66598879763E+02 -0.14263245646E+02  0.68581182444E+02  0.00000000000E+00 0. -1.
        -12    1    4    4    0    0 -0.34480799896E+01  0.45689526982E+02  0.62362834838E+02  0.77385691833E+02  0.00000000000E+00 0.  1.
</event>
<event>
12    1  0.8133495E-002  0.2144699E+03  0.7818608E-02  0.1140066E+00
         21   -1    0    0  501  502  0.00000000000E+00  0.00000000000E+00  0.36829133565E+03  0.36829133565E+03  0.00000000000E+00 0. -1.
         21   -1    0    0  502  503 -0.00000000000E+00 -0.00000000000E+00 -0.12493862150E+03  0.12493862150E+03  0.00000000000E+00 0. -1.
         -6    2    1    2    0  503  0.10517658227E+03 -0.32269588157E+02  0.71152715776E+02  0.22596474294E+03  0.18410300463E+03 0.  0.
        -24    2    3    3    0    0  0.10812671961E+03  0.29278467360E+02  0.87103871614E+02  0.16214158241E+03  0.78448659324E+02 0.  0.
          6    2    1    2  501    0 -0.10517658227E+03  0.32269588157E+02  0.17219999837E+03  0.26726521421E+03  0.17226263527E+03 0.  0.
         24    2    5    5    0    0 -0.27694164203E+02  0.25241073135E+02  0.16967157488E+03  0.18928183099E+03  0.75067234635E+02 0.  0.
          5    1    5    5  501    0 -0.77482418071E+02  0.70285150227E+01  0.25284234914E+01  0.77983383223E+02  0.47000000000E+01 0. -1.
        -11    1    6    6    0    0 -0.24595198357E+02 -0.69354537261E+01  0.14840292448E+03  0.15058702565E+03  0.00000000000E+00 0.  1.
         12    1    6    6    0    0 -0.30989658458E+01  0.32176526861E+02  0.21268650403E+02  0.38694805338E+02  0.00000000000E+00 0. -1.
         -5    1    3    3    0  503 -0.29501373391E+01 -0.61548055518E+02 -0.15951155839E+02  0.63823160537E+02  0.47000000000E+01 0.  1.
         11    1    4    4    0    0  0.33943466502E+02 -0.24002486844E+02  0.45944864786E+02  0.61961349994E+02  0.00000000000E+00 0. -1.
        -12    1    4    4    0    0  0.74183253110E+02  0.53280954204E+02  0.41159006829E+02  0.10018023241E+03  0.00000000000E+00 0.  1.
</event>
<event>
12    1  0.8133495E-002  0.1797632E+03  0.7818608E-02  0.1168657E+00
         21   -1    0    0  503  502  0.00000000000E+00  0.00000000000E+00  0.31812794537E+02  0.31812794537E+02  0.00000000000E+00 0.  1.
         21   -1    0    0  501  503 -0.00000000000E+00 -0.00000000000E+00 -0.10481900997E+04  0.10481900997E+04  0.00000000000E+00 0.  1.
          6    2    1    2  501    0 -0.30211010197E+02 -0.30381822937E+02 -0.39756629990E+03  0.43631842425E+03  0.17458248544E+03 0.  0.
         24    2    3    3    0    0  0.15398191066E+02 -0.45711306276E+02 -0.36580013368E+03  0.37847059269E+03  0.84282999025E+02 0.  0.
         -6    2    1    2    0  502  0.30211010197E+02  0.30381822937E+02 -0.61881100525E+03  0.64368446998E+03  0.17195021479E+03 0.  0.
        -24    2    5    5    0    0 -0.51838913146E+02  0.11652369509E+02 -0.34231584662E+03  0.35462626633E+03  0.75872256423E+02 0.  0.
          5    1    3    3  501    0 -0.45609201263E+02  0.15329483339E+02 -0.31766166220E+02  0.57847831555E+02  0.47000000000E+01 0. -1.
        -13    1    4    4    0    0 -0.30102539611E+02  0.32196515538E+01 -0.11071736933E+03  0.11478181441E+03  0.00000000000E+00 0.  1.
         14    1    4    4    0    0  0.45500730677E+02 -0.48930957830E+02 -0.25508276435E+03  0.26368877828E+03  0.00000000000E+00 0. -1.
         -5    1    5    5    0  502  0.82049923342E+02  0.18729453428E+02 -0.27649515863E+03  0.28905820364E+03  0.47000000000E+01 0.  1.
         13    1    6    6    0    0 -0.33141314180E+02 -0.26344063311E+02 -0.24297589711E+03  0.24663666182E+03  0.00000000000E+00 0. -1.
        -14    1    6    6    0    0 -0.18697598965E+02  0.37996432821E+02 -0.99339949509E+02  0.10798960451E+03  0.00000000000E+00 0.  1.
</event>
<event>
12    1  0.8133495E-002  0.1784998E+03  0.7818608E-02  0.1169711E+00
         21   -1    0    0  501  502  0.00000000000E+00  0.00000000000E+00  0.18603716116E+02  0.18603716116E+02  0.00000000000E+00 0.  1.
         21   -1    0    0  502  503 -0.00000000000E+00 -0.00000000000E+00 -0.17765746079E+04  0.17765746079E+04  0.00000000000E+00 0.  1.
         -6    2    1    2    0  503 -0.37015169485E+02 -0.16987590015E+02 -0.10753474545E+04  0.10900616095E+04  0.17379143733E+03 0.  0.
        -24    2    3    3    0    0  0.13120404387E+02  0.10349586692E+02 -0.93609230895E+03  0.93947946397E+03  0.77933262474E+02 0.  0.
          6    2    1    2  501    0  0.37015169485E+02  0.16987590015E+02 -0.68262343734E+03  0.70511671454E+03  0.17191894291E+03 0.  0.
         24    2    5    5    0    0 -0.37646125210E+02  0.20102452349E+02 -0.24915408337E+03  0.26522833992E+03  0.80293061366E+02 0.  0.
          5    1    5    5  501    0  0.74661294695E+02 -0.31148623336E+01 -0.43346935398E+03  0.43988837463E+03  0.47000000000E+01 0. -1.
        -13    1    6    6    0    0 -0.15214055260E+02 -0.29638522316E+02 -0.63326180273E+02  0.71554976001E+02  0.00000000000E+00 0.  1.
         14    1    6    6    0    0 -0.22432069950E+02  0.49740974664E+02 -0.18582790309E+03  0.19367336392E+03  0.00000000000E+00 0. -1.
         -5    1    3    3    0  503 -0.50135573871E+02 -0.27337176707E+02 -0.13925514551E+03  0.15058214552E+03  0.47000000000E+01 0.  1.
         13    1    4    4    0    0 -0.22121821937E+01 -0.62946015914E+01 -0.55962451337E+01  0.87082557869E+01  0.00000000000E+00 0. -1.
        -14    1    4    4    0    0  0.15332586580E+02  0.16644188284E+02 -0.93049606381E+03  0.93077120818E+03  0.00000000000E+00 0.  1.
</event>
<event>
12    1  0.8133495E-002  0.2551768E+03  0.7818608E-02  0.1110323E+00
         21   -1    0    0  501  502  0.00000000000E+00  0.00000000000E+00  0.21793050321E+03  0.21793050321E+03  0.00000000000E+00 0.  1.
         21   -1    0    0  502  503 -0.00000000000E+00 -0.00000000000E+00 -0.39558396218E+03  0.39558396218E+03  0.00000000000E+00 0. -1.
         -6    2    1    2    0  503 -0.42273467457E+01  0.18637389654E+03 -0.24223481369E+03  0.35184212832E+03  0.17424717651E+03 0.  0.
        -24    2    3    3    0    0  0.28657158385E+02  0.87941642328E+02 -0.45641312590E+02  0.12948791985E+03  0.78288101206E+02 0.  0.
          6    2    1    2  501    0  0.42273467457E+01 -0.18637389654E+03  0.64581354718E+02  0.26167233707E+03  0.17189694831E+03 0.  0.
         24    2    5    5    0    0  0.30038755005E+01 -0.16844545425E+03  0.10715583280E+03  0.21522234129E+03  0.80345437698E+02 0.  0.
          5    1    5    5  501    0  0.12234712451E+01 -0.17928442291E+02 -0.42574478081E+02  0.46449995789E+02  0.47000000000E+01 0. -1.
        -11    1    6    6    0    0 -0.22139688601E+02 -0.69476076435E+01  0.12952694704E+02  0.26574562337E+02  0.00000000000E+00 0.  1.
         12    1    6    6    0    0  0.25143564101E+02 -0.16149784661E+03  0.94203138095E+02  0.18864777895E+03  0.00000000000E+00 0. -1.
         -5    1    3    3    0  503 -0.32884505131E+02  0.98432254215E+02 -0.19659350110E+03  0.22235420847E+03  0.47000000000E+01 0.  1.
         11    1    4    4    0    0 -0.21099670818E+02  0.89225865693E+01 -0.24894898756E+02  0.33831415043E+02  0.00000000000E+00 0. -1.
        -12    1    4    4    0    0  0.49756829203E+02  0.79019055759E+02 -0.20746413834E+02  0.95656504809E+02  0.00000000000E+00 0.  1.
</event>
<event>
12    1  0.8133495E-002  0.2180462E+03  0.7818608E-02  0.1135998E+00
         21   -1    0    0  503  502  0.00000000000E+00  0.00000000000E+00  0.58013929541E+03  0.58013929541E+03  0.00000000000E+00 0.  1.
         21   -1    0    0  501  503 -0.00000000000E+00 -0.00000000000E+00 -0.14840294908E+03  0.14840294908E+03  0.00000000000E+00 0. -1.
          6    2    1    2  501    0 -0.13418376201E+03  0.15766768382E+02 -0.31145948078E+02  0.21687422812E+03  0.16676476778E+03 0.  0.
         24    2    3    3    0    0 -0.11581036680E+03  0.18174287128E+02  0.45614959042E+02  0.13776857308E+03  0.56188161288E+02 0.  0.
         -6    2    1    2    0  502  0.13418376201E+03 -0.15766768382E+02  0.46288229440E+03  0.51166801637E+03  0.17114399647E+03 0.  0.
        -24    2    5    5    0    0  0.92834428611E+02  0.18775043047E+02  0.43233957065E+03  0.44955640648E+03  0.78820840346E+02 0.  0.
          5    1    3    3  501    0 -0.18373395204E+02 -0.24075187460E+01 -0.76760907120E+02  0.79105655043E+02  0.47000000000E+01 0. -1.
        -11    1    4    4    0    0 -0.11778602604E+03  0.24956727652E+02  0.35676959586E+02  0.12557560125E+03  0.00000000000E+00 0.  1.
         12    1    4    4    0    0  0.19756592329E+01 -0.67824405239E+01  0.99379994555E+01  0.12192971830E+02  0.00000000000E+00 0. -1.
         -5    1    5    5    0  502  0.41349333395E+02 -0.34541811429E+02  0.30542723750E+02  0.62111609890E+02  0.47000000000E+01 0.  1.
         11    1    6    6    0    0  0.10425252070E+03  0.82844697858E+01  0.33365435527E+03  0.34966047718E+03  0.00000000000E+00 0. -1.
        -12    1    6    6    0    0 -0.11418092087E+02  0.10490573261E+02  0.98685215386E+02  0.99895929297E+02  0.00000000000E+00 0.  1.
</event>
<event>
12    1  0.8133495E-002  0.2195968E+03  0.7818608E-02  0.1134382E+00
         21   -1    0    0  503  502  0.00000000000E+00  0.00000000000E+00  0.21623671468E+03  0.21623671468E+03  0.00000000000E+00 0. -1.
         21   -1    0    0  501  503 -0.00000000000E+00 -0.00000000000E+00 -0.22319884770E+03  0.22319884770E+03  0.00000000000E+00 0. -1.
          6    2    1    2  501    0 -0.13700504591E+03  0.20771938141E+01  0.13063475579E+02  0.21892760643E+03  0.17024671840E+03 0.  0.
         24    2    3    3    0    0 -0.22412537780E+02  0.33798473241E+02  0.30556420530E+02  0.98653853639E+02  0.84582677654E+02 0.  0.
         -6    2    1    2    0  502  0.13700504591E+03 -0.20771938141E+01 -0.20025608606E+02  0.22050795595E+03  0.17160430152E+03 0.  0.
        -24    2    5    5    0    0  0.77905052361E+01  0.10758954144E+02  0.22841761097E+02  0.83683741717E+02  0.79402616530E+02 0.  0.
          5    1    3    3  501    0 -0.11459250813E+03 -0.31721279427E+02 -0.17492944951E+02  0.12027375279E+03  0.47000000000E+01 0. -1.
        -11    1    4    4    0    0 -0.41756248814E+02 -0.11743433221E+02  0.73193856515E+01  0.43989384459E+02  0.00000000000E+00 0.  1.
         12    1    4    4    0    0  0.19343711034E+02  0.45541906462E+02  0.23237034879E+02  0.54664469180E+02  0.00000000000E+00 0. -1.
         -5    1    5    5    0  502  0.12921454067E+03 -0.12836147958E+02 -0.42867369702E+02  0.13682421423E+03  0.47000000000E+01 0.  1.
         13    1    6    6    0    0  0.25779431179E+02 -0.27715334978E+02  0.79538115876E+01  0.38677926309E+02  0.00000000000E+00 0. -1.
        -14    1    6    6    0    0 -0.17988925943E+02  0.38474289121E+02  0.14887949509E+02  0.45005815408E+02  0.00000000000E+00 0.  1.
</event>
<event>
12    1  0.8133495E-002  0.1930657E+03  0.7818608E-02  0.1156425E+00
         21   -1    0    0  503  502  0.00000000000E+00  0.00000000000E+00  0.80550824908E+03  0.80550824908E+03  0.00000000000E+00 0. -1.
         21   -1    0    0  501  503 -0.00000000000E+00 -0.00000000000E+00 -0.95152083762E+02  0.95152083762E+02  0.00000000000E+00 0. -1.
          6    2    1    2  501    0 -0.17553315289E+02 -0.85446285595E+02  0.28565427266E+02  0.19206101774E+03  0.16870762964E+03 0.  0.
         24    2    3    3    0    0 -0.61878139992E+02 -0.55145096678E+02 -0.23533059047E+02  0.11709973166E+03  0.79301049107E+02 0.  0.
         -6    2    1    2    0  502  0.17553315289E+02  0.85446285595E+02  0.68179073805E+03  0.70859931510E+03  0.17223586233E+03 0.  0.
        -24    2    5    5    0    0  0.59816391120E+02  0.10127368055E+03  0.57983793995E+03  0.59700569051E+03  0.79808513796E+02 0.  0.
          5    1    3    3  501    0  0.44324824703E+02 -0.30301188917E+02  0.52098486313E+02  0.74961286080E+02  0.47000000000E+01 0. -1.
        -11    1    4    4    0    0  0.34631048503E+01 -0.12481432493E+02  0.22888730826E+02  0.26299681578E+02  0.00000000000E+00 0.  1.
         12    1    4    4    0    0 -0.65341244842E+02 -0.42663664186E+02 -0.46421789874E+02  0.90800050079E+02  0.00000000000E+00 0. -1.
         -5    1    5    5    0  502 -0.42263075831E+02 -0.15827394953E+02  0.10195279810E+03  0.11159362459E+03  0.47000000000E+01 0.  1.
         11    1    6    6    0    0  0.62737622184E+01  0.86319183770E+02  0.35184367275E+03  0.36233179771E+03  0.00000000000E+00 0. -1.
        -12    1    6    6    0    0  0.53542628902E+02  0.14954496778E+02  0.22799426721E+03  0.23467389280E+03  0.00000000000E+00 0.  1.
</event>
<event>
12    1  0.8133495E-002  0.2943438E+03  0.7818608E-02  0.1088993E+00
         21   -1    0    0  503  502  0.00000000000E+00  0.00000000000E+00  0.90654978090E+03  0.90654978090E+03  0.00000000000E+00 0. -1.
         21   -1    0    0  501  503 -0.00000000000E+00 -0.00000000000E+00 -0.38294668883E+03  0.38294668883E+03  0.00000000000E+00 0.  1.
          6    2    1    2  501    0 -0.53141426817E+02 -0.22581117753E+03 -0.29962338473E+03  0.41523099251E+03  0.16978782443E+03 0.  0.
         24    2    3    3    0    0  0.25875310794E+02 -0.63642224149E+02 -0.13580789110E+03  0.17150979890E+03  0.79069358354E+02 0.  0.
         -6    2    1    2    0  502  0.53141426817E+02  0.22581117753E+03  0.82322647680E+03  0.87426547722E+03  0.18117282744E+03 0.  0.
        -24    2    5    5    0    0  0.19279742400E+01  0.19377986962E+03  0.75288612041E+03  0.78142864105E+03  0.78986427948E+02 0.  0.
          5    1    3    3  501    0 -0.79016737610E+02 -0.16216895338E+03 -0.16381549363E+03  0.24372119361E+03  0.47000000000E+01 0. -1.
        -11    1    4    4    0    0  0.53075489825E+02 -0.48356699811E+02 -0.79417628084E+02  0.10706324153E+03  0.00000000000E+00 0.  1.
         12    1    4    4    0    0 -0.27200179032E+02 -0.15285524338E+02 -0.56390263017E+02  0.64446557369E+02  0.00000000000E+00 0. -1.
         -5    1    5    5    0  502  0.51213452577E+02  0.32031307908E+02  0.70340356398E+02  0.92836836166E+02  0.47000000000E+01 0.  1.
         11    1    6    6    0    0 -0.22346469253E+01  0.98968426267E+02  0.23630882336E+03  0.25620617292E+03  0.00000000000E+00 0. -1.
        -12    1    6    6    0    0  0.41626211653E+01  0.94811443355E+02  0.51657729705E+03  0.52522246813E+03  0.00000000000E+00 0.  1.
</event>
<event>
12    1  0.8133495E-002  0.2165038E+03  0.7818608E-02  0.1136591E+00
         21   -1    0    0  501  502  0.00000000000E+00  0.00000000000E+00  0.13414816396E+04  0.13414816396E+04  0.00000000000E+00 0. -1.
         21   -1    0    0  502  503 -0.00000000000E+00 -0.00000000000E+00 -0.61889054453E+02  0.61889054453E+02  0.00000000000E+00 0.  1.
         -6    2    1    2    0  503 -0.23840898748E+02 -0.12916842340E+03  0.17656938809E+03  0.27937541644E+03  0.17210753745E+03 0.  0.
        -24    2    3    3    0    0 -0.43083327912E+02 -0.61303445297E+02  0.17937400187E+03  0.20862315717E+03  0.75725184796E+02 0.  0.
          6    2    1    2  501    0  0.23840898748E+02  0.12916842340E+03  0.11030231970E+04  0.11239952776E+04  0.17161684295E+03 0.  0.
         24    2    5    5    0    0  0.33711941817E+02  0.31800703578E+02  0.26456052856E+03  0.27982725712E+03  0.78506310485E+02 0.  0.
          5    1    5    5  501    0 -0.98710430691E+01  0.97367719824E+02  0.83846266849E+03  0.84416802048E+03  0.47000000000E+01 0. -1.
        -11    1    6    6    0    0 -0.24607811391E+02  0.13079492050E+02  0.57500081833E+02  0.63897393566E+02  0.00000000000E+00 0.  1.
         12    1    6    6    0    0  0.58319753208E+02  0.18721211529E+02  0.20706044673E+03  0.21592986355E+03  0.00000000000E+00 0. -1.
         -5    1    3    3    0  503  0.19242429165E+02 -0.67864978106E+02 -0.28046137819E+01  0.70752259271E+02  0.47000000000E+01 0.  1.
         13    1    4    4    0    0 -0.55825990961E+02 -0.20672726291E+02  0.74017583690E+02  0.94986870537E+02  0.00000000000E+00 0. -1.
        -14    1    4    4    0    0  0.12742663049E+02 -0.40630719006E+02  0.10535641818E+03  0.11363628664E+03  0.00000000000E+00 0.  1.
</event>
<event>
12    1  0.8133495E-002  0.1877592E+03  0.7818608E-02  0.1160566E+00
         21   -1    0    0  501  502  0.00000000000E+00  0.00000000000E+00  0.11443993708E+03  0.11443993708E+03  0.00000000000E+00 0. -1.
         21   -1    0    0  502  503 -0.00000000000E+00 -0.00000000000E+00 -0.33251765961E+03  0.33251765961E+03  0.00000000000E+00 0. -1.
         -6    2    1    2    0  503 -0.62256989085E+02  0.39977660548E+02 -0.17017562291E+03  0.25318424756E+03  0.17224510021E+03 0.  0.
        -24    2    3    3    0    0 -0.10762643117E+03  0.16471958269E+02 -0.11453695945E+03  0.17749636751E+03  0.80817518526E+02 0.  0.
          6    2    1    2  501    0  0.62256989085E+02 -0.39977660548E+02 -0.47902099615E+02  0.19377334913E+03  0.17256695411E+03 0.  0.
         24    2    5    5    0    0 -0.30575375940E+02 -0.12826367616E+02 -0.40735727376E+02  0.96672949565E+02  0.81159659763E+02 0.  0.
          5    1    5    5  501    0  0.92832365025E+02 -0.27151292932E+02 -0.71663722387E+01  0.97100399562E+02  0.47000000000E+01 0. -1.
        -11    1    6    6    0    0 -0.13887565550E+02 -0.45612255315E+02 -0.99595222428E+01  0.48708668583E+02  0.00000000000E+00 0.  1.
         12    1    6    6    0    0 -0.16687810390E+02  0.32785887699E+02 -0.30776205133E+02  0.47964280983E+02  0.00000000000E+00 0. -1.
         -5    1    3    3    0  503  0.45369442090E+02  0.23505702279E+02 -0.55638663459E+02  0.75687880051E+02  0.47000000000E+01 0.  1.
         13    1    4    4    0    0 -0.57939488181E+02 -0.14424966869E+02 -0.10117583729E+03  0.11748027073E+03  0.00000000000E+00 0. -1.
        -14    1    4    4    0    0 -0.49686942993E+02  0.30896925137E+02 -0.13361122168E+02  0.60016096778E+02  0.00000000000E+00 0.  1.
</event>
<event>
12    1  0.8133495E-002  0.3040899E+03  0.7818608E-02  0.1083239E+00
         21   -1    0    0  503  502  0.00000000000E+00  0.00000000000E+00  0.16901412222E+03  0.16901412222E+03  0.00000000000E+00 0.  1.
         21   -1    0    0  501  503 -0.00000000000E+00 -0.00000000000E+00 -0.62034916166E+03  0.62034916166E+03  0.00000000000E+00 0. -1.
          6    2    1    2  501    0  0.74195153940E+02 -0.23997754069E+03 -0.36168640420E+03  0.47253327613E+03  0.17139574432E+03 0.  0.
         24    2    3    3    0    0  0.93541131618E+01 -0.31319581314E+02 -0.10260866655E+03  0.13358509614E+03  0.79044442260E+02 0.  0.
         -6    2    1    2    0  502 -0.74195153940E+02  0.23997754069E+03 -0.89648635246E+02  0.31683000774E+03  0.17102700109E+03 0.  0.
        -24    2    5    5    0    0 -0.91786180334E+02  0.10672581704E+03 -0.85040905982E+02  0.18226111374E+03  0.78562427203E+02 0.  0.
          5    1    3    3  501    0  0.64841040778E+02 -0.20865795937E+03 -0.25907773765E+03  0.33894818000E+03  0.47000000000E+01 0. -1.
        -11    1    4    4    0    0 -0.19021113942E+02  0.51092274158E+00  0.33928751514E+01  0.19328099220E+02  0.00000000000E+00 0.  1.
         12    1    4    4    0    0  0.28375227104E+02 -0.31830504056E+02 -0.10600154170E+03  0.11425699692E+03  0.00000000000E+00 0. -1.
         -5    1    5    5    0  502  0.17591026395E+02  0.13325172365E+03 -0.46077292634E+01  0.13456889400E+03  0.47000000000E+01 0.  1.
         11    1    6    6    0    0  0.13554191733E+00 -0.10335969567E+02  0.92769925997E+00  0.10378403751E+02  0.00000000000E+00 0. -1.
        -12    1    6    6    0    0 -0.91921722252E+02  0.11706178661E+03 -0.85968605242E+02  0.17188270999E+03  0.00000000000E+00 0.  1.
</event>
<event>
12    1  0.8133495E-002  0.2182153E+03  0.7818608E-02  0.1135895E+00
         21   -1    0    0  503  502  0.00000000000E+00  0.00000000000E+00  0.51834720569E+03  0.51834720569E+03  0.00000000000E+00 0. -1.
         21   -1    0    0  501  503 -0.00000000000E+00 -0.00000000000E+00 -0.12536535577E+03  0.12536535577E+03  0.00000000000E+00 0.  1.
          6    2    1    2  501    0 -0.78624253611E+02 -0.10256361056E+03  0.27621905612E+02  0.21995658531E+03  0.17583191486E+03 0.  0.
         24    2    3    3    0    0 -0.14379033432E+02 -0.12562406095E+03  0.20969943088E+02  0.15121379446E+03  0.80235352741E+02 0.  0.
         -6    2    1    2    0  502  0.78624253611E+02  0.10256361056E+03  0.36535994431E+03  0.42375597615E+03  0.17140644956E+03 0.  0.
        -24    2    5    5    0    0  0.11559280676E+03  0.71230307564E+02  0.32130486293E+03  0.35809480045E+03  0.80991465485E+02 0.  0.
          5    1    3    3  501    0 -0.64245220179E+02  0.23060450395E+02  0.66519625248E+01  0.68742790849E+02  0.47000000000E+01 0. -1.
        -11    1    4    4    0    0  0.18637506854E+02 -0.11422451357E+02 -0.15580043537E+02  0.26843375595E+02  0.00000000000E+00 0.  1.
         12    1    4    4    0    0 -0.33016540286E+02 -0.11420160959E+03  0.36549986624E+02  0.12437041886E+03  0.00000000000E+00 0. -1.
         -5    1    5    5    0  502 -0.36968553149E+02  0.31333302991E+02  0.44055081382E+02  0.65661175696E+02  0.47000000000E+01 0.  1.
         13    1    6    6    0    0  0.11203863674E+03  0.87049855752E+02  0.28901694621E+03  0.32196448361E+03  0.00000000000E+00 0. -1.
        -14    1    6    6    0    0  0.35541700177E+01 -0.15819548187E+02  0.32287916719E+02  0.36130316846E+02  0.00000000000E+00 0.  1.
</event>
<event>
12    1  0.8133495E-002  0.1775585E+03  0.7818608E-02  0.1170493E+00
         21   -1    0    0  501  502  0.00000000000E+00  0.00000000000E+00  0.14077400103E+03  0.14077400103E+03  0.00000000000E+00 0.  1.
         21   -1    0    0  502  503 -0.00000000000E+00 -0.00000000000E+00 -0.26052452527E+03  0.26052452527E+03  0.00000000000E+00 0.  1.
         -6    2    1    2    0  503  0.11208527533E+02  0.40028206743E+02 -0.13681548834E+03  0.22415508603E+03  0.17262426341E+03 0.  0.
        -24    2    3    3    0    0 -0.54127727885E+02  0.15678763858E+02 -0.43867628350E+02  0.10786615140E+03  0.80839985392E+02 0.  0.
          6    2    1    2  501    0 -0.11208527533E+02 -0.40028206743E+02  0.17064964099E+02  0.17714344028E+03  0.17134963382E+03 0.  0.
         24    2    5    5    0    0 -0.28124081980E+02 -0.87650431546E+02  0.25906446694E+02  0.12562379265E+03  0.81465521307E+02 0.  0.
          5    1    5    5  501    0  0.16915554447E+02  0.47622224804E+02 -0.88414825945E+01  0.51519647630E+02  0.47000000000E+01 0. -1.
        -11    1    6    6    0    0  0.23915925417E+02 -0.54903711151E+02  0.22733144535E+02  0.64056107025E+02  0.00000000000E+00 0.  1.
         12    1    6    6    0    0 -0.52040007397E+02 -0.32746720395E+02  0.31733021586E+01  0.61567685624E+02  0.00000000000E+00 0. -1.
         -5    1    3    3    0  503  0.65336255419E+02  0.24349442885E+02 -0.92947859988E+02  0.11628893463E+03  0.47000000000E+01 0.  1.
         13    1    4    4    0    0  0.12760558631E+02  0.90451133405E+01  0.12595045844E+02  0.20081860266E+02  0.00000000000E+00 0. -1.
        -14    1    4    4    0    0 -0.66888286517E+02  0.66336505175E+01 -0.56462674195E+02  0.87784291132E+02  0.00000000000E+00 0.  1.
</event>
<event>
12    1  0.8133495E-002  0.1777582E+03  0.7818608E-02  0.1170058E+00
         21   -1    0    0  501  502  0.00000000000E+00  0.00000000000E+00  0.18249433699E+03  0.18249433699E+03  0.00000000000E+00 0. -1.
         21   -1    0    0  502  503 -0.00000000000E+00 -0.00000000000E+00 -0.49418737958E+03  0.49418737958E+03  0.00000000000E+00 0. -1.
         -6    2    1    2    0  503  0.44053922876E+02  0.67502495349E+01 -0.42870458504E+03  0.46409654914E+03  0.17208042219E+03 0.  0.
        -24    2    3    3    0    0 -0.24978636341E+02  0.30653756069E+02 -0.32575608429E+03  0.33777412174E+03  0.80067133292E+02 0.  0.
          6    2    1    2  501    0 -0.44053922876E+02 -0.67502495349E+01  0.11701154246E+03  0.21258516743E+03  0.17179766691E+03 0.  0.
         24    2    5    5    0    0 -0.23928912537E+02 -0.64212877533E+02  0.37301327328E+02  0.11217213016E+03  0.80593493959E+02 0.  0.
          5    1    5    5  501    0 -0.20125010340E+02  0.57462627999E+02  0.79710215129E+02  0.10041303727E+03  0.47000000000E+01 0. -1.
        -13    1    6    6    0    0 -0.44018189244E+01 -0.25171216661E+01 -0.23100598210E+02  0.23650571853E+02  0.00000000000E+00 0.  1.
         14    1    6    6    0    0 -0.19527093612E+02 -0.61695755867E+02  0.60401925537E+02  0.88521558310E+02  0.00000000000E+00 0. -1.
         -5    1    3    3    0  503  0.69032559217E+02 -0.23903506534E+02 -0.10294850075E+03  0.12632242740E+03  0.47000000000E+01 0.  1.
         11    1    4    4    0    0 -0.52258970490E+02  0.27310295576E+02 -0.25807295783E+03  0.26472344778E+03  0.00000000000E+00 0. -1.
        -12    1    4    4    0    0  0.27280334149E+02  0.33434604935E+01 -0.67683126458E+02  0.73050673963E+02  0.00000000000E+00 0.  1.
</event>
<event>
12    1  0.8133495E-002  0.2832509E+03  0.7818608E-02  0.1094205E+00
         21   -1    0    0  501  502  0.00000000000E+00  0.00000000000E+00  0.19676818511E+04  0.19676818511E+04  0.00000000000E+00 0.  1.
         21   -1    0    0  502  503 -0.00000000000E+00 -0.00000000000E+00 -0.58239744099E+02  0.58239744099E+02  0.00000000000E+00 0. -1.
         -6    2    1    2    0  503 -0.22174541326E+03  0.16312508041E+02  0.39774282109E+03  0.48829336958E+03  0.17548201283E+03 0.  0.
        -24    2    3    3    0    0 -0.21751156227E+03 -0.24894129959E+02  0.28510588301E+03  0.36818890535E+03  0.79666229136E+02 0.  0.
          6    2    1    2  501    0  0.22174541326E+03 -0.16312508041E+02  0.15116992859E+04  0.15376282256E+04  0.17212990143E+03 0.  0.
         24    2    5    5    0    0  0.24157722746E+03 -0.28173043057E+02  0.14242666511E+04  0.14470714547E+04  0.79542593174E+02 0.  0.
          5    1    5    5  501    0 -0.19831814195E+02  0.11860535016E+02  0.87432634799E+02  0.90556770995E+02  0.47000000000E+01 0. -1.
        -11    1    6    6    0    0  0.72883301228E+02  0.27193848802E+02  0.47887102612E+03  0.48514836974E+03  0.00000000000E+00 0.  1.
         12    1    6    6    0    0  0.16869392623E+03 -0.55366891859E+02  0.94539562503E+03  0.96192308491E+03  0.00000000000E+00 0. -1.
         -5    1    3    3    0  503 -0.42338509910E+01  0.41206638000E+02  0.11263693808E+03  0.12010446423E+03  0.47000000000E+01 0.  1.
         11    1    4    4    0    0 -0.17205178733E+03 -0.22533535976E+02  0.16379163245E+03  0.23861533192E+03  0.00000000000E+00 0. -1.
        -12    1    4    4    0    0 -0.45459774948E+02 -0.23605939833E+01  0.12131425056E+03  0.12957357343E+03  0.00000000000E+00 0.  1.
</event>
<event>
12    1  0.8133495E-002  0.2065044E+03  0.7818608E-02  0.1144746E+00
         21   -1    0    0  503  502  0.00000000000E+00  0.00000000000E+00  0.22586627852E+03  0.22586627852E+03  0.00000000000E+00 0.  1.
         21   -1    0    0  501  503 -0.00000000000E+00 -0.00000000000E+00 -0.20667716019E+03  0.20667716019E+03  0.00000000000E+00 0. -1.
          6    2    1    2  501    0  0.68489113211E+01 -0.11466690213E+03 -0.57023516093E+02  0.21242430958E+03  0.16934284715E+03 0.  0.
         24    2    3    3    0    0  0.38513436699E+02 -0.15322611340E+02 -0.55734702862E+02  0.10804192926E+03  0.82756474976E+02 0.  0.
         -6    2    1    2    0  502 -0.68489113211E+01  0.11466690213E+03  0.76212634424E+02  0.22011912914E+03  0.17160611683E+03 0.  0.
        -24    2    5    5    0    0  0.18887820014E+02  0.14325812039E+03  0.71592492592E+02  0.18109000140E+03  0.82392140469E+02 0.  0.
          5    1    3    3  501    0 -0.31664525378E+02 -0.99344290795E+02 -0.12888132305E+01  0.10438238032E+03  0.47000000000E+01 0. -1.
        -11    1    4    4    0    0  0.49110886809E+01 -0.12231227494E+02  0.20671514013E+02  0.24515978660E+02  0.00000000000E+00 0.  1.
         12    1    4    4    0    0  0.33602348018E+02 -0.30913838454E+01 -0.76406216876E+02  0.83525950600E+02  0.00000000000E+00 0. -1.
         -5    1    5    5    0  502 -0.25736731335E+02 -0.28591218254E+02  0.46201418329E+01  0.39029127733E+02  0.47000000000E+01 0.  1.
         11    1    6    6    0    0 -0.25268360013E+02  0.20735039189E+02  0.45260255252E+00  0.32690009437E+02  0.00000000000E+00 0. -1.
        -12    1    6    6    0    0  0.44156180028E+02  0.12252308120E+03  0.71139890039E+02  0.14839999197E+03  0.00000000000E+00 0.  1.
</event>
<event>
12    1  0.8133495E-002  0.2173638E+03  0.7818608E-02  0.1135879E+00
         21   -1    0    0  501  502  0.00000000000E+00  0.00000000000E+00  0.40502449174E+03  0.40502449174E+03  0.00000000000E+00 0.  1.
         21   -1    0    0  502  503 -0.00000000000E+00 -0.00000000000E+00 -0.23118134566E+03  0.23118134566E+03  0.00000000000E+00 0. -1.
         -6    2    1    2    0  503 -0.23255028339E+02 -0.13052065433E+03 -0.13700979572E+03  0.25694101462E+03  0.17225145375E+03 0.  0.
        -24    2    3    3    0    0 -0.43902400864E+02 -0.17862645656E+02 -0.23192481248E+02  0.95402746750E+02  0.79481431729E+02 0.  0.
          6    2    1    2  501    0  0.23255028339E+02  0.13052065433E+03  0.31085294180E+03  0.37926482278E+03  0.17215056440E+03 0.  0.
         24    2    5    5    0    0 -0.22674706676E+02  0.14464703658E+03  0.26220069529E+03  0.31072121386E+03  0.79759392034E+02 0.  0.
          5    1    5    5  501    0  0.45929735015E+02 -0.14126382245E+02  0.48652246513E+02  0.68543608927E+02  0.47000000000E+01 0. -1.
        -11    1    6    6    0    0  0.28646519997E+02  0.48270645985E+02  0.70627650911E+02  0.90216093049E+02  0.00000000000E+00 0.  1.
         12    1    6    6    0    0 -0.51321226673E+02  0.96376390594E+02  0.19157304438E+03  0.22050512081E+03  0.00000000000E+00 0. -1.
         -5    1    3    3    0  503  0.20647372525E+02 -0.11265800868E+03 -0.11381731447E+03  0.16153826787E+03  0.47000000000E+01 0.  1.
         11    1    4    4    0    0 -0.51261423735E+02 -0.40716653132E+02 -0.27507028733E+02  0.71008563113E+02  0.00000000000E+00 0. -1.
        -12    1    4    4    0    0  0.73590228711E+01  0.22854007476E+02  0.43145474852E+01  0.24394183638E+02  0.00000000000E+00 0.  1.
</event>
<event>
12    1  0.8133495E-002  0.1764997E+03  0.7818608E-02  0.1171484E+00
         21   -1    0    0  501  502  0.00000000000E+00  0.00000000000E+00  0.17373350626E+02  0.17373350626E+02  0.00000000000E+00 0.  1.
         21   -1    0    0  502  503 -0.00000000000E+00 -0.00000000000E+00 -0.23342532284E+04  0.23342532284E+04  0.00000000000E+00 0.  1.
         -6    2    1    2    0  503  0.36040700039E+02  0.37391160189E+01 -0.17324126836E+04  0.17413804486E+04  0.17274040513E+03 0.  0.
        -24    2    3    3    0    0 -0.43672296753E+02  0.60750853526E+01 -0.11600838934E+04  0.11635033400E+04  0.77467453032E+02 0.  0.
          6    2    1    2  501    0 -0.36040700039E+02 -0.37391160189E+01 -0.58446719422E+03  0.61024613043E+03  0.17171349841E+03 0.  0.
         24    2    5    5    0    0 -0.56034922362E+02 -0.58793353301E+02 -0.43732378907E+03  0.45180368142E+03  0.79233194698E+02 0.  0.
          5    1    5    5  501    0  0.19994222323E+02  0.55054237282E+02 -0.14714340515E+03  0.15844244901E+03  0.47000000000E+01 0. -1.
        -11    1    6    6    0    0 -0.12897185205E+02  0.11606288574E+02 -0.20388435747E+02  0.26771844032E+02  0.00000000000E+00 0.  1.
         12    1    6    6    0    0 -0.43137737156E+02 -0.70399641874E+02 -0.41693535332E+03  0.42503183739E+03  0.00000000000E+00 0. -1.
         -5    1    3    3    0  503  0.79712996791E+02 -0.23359693337E+01 -0.57232879016E+03  0.57787710861E+03  0.47000000000E+01 0.  1.
         11    1    4    4    0    0 -0.33079325903E+02  0.40060144418E+01 -0.11416937358E+04  0.11421798792E+04  0.00000000000E+00 0. -1.
        -12    1    4    4    0    0 -0.10592970850E+02  0.20690709108E+01 -0.18390157575E+02  0.21323460823E+02  0.00000000000E+00 0.  1.
</event>
<event>
12    1  0.8133495E-002  0.1871874E+03  0.7818608E-02  0.1161185E+00
         21   -1    0    0  501  502  0.00000000000E+00  0.00000000000E+00  0.50458233427E+03  0.50458233427E+03  0.00000000000E+00 0.  1.
         21   -1    0    0  502  503 -0.00000000000E+00 -0.00000000000E+00 -0.10734883810E+03  0.10734883810E+03  0.00000000000E+00 0.  1.
         -6    2    1    2    0  503  0.49779302682E+02  0.50466635533E+02  0.15932236168E+02  0.18716090909E+03  0.17248335996E+03 0.  0.
        -24    2    3    3    0    0  0.45903672404E+02 -0.19285524417E+02  0.52427524741E+02  0.10820281631E+03  0.80499226793E+02 0.  0.
          6    2    1    2  501    0 -0.49779302682E+02 -0.50466635533E+02  0.38130126000E+03  0.42477026328E+03  0.17324625656E+03 0.  0.
         24    2    5    5    0    0  0.12666836588E+02  0.30737926949E+02  0.22418777037E+03  0.23715246055E+03  0.69827389033E+02 0.  0.
          5    1    5    5  501    0 -0.62446139271E+02 -0.81204562482E+02  0.15711348963E+03  0.18761780273E+03  0.47000000000E+01 0. -1.
        -13    1    6    6    0    0 -0.25752410886E+02  0.29114282675E+02  0.11037114053E+03  0.11701545532E+03  0.00000000000E+00 0.  1.
         14    1    6    6    0    0  0.38419247475E+02  0.16236442739E+01  0.11381662984E+03  0.12013700523E+03  0.00000000000E+00 0. -1.
         -5    1    3    3    0  503  0.38756302785E+01  0.69752159951E+02 -0.36495288573E+02  0.78958092782E+02  0.47000000000E+01 0.  1.
         11    1    4    4    0    0  0.58995638416E+02 -0.27299946129E+02  0.13547993442E+02  0.66402714832E+02  0.00000000000E+00 0. -1.
        -12    1    4    4    0    0 -0.13091966012E+02  0.80144217118E+01  0.38879531298E+02  0.41800101476E+02  0.00000000000E+00 0.  1.
</event>
<event>
12    1  0.8133495E-002  0.2217407E+03  0.7818608E-02  0.1132793E+00
         21   -1    0    0  501  502  0.00000000000E+00  0.00000000000E+00  0.44492174357E+02  0.44492174357E+02  0.00000000000E+00 0. -1.
         21   -1    0    0  502  503 -0.00000000000E+00 -0.00000000000E+00 -0.15841459031E+04  0.15841459031E+04  0.00000000000E+00 0. -1.
         -6    2    1    2    0  503 -0.13065582538E+03  0.47913786437E+02 -0.12188308273E+04  0.12386428811E+04  0.17123354124E+03 0.  0.
        -24    2    3    3    0    0 -0.14443406474E+03 -0.19819438591E+01 -0.10665690256E+04  0.10777541928E+04  0.55852362759E+02 0.  0.
          6    2    1    2  501    0  0.13065582538E+03 -0.47913786437E+02 -0.32082290141E+03  0.38999519634E+03  0.17263326291E+03 0.  0.
         24    2    5    5    0    0  0.14860407692E+03 -0.69375504041E+02 -0.22154975609E+03  0.28674795697E+03  0.79018758327E+02 0.  0.
          5    1    5    5  501    0 -0.17948251533E+02  0.21461717604E+02 -0.99273145316E+02  0.10324723937E+03  0.47000000000E+01 0. -1.
        -11    1    6    6    0    0 -0.89710950845E+01  0.17009275328E+01 -0.12635487094E+02  0.15589394972E+02  0.00000000000E+00 0.  1.
         12    1    6    6    0    0  0.15757517200E+03 -0.71076431573E+02 -0.20891426900E+03  0.27115856200E+03  0.00000000000E+00 0. -1.
         -5    1    3    3    0  503  0.13778239356E+02  0.49895730296E+02 -0.15226180165E+03  0.16088868830E+03  0.47000000000E+01 0.  1.
         13    1    4    4    0    0 -0.90277317400E+02 -0.18666868918E+02 -0.79558796208E+03  0.80091113830E+03  0.00000000000E+00 0. -1.
        -14    1    4    4    0    0 -0.54156747338E+02  0.16684925059E+02 -0.27098106356E+03  0.27684305448E+03  0.00000000000E+00 0.  1.
</event>
<event>
12    1  0.8133495E-002  0.1893052E+03  0.7818608E-02  0.1160122E+00
         21   -1    0    0  501  502  0.00000000000E+00  0.00000000000E+00  0.95855358215E+02  0.95855358215E+02  0.00000000000E+00 0.  1.
         21   -1    0    0  502  503 -0.00000000000E+00 -0.00000000000E+00 -0.45145977189E+03  0.45145977189E+03  0.00000000000E+00 0.  1.
         -6    2    1    2    0  503 -0.92947996047E+00  0.79485746451E+02 -0.29580520454E+03  0.34878954435E+03  0.16683698449E+03 0.  0.
        -24    2    3    3    0    0  0.13728505134E+02  0.78831825435E+02 -0.96742713167E+02  0.14913171302E+03  0.80487183599E+02 0.  0.
          6    2    1    2  501    0  0.92947996047E+00 -0.79485746451E+02 -0.59799209137E+02  0.19852558576E+03  0.17180691186E+03 0.  0.
         24    2    5    5    0    0 -0.59066112192E+02 -0.80639040853E+02 -0.50224108880E+02  0.13757828302E+03  0.80086592679E+02 0.  0.
          5    1    5    5  501    0  0.59995592152E+02  0.11532944024E+01 -0.95751002568E+01  0.60947302734E+02  0.47000000000E+01 0. -1.
        -13    1    6    6    0    0  0.54727012578E+01 -0.22585667601E+02  0.16153053475E+02  0.28301660316E+02  0.00000000000E+00 0.  1.
         14    1    6    6    0    0 -0.64538813450E+02 -0.58053373252E+02 -0.66377162356E+02  0.10927662271E+03  0.00000000000E+00 0. -1.
         -5    1    3    3    0  503 -0.14657985095E+02  0.65392101590E+00 -0.19906249137E+03  0.19965783133E+03  0.47000000000E+01 0.  1.
         13    1    4    4    0    0  0.35458127617E+02  0.81564948630E+02 -0.89213258755E+02  0.12597271608E+03  0.00000000000E+00 0. -1.
        -14    1    4    4    0    0 -0.21729622483E+02 -0.27331231948E+01 -0.75294544122E+01  0.23158996943E+02  0.00000000000E+00 0.  1.
</event>
<event>
12    1  0.8133495E-002  0.1771181E+03  0.7818608E-02  0.1170927E+00
         21   -1    0    0  503  502  0.00000000000E+00  0.00000000000E+00  0.19123316176E+02  0.19123316176E+02  0.00000000000E+00 0.  1.
         21   -1    0    0  501  503 -0.00000000000E+00 -0.00000000000E+00 -0.20096999782E+04  0.20096999782E+04  0.00000000000E+00 0.  1.
          6    2    1    2  501    0 -0.82947478030E+01  0.43534527262E+02 -0.14395662161E+04  0.14504212132E+04  0.17148395568E+03 0.  0.
         24    2    3    3    0    0  0.22668047605E+02  0.72476139679E+02 -0.12638355218E+04  0.12695906887E+04  0.93881092839E+02 0.  0.
         -6    2    1    2    0  502  0.82947478030E+01 -0.43534527262E+02 -0.55101044590E+03  0.57840208123E+03  0.17021280260E+03 0.  0.
        -24    2    5    5    0    0 -0.57075999718E+02 -0.32912232089E+02 -0.26973229039E+03  0.28939402156E+03  0.81562898843E+02 0.  0.
          5    1    3    3  501    0 -0.30962795408E+02 -0.28941612417E+02 -0.17573069435E+03  0.18083052443E+03  0.47000000000E+01 0. -1.
        -13    1    4    4    0    0 -0.10751660529E+02  0.53747379514E+02 -0.29820946497E+03  0.30320498678E+03  0.00000000000E+00 0.  1.
         14    1    4    4    0    0  0.33419708135E+02  0.18728760164E+02 -0.96562605682E+03  0.96638570196E+03  0.00000000000E+00 0. -1.
         -5    1    5    5    0  502  0.65370747521E+02 -0.10622295173E+02 -0.28127815551E+03  0.28900805967E+03  0.47000000000E+01 0.  1.
         11    1    6    6    0    0 -0.53176910667E+02  0.16192480540E+02 -0.14200598450E+03  0.15249813077E+03  0.00000000000E+00 0. -1.
        -12    1    6    6    0    0 -0.38990890514E+01 -0.49104712629E+02 -0.12772630589E+03  0.13689589079E+03  0.00000000000E+00 0.  1.
</event>
<event>
12    1  0.8133495E-002  0.3287997E+03  0.7818608E-02  0.1071694E+00
         21   -1    0    0  503  502  0.00000000000E+00  0.00000000000E+00  0.17274826079E+03  0.17274826079E+03  0.00000000000E+00 0. -1.
         21   -1    0    0  501  503 -0.00000000000E+00 -0.00000000000E+00 -0.74102943082E+03  0.74102943082E+03  0.00000000000E+00 0.  1.
          6    2    1    2  501    0  0.17728034989E+03 -0.21643144471E+03 -0.46469790332E+03  0.56925689592E+03  0.17273789246E+03 0.  0.
         24    2    3    3    0    0  0.19106940689E+03 -0.21107563251E+03 -0.46780372572E+03  0.55342784194E+03  0.79884976986E+02 0.  0.
         -6    2    1    2    0  502 -0.17728034989E+03  0.21643144471E+03 -0.10358326671E+03  0.34452079568E+03  0.17232003017E+03 0.  0.
        -24    2    5    5    0    0 -0.95938994257E+02  0.75091301032E+02 -0.10756905171E+03  0.18132940855E+03  0.80413054973E+02 0.  0.
          5    1    3    3  501    0 -0.13789056999E+02 -0.53558121962E+01  0.31058223996E+01  0.15829053982E+02  0.47000000000E+01 0. -1.
        -13    1    4    4    0    0  0.92544229902E+02 -0.12309359190E+03 -0.32046074224E+03  0.35554402564E+03  0.00000000000E+00 0.  1.
         14    1    4    4    0    0  0.98525176992E+02 -0.87982040615E+02 -0.14734298348E+03  0.19788381630E+03  0.00000000000E+00 0. -1.
         -5    1    5    5    0  502 -0.81341355637E+02  0.14134014368E+03  0.39857850034E+01  0.16319138713E+03  0.47000000000E+01 0.  1.
         13    1    6    6    0    0 -0.55330823124E+02  0.79129728643E+02 -0.44756381045E+02  0.10642437497E+03  0.00000000000E+00 0. -1.
        -14    1    6    6    0    0 -0.40608171133E+02 -0.40384276106E+01 -0.62812670666E+02  0.74905033586E+02  0.00000000000E+00 0.  1.
</event>
<event>
12    1  0.8133495E-002  0.1810903E+03  0.7818608E-02  0.1171431E+00
         21   -1    0    0  501  502  0.00000000000E+00  0.00000000000E+00  0.23235861251E+03  0.23235861251E+03  0.00000000000E+00 0.  1.
         21   -1    0    0  502  503 -0.00000000000E+00 -0.00000000000E+00 -0.16826958587E+03  0.16826958587E+03  0.00000000000E+00 0.  1.
         -6    2    1    2    0  503  0.11043460414E+02  0.58161048564E+02 -0.68165533733E+02  0.17638512867E+03  0.15152725181E+03 0.  0.
        -24    2    3    3    0    0 -0.22772356402E+02 -0.57350320934E+01 -0.10632243660E+02  0.83873572331E+02  0.79813913080E+02 0.  0.
          6    2    1    2  501    0 -0.11043460414E+02 -0.58161048564E+02  0.13225456037E+03  0.22424306971E+03  0.17114035172E+03 0.  0.
         24    2    5    5    0    0 -0.15763319468E+02  0.34438720896E+02  0.61887477202E+02  0.10775010525E+03  0.79658757272E+02 0.  0.
          5    1    5    5  501    0  0.47198590541E+01 -0.92599769461E+02  0.70367083165E+02  0.11649296445E+03  0.47000000000E+01 0. -1.
        -11    1    6    6    0    0 -0.25566796426E+02  0.84748277045E+01  0.73033875343E+02  0.77842345364E+02  0.00000000000E+00 0.  1.
         12    1    6    6    0    0  0.98034769578E+01  0.25963893192E+02 -0.11146398141E+02  0.29907759890E+02  0.00000000000E+00 0. -1.
         -5    1    3    3    0  503  0.33815816816E+02  0.63896080658E+02 -0.57533290073E+02  0.92511556343E+02  0.47000000000E+01 0.  1.
         13    1    4    4    0    0 -0.97254950480E+01  0.92005709108E+01  0.33181510812E+02  0.35780559229E+02  0.00000000000E+00 0. -1.
        -14    1    4    4    0    0 -0.13046861354E+02 -0.14935603004E+02 -0.43813754472E+02  0.48093013102E+02  0.00000000000E+00 0.  1.
</event>
<event>
12    1  0.8133495E-002  0.2607104E+03  0.7818608E-02  0.1106892E+00
         21   -1    0    0  501  502  0.00000000000E+00  0.00000000000E+00  0.31561921090E+03  0.31561921090E+03  0.00000000000E+00 0.  1.
         21   -1    0    0  502  503 -0.00000000000E+00 -0.00000000000E+00 -0.31283410780E+03  0.31283410780E+03  0.00000000000E+00 0. -1.
         -6    2    1    2    0  503  0.11777969368E+03 -0.15500722063E+03 -0.17487312217E+03  0.31392760048E+03  0.17340886596E+03 0.  0.
        -24    2    3    3    0    0  0.12139016899E+03 -0.15294124066E+03 -0.19856308151E+03  0.28942029587E+03  0.78804911652E+02 0.  0.
          6    2    1    2  501    0 -0.11777969368E+03  0.15500722063E+03  0.17765822527E+03  0.31452571822E+03  0.17165281159E+03 0.  0.
         24    2    5    5    0    0 -0.56240002188E+02  0.28061948482E+02  0.19721118591E+02  0.10270396435E+03  0.78795754807E+02 0.  0.
          5    1    5    5  501    0 -0.61539691496E+02  0.12694527215E+03  0.15793710667E+03  0.21182175388E+03  0.47000000000E+01 0. -1.
        -13    1    6    6    0    0 -0.64524742241E+02 -0.10742643157E+01  0.29384530734E+02  0.70908723381E+02  0.00000000000E+00 0.  1.
         14    1    6    6    0    0  0.82847400528E+01  0.29136212797E+02 -0.96634121425E+01  0.31795240967E+02  0.00000000000E+00 0. -1.
         -5    1    3    3    0  503 -0.36104753090E+01 -0.20659799721E+01  0.23689959346E+02  0.24507304605E+02  0.47000000000E+01 0.  1.
         11    1    4    4    0    0  0.22286826989E+02 -0.35432157131E+01 -0.55970169620E+02  0.60348296763E+02  0.00000000000E+00 0. -1.
        -12    1    4    4    0    0  0.99103342005E+02 -0.14939802495E+03 -0.14259291189E+03  0.22907199911E+03  0.00000000000E+00 0.  1.
</event>
<event>
12    1  0.8133495E-002  0.1773419E+03  0.7818608E-02  0.1170976E+00
         21   -1    0    0  501  502  0.00000000000E+00  0.00000000000E+00  0.54385099620E+03  0.54385099620E+03  0.00000000000E+00 0.  1.
         21   -1    0    0  502  503 -0.00000000000E+00 -0.00000000000E+00 -0.69043079525E+02  0.69043079525E+02  0.00000000000E+00 0.  1.
         -6    2    1    2    0  503 -0.40721662429E+01  0.32239833279E+02  0.36627440077E+03  0.40694849701E+03  0.17433919000E+03 0.  0.
        -24    2    3    3    0    0 -0.32979020088E+02  0.77826488673E+02  0.19154570823E+03  0.22401147138E+03  0.79666824108E+02 0.  0.
          6    2    1    2  501    0  0.40721662429E+01 -0.32239833279E+02  0.10853351591E+03  0.20594557872E+03  0.17198275475E+03 0.  0.
         24    2    5    5    0    0  0.20307939994E+02 -0.80093965383E+02  0.10394489580E+03  0.15498712758E+03  0.79931299466E+02 0.  0.
          5    1    5    5  501    0 -0.16235773751E+02  0.47854132104E+02  0.45886201139E+01  0.50958451147E+02  0.47000000000E+01 0. -1.
        -11    1    6    6    0    0  0.90218331476E+00 -0.64324066680E+02  0.19955542386E+02  0.67354459102E+02  0.00000000000E+00 0.  1.
         12    1    6    6    0    0  0.19405756680E+02 -0.15769898703E+02  0.83989353411E+02  0.87632668474E+02  0.00000000000E+00 0. -1.
         -5    1    3    3    0  503  0.28906853845E+02 -0.45586655394E+02  0.17472869254E+03  0.18293702563E+03  0.47000000000E+01 0.  1.
         13    1    4    4    0    0  0.55663672235E+00  0.51415632459E+02  0.36137720909E+02  0.62847529611E+02  0.00000000000E+00 0. -1.
        -14    1    4    4    0    0 -0.33535656811E+02  0.26410856214E+02  0.15540798732E+03  0.16116394177E+03  0.00000000000E+00 0.  1.
</event>
<event>
12    1  0.8133495E-002  0.1917095E+03  0.7818608E-02  0.1157054E+00
         21   -1    0    0  501  502  0.00000000000E+00  0.00000000000E+00  0.43611025601E+03  0.43611025601E+03  0.00000000000E+00 0. -1.
         21   -1    0    0  502  503 -0.00000000000E+00 -0.00000000000E+00 -0.93076902588E+02  0.93076902588E+02  0.00000000000E+00 0.  1.
         -6    2    1    2    0  503 -0.28609668149E+02 -0.77867813638E+02  0.25425105056E+03  0.31842756330E+03  0.17283115125E+03 0.  0.
        -24    2    3    3    0    0 -0.47700163453E+02  0.16086257714E+02  0.11217454744E+03  0.14696433903E+03  0.80506611988E+02 0.  0.
          6    2    1    2  501    0  0.28609668149E+02  0.77867813638E+02  0.88782302859E+02  0.21075959530E+03  0.17220743363E+03 0.  0.
         24    2    5    5    0    0 -0.35759921406E+02  0.89422898802E+02  0.65863370161E+02  0.14130218728E+03  0.79706322164E+02 0.  0.
          5    1    5    5  501    0  0.64369589555E+02 -0.11555085164E+02  0.22918932698E+02  0.69457408018E+02  0.47000000000E+01 0. -1.
        -13    1    6    6    0    0 -0.32116152954E+02  0.93165626165E+02  0.79553564033E+02  0.12664932187E+03  0.00000000000E+00 0.  1.
         14    1    6    6    0    0 -0.36437684519E+01 -0.37427273632E+01 -0.13690193871E+02  0.14652865415E+02  0.00000000000E+00 0. -1.
         -5    1    3    3    0  503  0.19090495305E+02 -0.93954071352E+02  0.14207650313E+03  0.17146322426E+03  0.47000000000E+01 0.  1.
         11    1    4    4    0    0  0.13299430508E+02  0.10548582232E+02 -0.23034610826E+01  0.17130480784E+02  0.00000000000E+00 0. -1.
        -12    1    4    4    0    0 -0.60999593961E+02  0.55376754818E+01  0.11447800852E+03  0.12983385825E+03  0.00000000000E+00 0.  1.
</event>
<event>
12    1  0.8133495E-002  0.1765578E+03  0.7818608E-02  0.1172023E+00
         21   -1    0    0  501  502  0.00000000000E+00  0.00000000000E+00  0.57952620292E+03  0.57952620292E+03  0.00000000000E+00 0.  1.
         21   -1    0    0  502  503 -0.00000000000E+00 -0.00000000000E+00 -0.13778892957E+03  0.13778892957E+03  0.00000000000E+00 0.  1.
         -6    2    1    2    0  503 -0.20752194482E+02  0.29230787361E+02 -0.61678210153E+02  0.18383618371E+03  0.16942977403E+03 0.  0.
        -24    2    3    3    0    0  0.17959432797E+02  0.38325978937E+02  0.29108489571E+02  0.84611048568E+02  0.67233202265E+02 0.  0.
          6    2    1    2  501    0  0.20752194482E+02 -0.29230787361E+02  0.50341548350E+03  0.53347894878E+03  0.17288015286E+03 0.  0.
         24    2    5    5    0    0 -0.48557321325E+02 -0.19687476643E+02  0.37707337457E+03  0.38898222822E+03  0.79858837177E+02 0.  0.
          5    1    5    5  501    0  0.69309515807E+02 -0.95433107181E+01  0.12634210894E+03  0.14449672056E+03  0.47000000000E+01 0. -1.
        -11    1    6    6    0    0 -0.56567758438E+00 -0.41290943480E+02  0.13145664142E+03  0.13779009608E+03  0.00000000000E+00 0.  1.
         12    1    6    6    0    0 -0.47991643741E+02  0.21603466837E+02  0.24561673314E+03  0.25119213214E+03  0.00000000000E+00 0. -1.
         -5    1    3    3    0  503 -0.38711627279E+02 -0.90951915760E+01 -0.90786699724E+02  0.99225135138E+02  0.47000000000E+01 0.  1.
         11    1    4    4    0    0  0.13157855134E+02 -0.18122453166E+02  0.12129424283E+02  0.25469106657E+02  0.00000000000E+00 0. -1.
        -12    1    4    4    0    0  0.48015776630E+01  0.56448432103E+02  0.16979065288E+02  0.59141941911E+02  0.00000000000E+00 0.  1.
</event>
<event>
12    1  0.8133495E-002  0.1760969E+03  0.7818608E-02  0.1171679E+00
         21   -1    0    0  503  502  0.00000000000E+00  0.00000000000E+00  0.94565778228E+02  0.94565778228E+02  0.00000000000E+00 0. -1.
         21   -1    0    0  501  503 -0.00000000000E+00 -0.00000000000E+00 -0.73380583795E+03  0.73380583795E+03  0.00000000000E+00 0. -1.
          6    2    1    2  501    0 -0.27024516702E+02  0.30148111424E+02 -0.11385932966E+02  0.17628963524E+03  0.17119919071E+03 0.  0.
         24    2    3    3    0    0 -0.32531703942E+02 -0.46181049209E+02 -0.11608893543E+02  0.99617543936E+02  0.81227381979E+02 0.  0.
         -6    2    1    2    0  502  0.27024516702E+02 -0.30148111424E+02 -0.62785412675E+03  0.65208198093E+03  0.17137932270E+03 0.  0.
        -24    2    5    5    0    0 -0.12582952258E+02 -0.50548361695E+02 -0.57498556255E+03  0.58278481728E+03  0.79475018458E+02 0.  0.
          5    1    3    3  501    0  0.55071872399E+01  0.76329160633E+02  0.22296057643E+00  0.76672091308E+02  0.47000000000E+01 0. -1.
        -13    1    4    4    0    0 -0.36968104368E+02 -0.13991191021E+02 -0.40169470389E+02  0.56355838367E+02  0.00000000000E+00 0.  1.
         14    1    4    4    0    0  0.44364004262E+01 -0.32189858188E+02  0.28560576846E+02  0.43261705568E+02  0.00000000000E+00 0. -1.
         -5    1    5    5    0  502  0.39607468960E+02  0.20400250272E+02 -0.52868564205E+02  0.69297163648E+02  0.47000000000E+01 0.  1.
         11    1    6    6    0    0 -0.21366763155E+02  0.14711534512E+02 -0.23928188974E+03  0.24068400564E+03  0.00000000000E+00 0. -1.
        -12    1    6    6    0    0  0.87838108972E+01 -0.65259896207E+02 -0.33570367281E+03  0.34210081164E+03  0.00000000000E+00 0.  1.
</event>
<event>
12    1  0.8133495E-002  0.2086854E+03  0.7818608E-02  0.1143976E+00
         21   -1    0    0  501  502  0.00000000000E+00  0.00000000000E+00  0.17645843163E+03  0.17645843163E+03  0.00000000000E+00 0.  1.
         21   -1    0    0  502  503 -0.00000000000E+00 -0.00000000000E+00 -0.26734584618E+03  0.26734584618E+03  0.00000000000E+00 0. -1.
         -6    2    1    2    0  503  0.83564314541E+02 -0.73146284239E+02 -0.11846323782E+03  0.23996486664E+03  0.17668113918E+03 0.  0.
        -24    2    3    3    0    0  0.85946833366E+02 -0.53696160491E+02 -0.15303941747E+03  0.19994504769E+03  0.79289488466E+02 0.  0.
          6    2    1    2  501    0 -0.83564314541E+02  0.73146284239E+02  0.27575823272E+02  0.20383941117E+03  0.16869115553E+03 0.  0.
         24    2    5    5    0    0  0.12463874782E+02  0.40433306638E+02  0.43281163141E+02  0.10107609209E+03  0.80950088627E+02 0.  0.
          5    1    5    5  501    0 -0.96028189323E+02  0.32712977600E+02 -0.15705339869E+02  0.10276331908E+03  0.47000000000E+01 0. -1.
        -13    1    6    6    0    0 -0.21975605354E+02  0.50564532783E+02  0.22125514363E+02  0.59407386679E+02  0.00000000000E+00 0.  1.
         14    1    6    6    0    0  0.34439480136E+02 -0.10131226145E+02  0.21155648778E+02  0.41668705409E+02  0.00000000000E+00 0. -1.
         -5    1    3    3    0  503 -0.23825188253E+01 -0.19450123747E+02  0.34576179644E+02  0.40019818947E+02  0.47000000000E+01 0.  1.
         11    1    4    4    0    0  0.82714184446E+01 -0.21645653302E+02 -0.95089163100E+02  0.97871852996E+02  0.00000000000E+00 0. -1.
        -12    1    4    4    0    0  0.77675414922E+02 -0.32050507190E+02 -0.57950254368E+02  0.10207319470E+03  0.00000000000E+00 0.  1.
</event>
<event>
12    1  0.8133495E-002  0.2444995E+03  0.7818608E-02  0.1116836E+00
         21   -1    0    0  503  502  0.00000000000E+00  0.00000000000E+00  0.20543245723E+03  0.20543245723E+03  0.00000000000E+00 0. -1.
         21   -1    0    0  501  503 -0.00000000000E+00 -0.00000000000E+00 -0.38933183943E+03  0.38933183943E+03  0.00000000000E+00 0.  1.
          6    2    1    2  501    0  0.15024118596E+03 -0.85995853105E+02 -0.24143395508E+03  0.34361371006E+03  0.17266246367E+03 0.  0.
         24    2    3    3    0    0  0.16685563453E+03 -0.46023683646E+02 -0.22934656589E+03  0.29842511404E+03  0.80614633733E+02 0.  0.
         -6    2    1    2    0  502 -0.15024118596E+03  0.85995853105E+02  0.57534572878E+02  0.25115058661E+03  0.17262296882E+03 0.  0.
        -24    2    5    5    0    0 -0.14541601396E+02  0.57467696290E+02  0.41446755591E+01  0.10248719462E+03  0.83501212186E+02 0.  0.
          5    1    3    3  501    0 -0.16614448571E+02 -0.39972169459E+02 -0.12087389195E+02  0.45188596019E+02  0.47000000000E+01 0. -1.
        -11    1    4    4    0    0  0.10476131335E+03 -0.60447615304E+02 -0.18400592374E+03  0.22019769968E+03  0.00000000000E+00 0.  1.
         12    1    4    4    0    0  0.62094321180E+02  0.14423931658E+02 -0.45340642149E+02  0.78227414362E+02  0.00000000000E+00 0. -1.
         -5    1    5    5    0  502 -0.13569958457E+03  0.28528156815E+02  0.53389897319E+02  0.14866339199E+03  0.47000000000E+01 0.  1.
         13    1    6    6    0    0 -0.39737724856E+02  0.21120623821E+02  0.27229581654E+02  0.52598646793E+02  0.00000000000E+00 0. -1.
        -14    1    6    6    0    0  0.25196123460E+02  0.36347072469E+02 -0.23084906095E+02  0.49888547823E+02  0.00000000000E+00 0.  1.
</event>
<event>
12    1  0.8133495E-002  0.1722749E+03  0.7818608E-02  0.1175882E+00
         21   -1    0    0  503  502  0.00000000000E+00  0.00000000000E+00  0.44433301141E+02  0.44433301141E+02  0.00000000000E+00 0. -1.
         21   -1    0    0  501  503 -0.00000000000E+00 -0.00000000000E+00 -0.15041112012E+04  0.15041112012E+04  0.00000000000E+00 0. -1.
          6    2    1    2  501    0  0.50727181793E-01 -0.17729205205E+02 -0.13077325020E+04  0.13188358679E+04  0.16985117690E+03 0.  0.
         24    2    3    3    0    0  0.26812569840E+02  0.30638007653E+02 -0.55530723188E+03  0.56436820082E+03  0.92128947162E+02 0.  0.
         -6    2    1    2    0  502 -0.50727181793E-01  0.17729205205E+02 -0.15194539805E+03  0.22970863447E+03  0.17136022137E+03 0.  0.
        -24    2    5    5    0    0  0.59968895111E+01  0.76069687768E+02 -0.12234234169E+03  0.16384045915E+03  0.77804160580E+02 0.  0.
          5    1    3    3  501    0 -0.26761842659E+02 -0.48367212859E+02 -0.75242527012E+03  0.75446766705E+03  0.47000000000E+01 0. -1.
        -13    1    4    4    0    0  0.47034295876E+02  0.45948272767E+01 -0.47790277763E+03  0.48023369550E+03  0.00000000000E+00 0.  1.
         14    1    4    4    0    0 -0.20221726036E+02  0.26043180377E+02 -0.77404454251E+02  0.84134505323E+02  0.00000000000E+00 0. -1.
         -5    1    5    5    0  502 -0.60476166929E+01 -0.58340482563E+02 -0.29603056357E+02  0.65868175312E+02  0.47000000000E+01 0.  1.
         11    1    6    6    0    0  0.29184159079E+02  0.10198309664E+02 -0.70144891043E+02  0.76655243791E+02  0.00000000000E+00 0. -1.
        -12    1    6    6    0    0 -0.23187269568E+02  0.65871378104E+02 -0.52197450650E+02  0.87185215362E+02  0.00000000000E+00 0.  1.
</event>
<event>
12    1  0.8133495E-002  0.2152981E+03  0.7818608E-02  0.1137661E+00
         21   -1    0    0  503  502  0.00000000000E+00  0.00000000000E+00  0.81720159263E+03  0.81720159263E+03  0.00000000000E+00 0. -1.
         21   -1    0    0  501  503 -0.00000000000E+00 -0.00000000000E+00 -0.12192026871E+03  0.12192026871E+03  0.00000000000E+00 0.  1.
          6    2    1    2  501    0  0.81848176088E+02  0.96136791956E+02  0.38946253980E+01  0.21533329620E+03  0.17438994709E+03 0.  0.
         24    2    3    3    0    0  0.85011195311E+02 -0.21740066092E+01 -0.87947255212E+01  0.11604519302E+03  0.78469803070E+02 0.  0.
         -6    2    1    2    0  502 -0.81848176088E+02 -0.96136791956E+02  0.69138669852E+03  0.72378856515E+03  0.17295350083E+03 0.  0.
        -24    2    5    5    0    0 -0.11949692918E+03 -0.89632195120E+02  0.42710734815E+03  0.45672040265E+03  0.62124011983E+02 0.  0.
          5    1    3    3  501    0 -0.31630192228E+01  0.98310798566E+02  0.12689350919E+02  0.99288103174E+02  0.47000000000E+01 0. -1.
        -13    1    4    4    0    0  0.15451453720E+02  0.18506742752E+02 -0.31810077299E+02  0.39914007154E+02  0.00000000000E+00 0.  1.
         14    1    4    4    0    0  0.69559741591E+02 -0.20680749362E+02  0.23015351778E+02  0.76131185869E+02  0.00000000000E+00 0. -1.
         -5    1    5    5    0  502  0.37648753089E+02 -0.65045968368E+01  0.26427935037E+03  0.26706816250E+03  0.47000000000E+01 0.  1.
         13    1    6    6    0    0 -0.59684051073E+01 -0.34408254099E+02  0.10982065756E+03  0.11523943178E+03  0.00000000000E+00 0. -1.
        -14    1    6    6    0    0 -0.11352852407E+03 -0.55223941021E+02  0.31728669059E+03  0.34148097087E+03  0.00000000000E+00 0.  1.
</event>
<event>
12    1  0.8133495E-002  0.1915044E+03  0.7818608E-02  0.1157219E+00
         21   -1    0    0  501  502  0.00000000000E+00  0.00000000000E+00  0.11208666167E+04  0.11208666167E+04  0.00000000000E+00 0.  1.
         21   -1    0    0  502  503 -0.00000000000E+00 -0.00000000000E+00 -0.68345817980E+02  0.68345817980E+02  0.00000000000E+00 0.  1.
         -6    2    1    2    0  503 -0.80599772070E+02 -0.25063607384E+02  0.96149850990E+02  0.21385642782E+03  0.17136297792E+03 0.  0.
        -24    2    3    3    0    0 -0.39304997919E+02 -0.37734233669E+01 -0.16997825025E+02  0.91451293555E+02  0.80717355333E+02 0.  0.
          6    2    1    2  501    0  0.80599772070E+02  0.25063607384E+02  0.95637094771E+03  0.97535600684E+03  0.17189951360E+03 0.  0.
         24    2    5    5    0    0  0.11425985948E+03  0.44571838985E+02  0.83784171381E+03  0.85051674269E+03  0.79737242706E+02 0.  0.
          5    1    5    5  501    0 -0.33660087407E+02 -0.19508231601E+02  0.11852923390E+03  0.12483926415E+03  0.47000000000E+01 0. -1.
        -13    1    6    6    0    0  0.67427241506E+02 -0.10852364270E+02  0.52190780581E+03  0.52635725935E+03  0.00000000000E+00 0.  1.
         14    1    6    6    0    0  0.46832617971E+02  0.55424203255E+02  0.31593390800E+03  0.32415948334E+03  0.00000000000E+00 0. -1.
         -5    1    3    3    0  503 -0.41294774151E+02 -0.21290184017E+02  0.11314767602E+03  0.12240513427E+03  0.47000000000E+01 0.  1.
         11    1    4    4    0    0 -0.29011103455E+02 -0.29308049657E+02  0.19595824720E+02  0.45657444572E+02  0.00000000000E+00 0. -1.
        -12    1    4    4    0    0 -0.10293894464E+02  0.25534626290E+02 -0.36593649745E+02  0.45793848983E+02  0.00000000000E+00 0.  1.
</event>
<event>
12    1  0.8133495E-002  0.1779681E+03  0.7818608E-02  0.1170498E+00
         21   -1    0    0  501  502  0.00000000000E+00  0.00000000000E+00  0.61645946334E+03  0.61645946334E+03  0.00000000000E+00 0.  1.
         21   -1    0    0  502  503 -0.00000000000E+00 -0.00000000000E+00 -0.50674166685E+02  0.50674166685E+02  0.00000000000E+00 0.  1.
         -6    2    1    2    0  503  0.15861953219E+02 -0.39338352701E+02  0.30169934944E+03  0.35027864621E+03  0.17283959321E+03 0.  0.
        -24    2    3    3    0    0 -0.58501697759E+02 -0.28955698549E+02  0.19998538354E+03  0.22376551269E+03  0.76262506634E+02 0.  0.
          6    2    1    2  501    0 -0.15861953219E+02  0.39338352701E+02  0.26408594721E+03  0.31685498382E+03  0.16987226290E+03 0.  0.
         24    2    5    5    0    0  0.30886342413E+00 -0.70402797652E+01  0.44318775719E+02  0.91616948561E+02  0.79873966012E+02 0.  0.
          5    1    5    5  501    0 -0.16170816644E+02  0.46378632466E+02  0.21976717149E+03  0.22523803526E+03  0.47000000000E+01 0. -1.
        -13    1    6    6    0    0 -0.31053131079E+02 -0.12269114205E+02  0.49189524021E+02  0.59451134443E+02  0.00000000000E+00 0.  1.
         14    1    6    6    0    0  0.31361994503E+02  0.52288344402E+01 -0.48707483017E+01  0.32165814117E+02  0.00000000000E+00 0. -1.
         -5    1    3    3    0  503  0.74363650979E+02 -0.10382654152E+02  0.10171396590E+03  0.12651313352E+03  0.47000000000E+01 0.  1.
         13    1    4    4    0    0 -0.46446678623E+02 -0.27182143285E+02  0.20396663898E+03  0.21094680060E+03  0.00000000000E+00 0. -1.
        -14    1    4    4    0    0 -0.12055019136E+02 -0.17735552635E+01 -0.39812554355E+01  0.12818712084E+02  0.00000000000E+00 0.  1.
</event>
<event>
12    1  0.8133495E-002  0.2083329E+03  0.7818608E-02  0.1143037E+00
         21   -1    0    0  503  502  0.00000000000E+00  0.00000000000E+00  0.31427492400E+03  0.31427492400E+03  0.00000000000E+00 0.  1.
         21   -1    0    0  501  503 -0.00000000000E+00 -0.00000000000E+00 -0.17178059867E+03  0.17178059867E+03  0.00000000000E+00 0.  1.
          6    2    1    2  501    0  0.82954660639E+02  0.83272252655E+02 -0.37016776422E+02  0.21159594046E+03  0.17200830357E+03 0.  0.
         24    2    3    3    0    0 -0.19911674747E+02  0.47501939798E+02 -0.40074625961E+02  0.10254348207E+03  0.79096656013E+02 0.  0.
         -6    2    1    2    0  502 -0.82954660639E+02 -0.83272252655E+02  0.17951110175E+03  0.27445958221E+03  0.17113761372E+03 0.  0.
        -24    2    5    5    0    0 -0.37434818029E+02 -0.98321195831E+01  0.12233333707E+02  0.86126231738E+02  0.75960760682E+02 0.  0.
          5    1    3    3  501    0  0.10286633539E+03  0.35770312857E+02  0.30578495390E+01  0.10905245839E+03  0.47000000000E+01 0. -1.
        -11    1    4    4    0    0  0.19778946309E+02  0.92866851663E+01  0.13506886628E+02  0.25688231252E+02  0.00000000000E+00 0.  1.
         12    1    4    4    0    0 -0.39690621056E+02  0.38215254631E+02 -0.53581512589E+02  0.76855250814E+02  0.00000000000E+00 0. -1.
         -5    1    5    5    0  502 -0.45519842609E+02 -0.73440133072E+02  0.16727776805E+03  0.18833335047E+03  0.47000000000E+01 0.  1.
         13    1    6    6    0    0  0.19851677419E+02  0.94773361946E+01 -0.63238225185E+01  0.22888855999E+02  0.00000000000E+00 0. -1.
        -14    1    6    6    0    0 -0.57286495449E+02 -0.19309455778E+02  0.18557156225E+02  0.63237375739E+02  0.00000000000E+00 0.  1.
</event>
<event>
12    1  0.8133495E-002  0.1866385E+03  0.7818608E-02  0.1161750E+00
         21   -1    0    0  503  502  0.00000000000E+00  0.00000000000E+00  0.10568549021E+03  0.10568549021E+03  0.00000000000E+00 0. -1.
         21   -1    0    0  501  503 -0.00000000000E+00 -0.00000000000E+00 -0.52118356398E+03  0.52118356398E+03  0.00000000000E+00 0. -1.
          6    2    1    2  501    0 -0.22297968618E+02 -0.67829118181E+02 -0.39895140863E+03  0.44044992653E+03  0.17244107011E+03 0.  0.
         24    2    3    3    0    0  0.33676058712E+02 -0.71946020287E+02 -0.16358881684E+03  0.19844232288E+03  0.79421330549E+02 0.  0.
         -6    2    1    2    0  502  0.22297968618E+02  0.67829118181E+02 -0.16546665144E+02  0.18641912765E+03  0.17140685619E+03 0.  0.
        -24    2    5    5    0    0  0.17156208808E+02  0.63382565749E+02  0.53160087782E+02  0.11622417821E+03  0.79814657345E+02 0.  0.
          5    1    3    3  501    0 -0.55974027330E+02  0.41169021067E+01 -0.23536259178E+03  0.24200760366E+03  0.47000000000E+01 0. -1.
        -11    1    4    4    0    0 -0.51556324000E+01 -0.47775742356E+02 -0.28612167586E+02  0.55926364418E+02  0.00000000000E+00 0.  1.
         12    1    4    4    0    0  0.38831691112E+02 -0.24170277931E+02 -0.13497664926E+03  0.14251595846E+03  0.00000000000E+00 0. -1.
         -5    1    5    5    0  502  0.51417598104E+01  0.44465524314E+01 -0.69706752926E+02  0.70194949433E+02  0.47000000000E+01 0.  1.
         11    1    6    6    0    0  0.44106143812E+02  0.18661445104E+02  0.11060482286E+02  0.49152169065E+02  0.00000000000E+00 0. -1.
        -12    1    6    6    0    0 -0.26949935005E+02  0.44721120645E+02  0.42099605496E+02  0.67072009150E+02  0.00000000000E+00 0.  1.
</event>
<event>
12    1  0.8133495E-002  0.1886069E+03  0.7818608E-02  0.1160024E+00
         21   -1    0    0  503  502  0.00000000000E+00  0.00000000000E+00  0.15943230604E+03  0.15943230604E+03  0.00000000000E+00 0. -1.
         21   -1    0    0  501  503 -0.00000000000E+00 -0.00000000000E+00 -0.62326290080E+03  0.62326290080E+03  0.00000000000E+00 0.  1.
          6    2    1    2  501    0  0.16246976488E+02 -0.73077831759E+02 -0.54637879842E+03  0.57801589060E+03  0.17311338681E+03 0.  0.
         24    2    3    3    0    0  0.36869214402E+01 -0.86102252482E+02 -0.54677087220E+03  0.55931738158E+03  0.80314104465E+02 0.  0.
         -6    2    1    2    0  502 -0.16246976488E+02  0.73077831759E+02  0.82548203663E+02  0.20467931624E+03  0.17168308835E+03 0.  0.
        -24    2    5    5    0    0  0.23366894162E+02 -0.24838533395E+01 -0.43338415792E+01  0.82821174167E+02  0.79299328102E+02 0.  0.
          5    1    3    3  501    0  0.12560055047E+02  0.13024420723E+02  0.39207378463E+00  0.18698509026E+02  0.47000000000E+01 0. -1.
        -11    1    4    4    0    0 -0.31177699257E+02 -0.48933470894E+02 -0.18256286494E+03  0.19156130393E+03  0.00000000000E+00 0.  1.
         12    1    4    4    0    0  0.34864620698E+02 -0.37168781587E+02 -0.36420800726E+03  0.36775607765E+03  0.00000000000E+00 0. -1.
         -5    1    5    5    0  502 -0.39613870649E+02  0.75561685099E+02  0.86882045243E+02  0.12185814207E+03  0.47000000000E+01 0.  1.
         13    1    6    6    0    0 -0.41319215467E+01  0.33514993684E+02  0.10151251460E+02  0.35261529795E+02  0.00000000000E+00 0. -1.
        -14    1    6    6    0    0  0.27498815709E+02 -0.35998847023E+02 -0.14485093040E+02  0.47559644372E+02  0.00000000000E+00 0.  1.
</event>
<event>
12    1  0.8133495E-002  0.1982899E+03  0.7818608E-02  0.1151991E+00
         21   -1    0    0  501  502  0.00000000000E+00  0.00000000000E+00  0.60431029164E+03  0.60431029164E+03  0.00000000000E+00 0. -1.
         21   -1    0    0  502  503 -0.00000000000E+00 -0.00000000000E+00 -0.97909682439E+02  0.97909682439E+02  0.00000000000E+00 0. -1.
         -6    2    1    2    0  503 -0.80430059765E+02 -0.41305870853E+02  0.44555125562E+02  0.19960668376E+03  0.17228609784E+03 0.  0.
        -24    2    3    3    0    0 -0.12181110919E+03 -0.50476261736E+02  0.18585195124E+02  0.14967658655E+03  0.68351091894E+02 0.  0.
          6    2    1    2  501    0  0.80430059765E+02  0.41305870853E+02  0.46184548364E+03  0.50261329031E+03  0.17647577557E+03 0.  0.
         24    2    5    5    0    0  0.79959347644E+02 -0.21808766744E+02  0.39123075242E+03  0.40778602992E+03  0.79742240855E+02 0.  0.
          5    1    5    5  501    0  0.47071212064E+00  0.63114637597E+02  0.70614731214E+02  0.94827260392E+02  0.47000000000E+01 0. -1.
        -11    1    6    6    0    0  0.12527371977E+02 -0.17310072868E+02  0.25318661126E+03  0.25408666591E+03  0.00000000000E+00 0.  1.
         12    1    6    6    0    0  0.67431975668E+02 -0.44986938763E+01  0.13804414116E+03  0.15369936401E+03  0.00000000000E+00 0. -1.
         -5    1    3    3    0  503  0.41381049425E+02  0.91703908831E+01  0.25969930438E+02  0.49930097210E+02  0.47000000000E+01 0.  1.
         11    1    4    4    0    0 -0.73166913841E+02  0.52771771433E+01  0.18628574417E+02  0.75685333219E+02  0.00000000000E+00 0. -1.
        -12    1    4    4    0    0 -0.48644195348E+02 -0.55753438880E+02 -0.43379292734E-01  0.73991253333E+02  0.00000000000E+00 0.  1.
</event>
<event>
12    1  0.8133495E-002  0.1964807E+03  0.7818608E-02  0.1152773E+00
         21   -1    0    0  501  502  0.00000000000E+00  0.00000000000E+00  0.17898413888E+03  0.17898413888E+03  0.00000000000E+00 0. -1.
         21   -1    0    0  502  503 -0.00000000000E+00 -0.00000000000E+00 -0.22205545247E+04  0.22205545247E+04  0.00000000000E+00 0.  1.
         -6    2    1    2    0  503 -0.25067753759E+02  0.91352597171E+02 -0.21608065122E+04  0.21697084558E+04  0.17197764657E+03 0.  0.
        -24    2    3    3    0    0 -0.54288230264E+01  0.62889877910E+02 -0.59479548956E+03  0.60330862598E+03  0.78835365886E+02 0.  0.
          6    2    1    2  501    0  0.25067753759E+02 -0.91352597171E+02  0.11923612634E+03  0.22983020777E+03  0.17213651934E+03 0.  0.
         24    2    5    5    0    0  0.46158231490E+02  0.10601641611E+02  0.64301421769E+02  0.11201939832E+03  0.78553775337E+02 0.  0.
          5    1    5    5  501    0 -0.21090477731E+02 -0.10195423878E+03  0.54934704575E+02  0.11781080945E+03  0.47000000000E+01 0. -1.
        -11    1    6    6    0    0  0.41046848511E+02  0.18993246453E+01  0.81958053254E+02  0.91681915883E+02  0.00000000000E+00 0.  1.
         12    1    6    6    0    0  0.51113829792E+01  0.87023169652E+01 -0.17656631486E+02  0.20337482439E+02  0.00000000000E+00 0. -1.
         -5    1    3    3    0  503 -0.19638930733E+02  0.28462719261E+02 -0.15660110226E+04  0.15663998299E+04  0.47000000000E+01 0.  1.
         11    1    4    4    0    0  0.29184684948E+02  0.59167514704E+02 -0.40730164554E+03  0.41261019266E+03  0.00000000000E+00 0. -1.
        -12    1    4    4    0    0 -0.34613507975E+02  0.37223632062E+01 -0.18749384403E+03  0.19069843332E+03  0.00000000000E+00 0.  1.
</event>
<event>
12    1  0.8133495E-002  0.2014236E+03  0.7818608E-02  0.1148544E+00
         21   -1    0    0  501  502  0.00000000000E+00  0.00000000000E+00  0.62700692263E+03  0.62700692263E+03  0.00000000000E+00 0.  1.
         21   -1    0    0  502  503 -0.00000000000E+00 -0.00000000000E+00 -0.65969726594E+02  0.65969726594E+02  0.00000000000E+00 0.  1.
         -6    2    1    2    0  503 -0.10057647309E+03  0.20034910449E+02  0.23255200642E+03  0.30765340401E+03  0.17335846312E+03 0.  0.
        -24    2    3    3    0    0 -0.11595324894E+03  0.62964926679E+02  0.18221844953E+03  0.23957265432E+03  0.82351414175E+02 0.  0.
          6    2    1    2  501    0  0.10057647309E+03 -0.20034910449E+02  0.32848518962E+03  0.38532324522E+03  0.17336221887E+03 0.  0.
         24    2    5    5    0    0  0.36401869949E+02 -0.14471269976E+02  0.59292991172E+02  0.10849141271E+03  0.81976911626E+02 0.  0.
          5    1    5    5  501    0  0.64174603137E+02 -0.55636404724E+01  0.26919219845E+03  0.27683183251E+03  0.47000000000E+01 0. -1.
        -11    1    6    6    0    0 -0.52832915747E+01 -0.57652933404E+01  0.65050972561E+02  0.65519316299E+02  0.00000000000E+00 0.  1.
         12    1    6    6    0    0  0.41685161524E+02 -0.87059766359E+01 -0.57579813896E+01  0.42972096413E+02  0.00000000000E+00 0. -1.
         -5    1    3    3    0  503  0.15376775855E+02 -0.42930016230E+02  0.50333556884E+02  0.68080749686E+02  0.47000000000E+01 0.  1.
         13    1    4    4    0    0  0.42992780975E+01  0.98380045415E+01  0.57046816896E+02  0.58048337129E+02  0.00000000000E+00 0. -1.
        -14    1    4    4    0    0 -0.12025252704E+03  0.53126922137E+02  0.12517163264E+03  0.18152431719E+03  0.00000000000E+00 0.  1.
</event>
<event>
12    1  0.8133495E-002  0.1875314E+03  0.7818608E-02  0.1160783E+00
         21   -1    0    0  503  502  0.00000000000E+00  0.00000000000E+00  0.61910585154E+03  0.61910585154E+03  0.00000000000E+00 0. -1.
         21   -1    0    0  501  503 -0.00000000000E+00 -0.00000000000E+00 -0.68104657758E+02  0.68104657758E+02  0.00000000000E+00 0. -1.
          6    2    1    2  501    0 -0.67151642879E+02  0.28273495706E+02  0.13511826968E+03  0.23113843656E+03  0.17279842693E+03 0.  0.
         24    2    3    3    0    0 -0.15923307571E+02 -0.19178288925E+02  0.14181277836E+03  0.16083252891E+03  0.71658075329E+02 0.  0.
         -6    2    1    2    0  502  0.67151642879E+02 -0.28273495706E+02  0.41588292410E+03  0.45607207274E+03  0.17243664134E+03 0.  0.
        -24    2    5    5    0    0  0.15787741011E+02 -0.53071242568E+02  0.36996050188E+03  0.38269539029E+03  0.80741434523E+02 0.  0.
          5    1    3    3  501    0 -0.51228335308E+02  0.47451784631E+02 -0.66945086785E+01  0.70305907643E+02  0.47000000000E+01 0. -1.
        -13    1    4    4    0    0  0.18788644111E+02 -0.33331125847E+02  0.67078758566E+02  0.77223940255E+02  0.00000000000E+00 0.  1.
         14    1    4    4    0    0 -0.34711951683E+02  0.14152836922E+02  0.74734019795E+02  0.83608588658E+02  0.00000000000E+00 0. -1.
         -5    1    5    5    0  502  0.51363901867E+02  0.24797746862E+02  0.45922422224E+02  0.73376682450E+02  0.47000000000E+01 0.  1.
         11    1    6    6    0    0  0.86593552878E+01  0.66005896014E+01  0.23149490083E+03  0.23175081732E+03  0.00000000000E+00 0. -1.
        -12    1    6    6    0    0  0.71283857236E+01 -0.59671832169E+02  0.13846560104E+03  0.15094457297E+03  0.00000000000E+00 0.  1.
</event>
<event>
12    1  0.8133495E-002  0.2143141E+03  0.7818608E-02  0.1138421E+00
         21   -1    0    0  501  502  0.00000000000E+00  0.00000000000E+00  0.46951507824E+02  0.46951507824E+02  0.00000000000E+00 0.  1.
         21   -1    0    0  502  503 -0.00000000000E+00 -0.00000000000E+00 -0.11785460308E+04  0.11785460308E+04  0.00000000000E+00 0.  1.
         -6    2    1    2    0  503  0.12326399927E+03  0.31719328584E+02 -0.82302608506E+03  0.85047190904E+03  0.17242506212E+03 0.  0.
        -24    2    3    3    0    0  0.77791507566E+02  0.61422605433E+02 -0.32004053104E+03  0.34454050093E+03  0.80361434553E+02 0.  0.
          6    2    1    2  501    0 -0.12326399927E+03 -0.31719328584E+02 -0.30856843794E+03  0.37502562961E+03  0.17096670041E+03 0.  0.
         24    2    5    5    0    0 -0.15480037119E+03 -0.43071401354E+02 -0.26485575964E+03  0.31974181141E+03  0.79170398616E+02 0.  0.
          5    1    5    5  501    0  0.31536371921E+02  0.11352072769E+02 -0.43712678304E+02  0.55283818198E+02  0.47000000000E+01 0. -1.
        -11    1    6    6    0    0 -0.92106074843E+02 -0.97000113752E+01 -0.82456046073E+02  0.12400249505E+03  0.00000000000E+00 0.  1.
         12    1    6    6    0    0 -0.62694296352E+02 -0.33371389979E+02 -0.18239971356E+03  0.19573931637E+03  0.00000000000E+00 0. -1.
         -5    1    3    3    0  503  0.45472491708E+02 -0.29703276849E+02 -0.50298555402E+03  0.50593140811E+03  0.47000000000E+01 0.  1.
         13    1    4    4    0    0  0.13971671354E+02  0.37426073991E+02 -0.21921463535E+03  0.22282498730E+03  0.00000000000E+00 0. -1.
        -14    1    4    4    0    0  0.63819836212E+02  0.23996531442E+02 -0.10082589569E+03  0.12171551363E+03  0.00000000000E+00 0.  1.
</event>
<event>
12    1  0.8133495E-002  0.1915446E+03  0.7818608E-02  0.1157227E+00
         21   -1    0    0  503  502  0.00000000000E+00  0.00000000000E+00  0.13191661655E+03  0.13191661655E+03  0.00000000000E+00 0.  1.
         21   -1    0    0  501  503 -0.00000000000E+00 -0.00000000000E+00 -0.27737838674E+03  0.27737838674E+03  0.00000000000E+00 0.  1.
          6    2    1    2  501    0 -0.88671272100E+01  0.78122801901E+02 -0.66626007307E+02  0.20216119306E+03  0.17392045598E+03 0.  0.
         24    2    3    3    0    0 -0.52932929584E+02  0.47608174576E+02 -0.92832464573E+02  0.14231300326E+03  0.81035122619E+02 0.  0.
         -6    2    1    2    0  502  0.88671272100E+01 -0.78122801901E+02 -0.78835762888E+02  0.20713381023E+03  0.17466407676E+03 0.  0.
        -24    2    5    5    0    0  0.95396239771E+01 -0.55501167989E+01  0.16015282577E+02  0.87609512699E+02  0.85423235816E+02 0.  0.
          5    1    3    3  501    0  0.44065802374E+02  0.30514627324E+02  0.26206457266E+02  0.59848189797E+02  0.47000000000E+01 0. -1.
        -11    1    4    4    0    0 -0.24810376825E+01  0.49721785941E+02 -0.72344558641E+02  0.87818828904E+02  0.00000000000E+00 0.  1.
         12    1    4    4    0    0 -0.50451891901E+02 -0.21136113643E+01 -0.20487905932E+02  0.54494174357E+02  0.00000000000E+00 0. -1.
         -5    1    5    5    0  502 -0.67249676718E+00 -0.72572685102E+02 -0.94851045465E+02  0.11952429753E+03  0.47000000000E+01 0.  1.
         13    1    6    6    0    0 -0.27981211286E+02  0.23651933321E+02 -0.21758969848E+01  0.36702815458E+02  0.00000000000E+00 0. -1.
        -14    1    6    6    0    0  0.37520835264E+02 -0.29202050120E+02  0.18191179562E+02  0.50906697241E+02  0.00000000000E+00 0.  1.
</event>
<event>
12    1  0.8133495E-002  0.1914144E+03  0.7818608E-02  0.1157637E+00
         21   -1    0    0  503  502  0.00000000000E+00  0.00000000000E+00  0.16628615052E+03  0.16628615052E+03  0.00000000000E+00 0. -1.
         21   -1    0    0  501  503 -0.00000000000E+00 -0.00000000000E+00 -0.31557141505E+03  0.31557141505E+03  0.00000000000E+00 0. -1.
          6    2    1    2  501    0  0.58693359630E+02  0.47340559522E+02 -0.20829710255E+03  0.28155316268E+03  0.17377704521E+03 0.  0.
         24    2    3    3    0    0 -0.16224923979E+02  0.28132201155E+02 -0.38482658967E+02  0.94896404159E+02  0.80434716269E+02 0.  0.
         -6    2    1    2    0  502 -0.58693359630E+02 -0.47340559522E+02  0.59011838021E+02  0.20030440290E+03  0.17593583420E+03 0.  0.
        -24    2    5    5    0    0 -0.33297681103E+02 -0.22844084182E+02  0.10746851941E+03  0.14017822089E+03  0.80435459845E+02 0.  0.
          5    1    3    3  501    0  0.74918283609E+02  0.19208358368E+02 -0.16981444358E+03  0.18665675852E+03  0.47000000000E+01 0. -1.
        -13    1    4    4    0    0 -0.28822056062E+01 -0.26530338029E+02 -0.26006057621E+02  0.37262326525E+02  0.00000000000E+00 0.  1.
         14    1    4    4    0    0 -0.13342718373E+02  0.54662539184E+02 -0.12476601346E+02  0.57634077634E+02  0.00000000000E+00 0. -1.
         -5    1    5    5    0  502 -0.25395678527E+02 -0.24496475340E+02 -0.48456681386E+02  0.60126182008E+02  0.47000000000E+01 0.  1.
         13    1    6    6    0    0 -0.34209149233E+02 -0.51125458256E+02  0.77772715216E+02  0.99159838670E+02  0.00000000000E+00 0. -1.
        -14    1    6    6    0    0  0.91146813021E+00  0.28281374074E+02  0.29695804191E+02  0.41018382223E+02  0.00000000000E+00 0.  1.
</event>
<event>
12    1  0.8133495E-002  0.1879199E+03  0.7818608E-02  0.1160428E+00
         21   -1    0    0  501  502  0.00000000000E+00  0.00000000000E+00  0.11225047547E+04  0.11225047547E+04  0.00000000000E+00 0. -1.
         21   -1    0    0  502  503 -0.00000000000E+00 -0.00000000000E+00 -0.38180322013E+02  0.38180322013E+02  0.00000000000E+00 0. -1.
         -6    2    1    2    0  503  0.12907434919E+02  0.74391575394E+02  0.29806163610E+03  0.35235583684E+03  0.17208482929E+03 0.  0.
        -24    2    3    3    0    0  0.64705024164E+02  0.53173066990E+02  0.12282707206E+03  0.16833828935E+03  0.78975786311E+02 0.  0.
          6    2    1    2  501    0 -0.12907434919E+02 -0.74391575394E+02  0.78626279659E+03  0.80832923988E+03  0.17171565560E+03 0.  0.
         24    2    5    5    0    0 -0.50301307453E+02 -0.10111029053E+03  0.63644880712E+03  0.65155388186E+03  0.81864916172E+02 0.  0.
          5    1    5    5  501    0  0.37393872534E+02  0.26718715135E+02  0.14981398947E+03  0.15677535802E+03  0.47000000000E+01 0. -1.
        -13    1    6    6    0    0 -0.45253647864E+02 -0.38856156863E+02  0.15516756546E+03  0.16623677975E+03  0.00000000000E+00 0.  1.
         14    1    6    6    0    0 -0.50476595891E+01 -0.62254133666E+02  0.48128124166E+03  0.48531710211E+03  0.00000000000E+00 0. -1.
         -5    1    3    3    0  503 -0.51797589245E+02  0.21218508404E+02  0.17523456404E+03  0.18401754749E+03  0.47000000000E+01 0.  1.
         13    1    4    4    0    0  0.54028789289E+02 -0.65349368451E+01  0.55967657633E+02  0.78065319910E+02  0.00000000000E+00 0. -1.
        -14    1    4    4    0    0  0.10676234874E+02  0.59708003835E+02  0.66859414428E+02  0.90272969436E+02  0.00000000000E+00 0.  1.
</event>
<event>
12    1  0.8133495E-002  0.2501560E+03  0.7818608E-02  0.1113217E+00
         21   -1    0    0  501  502  0.00000000000E+00  0.00000000000E+00  0.60440738401E+03  0.60440738401E+03  0.00000000000E+00 0. -1.
         21   -1    0    0  502  503 -0.00000000000E+00 -0.00000000000E+00 -0.12182363480E+03  0.12182363480E+03  0.00000000000E+00 0.  1.
         -6    2    1    2    0  503  0.50831156971E+02 -0.17431935020E+03  0.10052599324E+03  0.26959876726E+03  0.17206678244E+03 0.  0.
        -24    2    3    3    0    0 -0.27196025249E+02 -0.12103711029E+03  0.30872580813E+02  0.15212142427E+03  0.82451231759E+02 0.  0.
          6    2    1    2  501    0 -0.50831156971E+02  0.17431935020E+03  0.38205775597E+03  0.45663225155E+03  0.17197046805E+03 0.  0.
         24    2    5    5    0    0 -0.34370101991E+01  0.89661050099E+02  0.93502813430E+02  0.15216669062E+03  0.79755931891E+02 0.  0.
          5    1    5    5  501    0 -0.47394146772E+02  0.84658300102E+02  0.28855494254E+03  0.30446556092E+03  0.47000000000E+01 0. -1.
        -11    1    6    6    0    0  0.17789997025E+02  0.96151107243E+02  0.78183436473E+02  0.12519652214E+03  0.00000000000E+00 0.  1.
         12    1    6    6    0    0 -0.21227007224E+02 -0.64900571439E+01  0.15319376957E+02  0.26970168479E+02  0.00000000000E+00 0. -1.
         -5    1    3    3    0  503  0.78027182220E+02 -0.53282239914E+02  0.69653412423E+02  0.11747734300E+03  0.47000000000E+01 0.  1.
         11    1    4    4    0    0 -0.19455293031E+02 -0.18739577149E+01  0.26106017955E+02  0.32612027197E+02  0.00000000000E+00 0. -1.
        -12    1    4    4    0    0 -0.77407322188E+01 -0.11916315257E+03  0.47665628581E+01  0.11950939707E+03  0.00000000000E+00 0.  1.
</event>
<event>
12    1  0.8133495E-002  0.1780873E+03  0.7818608E-02  0.1170301E+00
         21   -1    0    0  501  502  0.00000000000E+00  0.00000000000E+00  0.58145621158E+02  0.58145621158E+02  0.00000000000E+00 0. -1.
         21   -1    0    0  502  503 -0.00000000000E+00 -0.00000000000E+00 -0.10893657343E+04  0.10893657343E+04  0.00000000000E+00 0. -1.
         -6    2    1    2    0  503  0.27809008789E+02 -0.15505724944E+02 -0.92578080996E+03  0.94275404214E+03  0.17521788549E+03 0.  0.
        -24    2    3    3    0    0  0.70895323492E+02  0.34684169526E+02 -0.57717381595E+03  0.58789578551E+03  0.79137237094E+02 0.  0.
          6    2    1    2  501    0 -0.27809008789E+02  0.15505724944E+02 -0.10543930319E+03  0.20475731333E+03  0.17261037694E+03 0.  0.
         24    2    5    5    0    0  0.91623737347E+01  0.47996273278E+02 -0.12098126599E+03  0.15292912153E+03  0.79770032919E+02 0.  0.
          5    1    5    5  501    0 -0.36971382524E+02 -0.32490548334E+02  0.15541962802E+02  0.51828191793E+02  0.47000000000E+01 0. -1.
        -11    1    6    6    0    0  0.12362131458E+01 -0.12399147532E+02 -0.76488406943E+02  0.77496732054E+02  0.00000000000E+00 0.  1.
         12    1    6    6    0    0  0.79261605889E+01  0.60395420810E+02 -0.44492859044E+02  0.75432389478E+02  0.00000000000E+00 0. -1.
         -5    1    3    3    0  503 -0.43086314702E+02 -0.50189894471E+02 -0.34860699401E+03  0.35485825662E+03  0.47000000000E+01 0.  1.
         11    1    4    4    0    0  0.22154265565E+02  0.40577335142E+02 -0.43568455935E+03  0.43813053633E+03  0.00000000000E+00 0. -1.
        -12    1    4    4    0    0  0.48741057926E+02 -0.58931656160E+01 -0.14148925660E+03  0.14976524918E+03  0.00000000000E+00 0.  1.
</event>
<event>
12    1  0.8133495E-002  0.1775435E+03  0.7818608E-02  0.1170294E+00
         21   -1    0    0  501  502  0.00000000000E+00  0.00000000000E+00  0.41420697342E+03  0.41420697342E+03  0.00000000000E+00 0. -1.
         21   -1    0    0  502  503 -0.00000000000E+00 -0.00000000000E+00 -0.18801743596E+03  0.18801743596E+03  0.00000000000E+00 0. -1.
         -6    2    1    2    0  503 -0.33976849978E+02  0.30204064390E+02 -0.11943355987E+03  0.21366679215E+03  0.17123787841E+03 0.  0.
        -24    2    3    3    0    0  0.43570924900E+02  0.38339455453E+02 -0.79844507238E+02  0.12609268031E+03  0.78459412115E+02 0.  0.
          6    2    1    2  501    0  0.33976849978E+02 -0.30204064390E+02  0.34562309734E+03  0.38855761723E+03  0.17162454561E+03 0.  0.
         24    2    5    5    0    0  0.58914974499E+01 -0.25782717274E+02  0.34949783206E+03  0.35948118509E+03  0.79865697060E+02 0.  0.
          5    1    5    5  501    0  0.28085352529E+02 -0.44213471166E+01 -0.38747347211E+01  0.29076432143E+02  0.47000000000E+01 0. -1.
        -13    1    6    6    0    0 -0.25180384508E+02 -0.66870286559E+01  0.39329406582E+02  0.47175950847E+02  0.00000000000E+00 0.  1.
         14    1    6    6    0    0  0.31071881958E+02 -0.19095688618E+02  0.31016842548E+03  0.31230523425E+03  0.00000000000E+00 0. -1.
         -5    1    3    3    0  503 -0.77547774878E+02 -0.81353910623E+01 -0.39589052637E+02  0.87574111842E+02  0.47000000000E+01 0.  1.
         13    1    4    4    0    0  0.20168752514E+01  0.21537178172E+02  0.11386673156E+02  0.24445329921E+02  0.00000000000E+00 0. -1.
        -14    1    4    4    0    0  0.41554049648E+02  0.16802277281E+02 -0.91231180394E+02  0.10164735038E+03  0.00000000000E+00 0.  1.
</event>
<event>
12    1  0.8133495E-002  0.2277404E+03  0.7818608E-02  0.1128288E+00
         21   -1    0    0  501  502  0.00000000000E+00  0.00000000000E+00  0.18238805685E+03  0.18238805685E+03  0.00000000000E+00 0.  1.
         21   -1    0    0  502  503 -0.00000000000E+00 -0.00000000000E+00 -0.61517848010E+03  0.61517848010E+03  0.00000000000E+00 0. -1.
         -6    2    1    2    0  503 -0.14778967946E+03 -0.94251536855E+01 -0.50903275939E+03  0.55765584198E+03  0.17301752827E+03 0.  0.
        -24    2    3    3    0    0 -0.20281794094E+02  0.71656676931E+01 -0.30736949819E+03  0.31844113277E+03  0.80411744527E+02 0.  0.
          6    2    1    2  501    0  0.14778967946E+03  0.94251536855E+01  0.76242336145E+02  0.23991069497E+03  0.17266622386E+03 0.  0.
         24    2    5    5    0    0  0.70761231427E+02  0.69436568086E+02  0.54546161365E+02  0.13977296150E+03  0.82052472147E+02 0.  0.
          5    1    5    5  501    0  0.77028448036E+02 -0.60011414400E+02  0.21696174781E+02  0.10013773347E+03  0.47000000000E+01 0. -1.
        -13    1    6    6    0    0  0.41106799794E+02  0.18248937370E+02  0.65654411297E+02  0.79581998135E+02  0.00000000000E+00 0.  1.
         14    1    6    6    0    0  0.29654431633E+02  0.51187630716E+02 -0.11108249933E+02  0.60190963362E+02  0.00000000000E+00 0. -1.
         -5    1    3    3    0  503 -0.12750788537E+03 -0.16590821379E+02 -0.20166326120E+03  0.23921470921E+03  0.47000000000E+01 0.  1.
         11    1    4    4    0    0 -0.14884679651E+02  0.38271894944E+02 -0.91721759091E+02  0.10049464026E+03  0.00000000000E+00 0. -1.
        -12    1    4    4    0    0 -0.53971144431E+01 -0.31106227250E+02 -0.21564773910E+03  0.21794649251E+03  0.00000000000E+00 0.  1.
</event>
<event>
12    1  0.8133495E-002  0.1818747E+03  0.7818608E-02  0.1166056E+00
         21   -1    0    0  503  502  0.00000000000E+00  0.00000000000E+00  0.34328893056E+03  0.34328893056E+03  0.00000000000E+00 0. -1.
         21   -1    0    0  501  503 -0.00000000000E+00 -0.00000000000E+00 -0.10894425677E+03  0.10894425677E+03  0.00000000000E+00 0. -1.
          6    2    1    2  501    0 -0.45059559085E+02  0.40546216812E+02  0.39872947421E+02  0.18596702553E+03  0.17122944574E+03 0.  0.
         24    2    3    3    0    0  0.33265861739E+02 -0.89545778795E+01  0.47541103565E+01  0.86767111526E+02  0.79492943430E+02 0.  0.
         -6    2    1    2    0  502  0.45059559085E+02 -0.40546216812E+02  0.19447172638E+03  0.26626616180E+03  0.17147611203E+03 0.  0.
        -24    2    5    5    0    0  0.58287324900E+02 -0.82047054221E+02  0.17518911997E+03  0.21839965781E+03  0.82934018515E+02 0.  0.
          5    1    3    3  501    0 -0.78325420824E+02  0.49500794692E+02  0.35118837064E+02  0.99199914008E+02  0.47000000000E+01 0. -1.
        -13    1    4    4    0    0  0.22156262235E+02 -0.42724619357E+02  0.13831538146E+02  0.50075987289E+02  0.00000000000E+00 0.  1.
         14    1    4    4    0    0  0.11109599504E+02  0.33770041478E+02 -0.90774277891E+01  0.36691124238E+02  0.00000000000E+00 0. -1.
         -5    1    5    5    0  502 -0.13227765815E+02  0.41500837409E+02  0.19282606410E+02  0.47866503988E+02  0.47000000000E+01 0.  1.
         13    1    6    6    0    0  0.53130308406E+02 -0.58123940217E+01  0.82147649782E+02  0.98004336436E+02  0.00000000000E+00 0. -1.
        -14    1    6    6    0    0  0.51570164938E+01 -0.76234660199E+02  0.93041470183E+02  0.12039532137E+03  0.00000000000E+00 0.  1.
</event>
<event>
12    1  0.8133495E-002  0.1677352E+03  0.7818608E-02  0.1180467E+00
         21   -1    0    0  503  502  0.00000000000E+00  0.00000000000E+00  0.26038430535E+03  0.26038430535E+03  0.00000000000E+00 0. -1.
         21   -1    0    0  501  503 -0.00000000000E+00 -0.00000000000E+00 -0.20298370886E+03  0.20298370886E+03  0.00000000000E+00 0. -1.
          6    2    1    2  501    0  0.28444609435E+01 -0.13134607818E+02 -0.13017837734E+03  0.21232403206E+03  0.16719592035E+03 0.  0.
         24    2    3    3    0    0  0.36314599518E+02  0.41360498372E+02 -0.49341262301E+02  0.10914120430E+03  0.80298202644E+02 0.  0.
         -6    2    1    2    0  502 -0.28444609435E+01  0.13134607818E+02  0.18757897383E+03  0.25104398214E+03  0.16630273800E+03 0.  0.
        -24    2    5    5    0    0 -0.56419667707E+01  0.63793660154E+02  0.16784409268E+03  0.19640222927E+03  0.79377158883E+02 0.  0.
          5    1    3    3  501    0 -0.33470138574E+02 -0.54495106190E+02 -0.80837115044E+02  0.10318282775E+03  0.47000000000E+01 0. -1.
        -13    1    4    4    0    0 -0.45470121960E+01 -0.54878332813E+01  0.16874276845E+02  0.18317555871E+02  0.00000000000E+00 0.  1.
         14    1    4    4    0    0  0.40861611714E+02  0.46848331653E+02 -0.66215539145E+02  0.90823648434E+02  0.00000000000E+00 0. -1.
         -5    1    5    5    0  502  0.27975058272E+01 -0.50659052336E+02  0.19734881158E+02  0.54641752871E+02  0.47000000000E+01 0.  1.
         13    1    6    6    0    0 -0.30820931722E+02  0.69389672082E+02  0.13129600156E+03  0.15166903590E+03  0.00000000000E+00 0. -1.
        -14    1    6    6    0    0  0.25178964951E+02 -0.55960119278E+01  0.36548091112E+02  0.44733193374E+02  0.00000000000E+00 0.  1.
</event>
<event>
12    1  0.8133495E-002  0.1853324E+03  0.7818608E-02  0.1162791E+00
         21   -1    0    0  503  502  0.00000000000E+00  0.00000000000E+00  0.12675198547E+04  0.12675198547E+04  0.00000000000E+00 0. -1.
         21   -1    0    0  501  503 -0.00000000000E+00 -0.00000000000E+00 -0.77663798106E+02  0.77663798106E+02  0.00000000000E+00 0. -1.
          6    2    1    2  501    0 -0.62462082076E+02 -0.27146427371E+02  0.52169113907E+02  0.19253495627E+03  0.17236488251E+03 0.  0.
         24    2    3    3    0    0 -0.82177971337E+02  0.33815381093E+02  0.26964777746E+02  0.12352476179E+03  0.81452861004E+02 0.  0.
         -6    2    1    2    0  502  0.62462082076E+02  0.27146427371E+02  0.11376869427E+04  0.11526486965E+04  0.17213075798E+03 0.  0.
        -24    2    5    5    0    0  0.50221360450E+02 -0.33261610959E+02  0.95906185398E+03  0.96363023533E+03  0.71798822187E+02 0.  0.
          5    1    3    3  501    0  0.19715889261E+02 -0.60961808464E+02  0.25204336161E+02  0.69010194478E+02  0.47000000000E+01 0. -1.
        -11    1    4    4    0    0 -0.26524194835E+02 -0.82622654864E+01  0.43693072071E+02  0.51777239108E+02  0.00000000000E+00 0.  1.
         12    1    4    4    0    0 -0.55653776502E+02  0.42077646579E+02 -0.16728294325E+02  0.71747522686E+02  0.00000000000E+00 0. -1.
         -5    1    5    5    0  502  0.12240721626E+02  0.60408038331E+02  0.17862508867E+03  0.18901846117E+03  0.47000000000E+01 0.  1.
         13    1    6    6    0    0 -0.13430149027E+02 -0.16748779960E+02  0.42392568130E+03  0.42446893149E+03  0.00000000000E+00 0. -1.
        -14    1    6    6    0    0  0.63651509478E+02 -0.16512830999E+02  0.53513617268E+03  0.53916130384E+03  0.00000000000E+00 0.  1.
</event>
<event>
12    1  0.8133495E-002  0.2372886E+03  0.7818608E-02  0.1121759E+00
         21   -1    0    0  501  502  0.00000000000E+00  0.00000000000E+00  0.12211454131E+03  0.12211454131E+03  0.00000000000E+00 0.  1.
         21   -1    0    0  502  503 -0.00000000000E+00 -0.00000000000E+00 -0.87184354379E+03  0.87184354379E+03  0.00000000000E+00 0. -1.
         -6    2    1    2    0  503  0.83842746707E+02  0.13921657150E+03 -0.71704140319E+03  0.75528420864E+03  0.17290171189E+03 0.  0.
        -24    2    3    3    0    0  0.22778365325E+01  0.12518472727E+03 -0.53563650293E+03  0.55583608239E+03  0.79817809654E+02 0.  0.
          6    2    1    2  501    0 -0.83842746707E+02 -0.13921657150E+03 -0.32687599295E+02  0.23867387647E+03  0.17171453115E+03 0.  0.
         24    2    5    5    0    0 -0.59103935998E+02 -0.42976137753E+02  0.39091245873E+02  0.11600145717E+03  0.81166427146E+02 0.  0.
          5    1    5    5  501    0 -0.24738810708E+02 -0.96240433743E+02 -0.71778845168E+02  0.12267241930E+03  0.47000000000E+01 0. -1.
        -11    1    6    6    0    0 -0.39083037210E+02 -0.53663367803E+02  0.56677588414E+02  0.87290262171E+02  0.00000000000E+00 0.  1.
         12    1    6    6    0    0 -0.20020898789E+02  0.10687230051E+02 -0.17586342541E+02  0.28711195002E+02  0.00000000000E+00 0. -1.
         -5    1    3    3    0  503  0.81564910174E+02  0.14031844226E+02 -0.18140490026E+03  0.19944812624E+03  0.47000000000E+01 0.  1.
         11    1    4    4    0    0  0.12011435687E+02  0.39350907367E+02 -0.33331604069E+03  0.33584572571E+03  0.00000000000E+00 0. -1.
        -12    1    4    4    0    0 -0.97335991541E+01  0.85833819903E+02 -0.20232046224E+03  0.21999035669E+03  0.00000000000E+00 0.  1.
</event>
<event>
12    1  0.8133495E-002  0.2102021E+03  0.7818608E-02  0.1141704E+00
         21   -1    0    0  501  502  0.00000000000E+00  0.00000000000E+00  0.96350168002E+02  0.96350168002E+02  0.00000000000E+00 0. -1.
         21   -1    0    0  502  503 -0.00000000000E+00 -0.00000000000E+00 -0.50162259253E+03  0.50162259253E+03  0.00000000000E+00 0.  1.
         -6    2    1    2    0  503  0.99143259475E+02 -0.70105896708E+02 -0.29413643354E+03  0.36152615310E+03  0.17158291053E+03 0.  0.
        -24    2    3    3    0    0  0.11098254783E+03 -0.89695725981E+02 -0.29123942772E+03  0.33798018099E+03  0.95119657823E+02 0.  0.
          6    2    1    2  501    0 -0.99143259475E+02  0.70105896708E+02 -0.11113599099E+03  0.23644660743E+03  0.16973970373E+03 0.  0.
         24    2    5    5    0    0 -0.44886598719E+02  0.98255355764E+00 -0.33754368944E+01  0.97319870884E+02  0.86278569405E+02 0.  0.
          5    1    5    5  501    0 -0.54256660756E+02  0.69123343151E+02 -0.10776055409E+03  0.13912673655E+03  0.47000000000E+01 0. -1.
        -11    1    6    6    0    0  0.23947308793E+02 -0.21146257383E+01  0.11776589271E+02  0.26770007384E+02  0.00000000000E+00 0.  1.
         12    1    6    6    0    0 -0.68833907513E+02  0.30971792959E+01 -0.15152026166E+02  0.70549863501E+02  0.00000000000E+00 0. -1.
         -5    1    3    3    0  503 -0.11839288355E+02  0.19589829273E+02 -0.28970058262E+01  0.23545972107E+02  0.47000000000E+01 0.  1.
         11    1    4    4    0    0  0.43942885484E+01 -0.52888826619E+02 -0.13696487651E+03  0.14688742340E+03  0.00000000000E+00 0. -1.
        -12    1    4    4    0    0  0.10658825928E+03 -0.36806899362E+02 -0.15427455120E+03  0.19109275760E+03  0.00000000000E+00 0.  1.
</event>
<event>
12    1  0.8133495E-002  0.1819794E+03  0.7818608E-02  0.1166093E+00
         21   -1    0    0  503  502  0.00000000000E+00  0.00000000000E+00  0.20186357154E+03  0.20186357154E+03  0.00000000000E+00 0. -1.
         21   -1    0    0  501  503 -0.00000000000E+00 -0.00000000000E+00 -0.36098536964E+03  0.36098536964E+03  0.00000000000E+00 0.  1.
          6    2    1    2  501    0 -0.30223565581E+02  0.50705458220E+02 -0.28788261093E+03  0.34057727693E+03  0.17213941000E+03 0.  0.
         24    2    3    3    0    0  0.14470646925E+02  0.26362083781E+02 -0.27523488630E+03  0.28792533064E+03  0.79008824204E+02 0.  0.
         -6    2    1    2    0  502  0.30223565581E+02 -0.50705458220E+02  0.12876081283E+03  0.22227166425E+03  0.17129167637E+03 0.  0.
        -24    2    5    5    0    0  0.78800574529E+02 -0.35253514784E+02  0.12559623201E+03  0.17098235809E+03  0.77512659809E+02 0.  0.
          5    1    3    3  501    0 -0.44694212506E+02  0.24343374439E+02 -0.12647724636E+02  0.52651946299E+02  0.47000000000E+01 0. -1.
        -11    1    4    4    0    0 -0.31248214296E+02  0.22578072847E+02 -0.13308338868E+03  0.13855471342E+03  0.00000000000E+00 0.  1.
         12    1    4    4    0    0  0.45718861221E+02  0.37840109335E+01 -0.14215149762E+03  0.14937061721E+03  0.00000000000E+00 0. -1.
         -5    1    5    5    0  502 -0.48577008948E+02 -0.15451943436E+02  0.31645808202E+01  0.51289306157E+02  0.47000000000E+01 0.  1.
         11    1    6    6    0    0  0.39871289343E+02 -0.32923657767E+02  0.12115935870E+03  0.13173183805E+03  0.00000000000E+00 0. -1.
        -12    1    6    6    0    0  0.38929285186E+02 -0.23298570165E+01  0.44368733157E+01  0.39250520043E+02  0.00000000000E+00 0.  1.
</event>
<event>
12    1  0.8133495E-002  0.2037398E+03  0.7818608E-02  0.1148712E+00
         21   -1    0    0  501  502  0.00000000000E+00  0.00000000000E+00  0.12630853535E+04  0.12630853535E+04  0.00000000000E+00 0. -1.
         21   -1    0    0  502  503 -0.00000000000E+00 -0.00000000000E+00 -0.72767166762E+02  0.72767166762E+02  0.00000000000E+00 0.  1.
         -6    2    1    2    0  503 -0.10510088942E+03 -0.33169169582E+02  0.11057325501E+04  0.11243461922E+04  0.17135780342E+03 0.  0.
        -24    2    3    3    0    0 -0.33619658811E+02  0.37113802878E+02  0.70098480522E+03  0.70734248774E+03  0.80286873078E+02 0.  0.
          6    2    1    2  501    0  0.10510088942E+03  0.33169169582E+02  0.84585636617E+02  0.21150632804E+03  0.15947979845E+03 0.  0.
         24    2    5    5    0    0  0.14884792728E+02  0.54287021821E+02  0.23256116093E+02  0.10029343368E+03  0.79682420331E+02 0.  0.
          5    1    5    5  501    0  0.90216096696E+02 -0.21117852238E+02  0.61329520523E+02  0.11121289437E+03  0.47000000000E+01 0. -1.
        -11    1    6    6    0    0  0.35249662620E+02  0.51957562389E+02  0.39466771113E+02  0.74160319756E+02  0.00000000000E+00 0.  1.
         12    1    6    6    0    0 -0.20364869892E+02  0.23294594324E+01 -0.16210655019E+02  0.26133113920E+02  0.00000000000E+00 0. -1.
         -5    1    3    3    0  503 -0.71481230612E+02 -0.70282972460E+02  0.40474774490E+03  0.41700370448E+03  0.47000000000E+01 0.  1.
         13    1    4    4    0    0 -0.36523886678E+02 -0.68683005457E+01  0.50934226449E+03  0.51069629942E+03  0.00000000000E+00 0. -1.
        -14    1    4    4    0    0  0.29042278663E+01  0.43982103423E+02  0.19164254074E+03  0.19664618832E+03  0.00000000000E+00 0.  1.
</event>
<event>
12    1  0.8133495E-002  0.2004839E+03  0.7818608E-02  0.1149611E+00
         21   -1    0    0  501  502  0.00000000000E+00  0.00000000000E+00  0.93417848141E+02  0.93417848141E+02  0.00000000000E+00 0.  1.
         21   -1    0    0  502  503 -0.00000000000E+00 -0.00000000000E+00 -0.48627293809E+03  0.48627293809E+03  0.00000000000E+00 0.  1.
         -6    2    1    2    0  503  0.80816859724E+02  0.62169788657E+02 -0.29669222689E+03  0.35733728676E+03  0.17107662486E+03 0.  0.
        -24    2    3    3    0    0  0.30545873235E+02 -0.31814353179E+02 -0.11135337517E+03  0.14348506919E+03  0.79013843597E+02 0.  0.
          6    2    1    2  501    0 -0.80816859724E+02 -0.62169788657E+02 -0.96162863055E+02  0.22235349947E+03  0.17261904605E+03 0.  0.
         24    2    5    5    0    0 -0.35662784578E+01 -0.63761116501E+02 -0.10365272920E+03  0.14458221476E+03  0.77986731151E+02 0.  0.
          5    1    5    5  501    0 -0.77250581266E+02  0.15913278435E+01  0.74898661443E+01  0.77771284708E+02  0.47000000000E+01 0. -1.
        -11    1    6    6    0    0 -0.38586153605E+02 -0.40206536972E+02 -0.75543962635E+02  0.93874102691E+02  0.00000000000E+00 0.  1.
         12    1    6    6    0    0  0.35019875147E+02 -0.23554579529E+02 -0.28108766564E+02  0.50708112071E+02  0.00000000000E+00 0. -1.
         -5    1    3    3    0  503  0.50270986489E+02  0.93984141837E+02 -0.18533885173E+03  0.21385221757E+03  0.47000000000E+01 0.  1.
         11    1    4    4    0    0  0.56136162145E+01  0.20012404455E+02 -0.32529958607E+01  0.21037846875E+02  0.00000000000E+00 0. -1.
        -12    1    4    4    0    0  0.24932257021E+02 -0.51826757634E+02 -0.10810037931E+03  0.12244722232E+03  0.00000000000E+00 0.  1.
</event>
<event>
12    1  0.8133495E-002  0.2142568E+03  0.7818608E-02  0.1139641E+00
         21   -1    0    0  503  502  0.00000000000E+00  0.00000000000E+00  0.19202827186E+04  0.19202827186E+04  0.00000000000E+00 0. -1.
         21   -1    0    0  501  503 -0.00000000000E+00 -0.00000000000E+00 -0.48722103899E+02  0.48722103899E+02  0.00000000000E+00 0.  1.
          6    2    1    2  501    0  0.33745197374E+02  0.10635422380E+03  0.21459216911E+03  0.29824140863E+03  0.17449406726E+03 0.  0.
         24    2    3    3    0    0  0.37489585435E+02  0.25935262896E+02  0.19670082839E+02  0.87296061602E+02  0.71802390870E+02 0.  0.
         -6    2    1    2    0  502 -0.33745197374E+02 -0.10635422380E+03  0.16569684455E+04  0.16707634138E+04  0.18290980343E+03 0.  0.
        -24    2    5    5    0    0 -0.75266358380E+02 -0.30801704144E+02  0.62490497386E+03  0.63509489078E+03  0.78901991506E+02 0.  0.
          5    1    3    3  501    0 -0.37443880613E+01  0.80418960899E+02  0.19492208627E+03  0.21094534702E+03  0.47000000000E+01 0. -1.
        -13    1    4    4    0    0  0.70376527600E+01  0.43243757611E+02  0.27063042169E+02  0.51497178371E+02  0.00000000000E+00 0.  1.
         14    1    4    4    0    0  0.30451932675E+02 -0.17308494715E+02 -0.73929593303E+01  0.35798883231E+02  0.00000000000E+00 0. -1.
         -5    1    5    5    0  502  0.41521161006E+02 -0.75552519651E+02  0.10320634717E+04  0.10356685231E+04  0.47000000000E+01 0.  1.
         11    1    6    6    0    0 -0.58277478015E+02  0.72554845325E+01  0.20860720835E+03  0.21671611356E+03  0.00000000000E+00 0. -1.
        -12    1    6    6    0    0 -0.16988880365E+02 -0.38057188677E+02  0.41629776550E+03  0.41837877722E+03  0.00000000000E+00 0.  1.
</event>
<event>
12    1  0.8133495E-002  0.3038030E+03  0.7818608E-02  0.1083420E+00
         21   -1    0    0  503  502  0.00000000000E+00  0.00000000000E+00  0.15981466572E+03  0.15981466572E+03  0.00000000000E+00 0.  1.
         21   -1    0    0  501  503 -0.00000000000E+00 -0.00000000000E+00 -0.10076979512E+04  0.10076979512E+04  0.00000000000E+00 0. -1.
          6    2    1    2  501    0 -0.83538395196E+02 -0.23620155492E+03 -0.80600583440E+03  0.86136034350E+03  0.17183247150E+03 0.  0.
         24    2    3    3    0    0 -0.55341262364E+02 -0.90579547914E+02 -0.54742526351E+03  0.56322136774E+03  0.79224870719E+02 0.  0.
         -6    2    1    2    0  502  0.83538395196E+02  0.23620155492E+03 -0.41877451103E+02  0.30615227344E+03  0.17089662256E+03 0.  0.
        -24    2    5    5    0    0  0.44766134792E+02  0.15122367705E+03 -0.92546921518E+02  0.19978492348E+03  0.80476553387E+02 0.  0.
          5    1    3    3  501    0 -0.28197132831E+02 -0.14562200701E+03 -0.25858057089E+03  0.29813897576E+03  0.47000000000E+01 0. -1.
        -13    1    4    4    0    0 -0.53222983966E+02 -0.15013698515E+02 -0.18971147825E+03  0.19760703971E+03  0.00000000000E+00 0.  1.
         14    1    4    4    0    0 -0.21182783986E+01 -0.75565849399E+02 -0.35771378526E+03  0.36561432803E+03  0.00000000000E+00 0. -1.
         -5    1    5    5    0  502  0.38772260403E+02  0.84977877874E+02  0.50669470415E+02  0.10636734996E+03  0.47000000000E+01 0.  1.
         11    1    6    6    0    0  0.40186771128E+02  0.26150705591E+02 -0.45436318416E+02  0.66055242092E+02  0.00000000000E+00 0. -1.
        -12    1    6    6    0    0  0.45793636641E+01  0.12507297146E+03 -0.47110603102E+02  0.13372968139E+03  0.00000000000E+00 0.  1.
</event>
<event>
12    1  0.8133495E-002  0.2141429E+03  0.7818608E-02  0.1138484E+00
         21   -1    0    0  503  502  0.00000000000E+00  0.00000000000E+00  0.52146254567E+02  0.52146254567E+02  0.00000000000E+00 0.  1.
         21   -1    0    0  501  503 -0.00000000000E+00 -0.00000000000E+00 -0.87688549017E+03  0.87688549017E+03  0.00000000000E+00 0.  1.
          6    2    1    2  501    0 -0.37990900962E+02 -0.12138309725E+03 -0.42577948219E+03  0.47623371391E+03  0.17126943088E+03 0.  0.
         24    2    3    3    0    0 -0.54239410808E+01 -0.33619199047E+02 -0.80627449834E+02  0.11858147480E+03  0.80006942301E+02 0.  0.
         -6    2    1    2    0  502  0.37990900962E+02  0.12138309725E+03 -0.39895975341E+03  0.45279803083E+03  0.17227886413E+03 0.  0.
        -24    2    5    5    0    0  0.38554908724E+02  0.72292570443E+01 -0.22692821901E+03  0.24628324645E+03  0.87294202303E+02 0.  0.
          5    1    3    3  501    0 -0.32566959881E+02 -0.87763898200E+02 -0.34515203236E+03  0.35765223911E+03  0.47000000000E+01 0. -1.
        -11    1    4    4    0    0 -0.64175034043E+01 -0.38274503701E+02 -0.95436881320E+02  0.10302582346E+03  0.00000000000E+00 0.  1.
         12    1    4    4    0    0  0.99356232345E+00  0.46553046539E+01  0.14809431486E+02  0.15555651335E+02  0.00000000000E+00 0. -1.
         -5    1    5    5    0  502 -0.56400776274E+00  0.11415384020E+03 -0.17203153441E+03  0.20651478438E+03  0.47000000000E+01 0.  1.
         13    1    6    6    0    0 -0.27647898599E+02  0.99618769455E+01 -0.73653554687E+02  0.79300008873E+02  0.00000000000E+00 0. -1.
        -14    1    6    6    0    0  0.66202807323E+02 -0.27326199012E+01 -0.15327466432E+03  0.16698323758E+03  0.00000000000E+00 0.  1.
</event>
<event>
12    1  0.8133495E-002  0.3045325E+03  0.7818608E-02  0.1083071E+00
         21   -1    0    0  501  502  0.00000000000E+00  0.00000000000E+00  0.54142375101E+03  0.54142375101E+03  0.00000000000E+00 0.  1.
         21   -1    0    0  502  503 -0.00000000000E+00 -0.00000000000E+00 -0.29687559570E+03  0.29687559570E+03  0.00000000000E+00 0.  1.
         -6    2    1    2    0  503  0.25049232656E+03 -0.23244772128E+01 -0.15064271570E+03  0.33975470166E+03  0.17317107336E+03 0.  0.
        -24    2    3    3    0    0  0.82646668597E+02  0.12773850500E+01 -0.12565296827E+03  0.16995565636E+03  0.79146403280E+02 0.  0.
          6    2    1    2  501    0 -0.25049232656E+03  0.23244772128E+01  0.39519087101E+03  0.49854464505E+03  0.17210209098E+03 0.  0.
         24    2    5    5    0    0 -0.45333405084E+02 -0.25007841321E+02  0.14781960744E+03  0.17597392298E+03  0.80222661897E+02 0.  0.
          5    1    5    5  501    0 -0.20515892147E+03  0.27332318534E+02  0.24737126358E+03  0.32257072207E+03  0.47000000000E+01 0. -1.
        -13    1    6    6    0    0 -0.54828663067E+02  0.23053395186E+01  0.50957639968E+02  0.74887769063E+02  0.00000000000E+00 0.  1.
         14    1    6    6    0    0  0.94952579832E+01 -0.27313180839E+02  0.96861967468E+02  0.10108615392E+03  0.00000000000E+00 0. -1.
         -5    1    3    3    0  503  0.16784565796E+03 -0.36018622628E+01 -0.24989747429E+02  0.16979904530E+03  0.47000000000E+01 0.  1.
         13    1    4    4    0    0  0.72757439973E+02 -0.59813638023E+01 -0.13570564161E+03  0.15409556434E+03  0.00000000000E+00 0. -1.
        -14    1    4    4    0    0  0.98892286233E+01  0.72587488523E+01  0.10052673342E+02  0.15860092023E+02  0.00000000000E+00 0.  1.
</event>
<event>
12    1  0.8133495E-002  0.1889348E+03  0.7818608E-02  0.1159534E+00
         21   -1    0    0  503  502  0.00000000000E+00  0.00000000000E+00  0.43106445411E+03  0.43106445411E+03  0.00000000000E+00 0.  1.
         21   -1    0    0  501  503 -0.00000000000E+00 -0.00000000000E+00 -0.14017636898E+03  0.14017636898E+03  0.00000000000E+00 0.  1.
          6    2    1    2  501    0 -0.26668059188E+02 -0.71135132046E+02 -0.37497657785E+02  0.19261989399E+03  0.17298831414E+03 0.  0.
         24    2    3    3    0    0 -0.61221108583E+02 -0.34880598736E+02 -0.74864487742E+02  0.12995671190E+03  0.79494497537E+02 0.  0.
         -6    2    1    2    0  502  0.26668059188E+02  0.71135132046E+02  0.32838574291E+03  0.37862092911E+03  0.17246802434E+03 0.  0.
        -24    2    5    5    0    0 -0.12140801871E+02  0.58527927394E+02  0.83542278059E+02  0.13035598679E+03  0.80252437425E+02 0.  0.
          5    1    3    3  501    0  0.34553049395E+02 -0.36254533309E+02  0.37366829958E+02  0.62663182085E+02  0.47000000000E+01 0. -1.
        -13    1    4    4    0    0 -0.39327794629E+02 -0.48625691297E+02 -0.82012026062E+02  0.10313634521E+03  0.00000000000E+00 0.  1.
         14    1    4    4    0    0 -0.21893313954E+02  0.13745092561E+02  0.71475383195E+01  0.26820366690E+02  0.00000000000E+00 0. -1.
         -5    1    5    5    0  502  0.38808861059E+02  0.12607204652E+02  0.24484346485E+03  0.24826494232E+03  0.47000000000E+01 0.  1.
         13    1    6    6    0    0  0.21993216305E+02  0.56291047240E+02  0.31697500300E+02  0.68243058900E+02  0.00000000000E+00 0. -1.
        -14    1    6    6    0    0 -0.34134018176E+02  0.22368801539E+01  0.51844777759E+02  0.62112927886E+02  0.00000000000E+00 0.  1.
</event>
<event>
12    1  0.8133495E-002  0.1757727E+03  0.7818608E-02  0.1172517E+00
         21   -1    0    0  501  502  0.00000000000E+00  0.00000000000E+00  0.77870972563E+03  0.77870972563E+03  0.00000000000E+00 0.  1.
         21   -1    0    0  502  503 -0.00000000000E+00 -0.00000000000E+00 -0.52754380663E+03  0.52754380663E+03  0.00000000000E+00 0.  1.
         -6    2    1    2    0  503  0.37356943529E+02  0.16933302672E+01 -0.50288402455E+03  0.53198783108E+03  0.16947065137E+03 0.  0.
        -24    2    3    3    0    0 -0.40263251272E+02  0.23203345924E+02 -0.30148045921E+03  0.31502455873E+03  0.78679607641E+02 0.  0.
          6    2    1    2  501    0 -0.37356943529E+02 -0.16933302672E+01  0.75404994355E+03  0.77426570118E+03  0.17174879931E+03 0.  0.
         24    2    5    5    0    0  0.21347723402E+02 -0.26549658748E+02  0.61782263688E+03  0.62378632031E+03  0.79018688251E+02 0.  0.
          5    1    5    5  501    0 -0.58704666931E+02  0.24856328481E+02  0.13622730667E+03  0.15047938087E+03  0.47000000000E+01 0. -1.
        -13    1    6    6    0    0 -0.12565006385E+02  0.22804667136E+02  0.17183247167E+03  0.17379393127E+03  0.00000000000E+00 0.  1.
         14    1    6    6    0    0  0.33912729787E+02 -0.49354325884E+02  0.44599016521E+03  0.44999238904E+03  0.00000000000E+00 0. -1.
         -5    1    3    3    0  503  0.77620194801E+02 -0.21510015656E+02 -0.20140356535E+03  0.21696327235E+03  0.47000000000E+01 0.  1.
         11    1    4    4    0    0  0.94300157712E+01 -0.14240575749E+02 -0.18070726085E+02  0.24865042456E+02  0.00000000000E+00 0. -1.
        -12    1    4    4    0    0 -0.49693267043E+02  0.37443921673E+02 -0.28340973312E+03  0.29015951628E+03  0.00000000000E+00 0.  1.
</event>
<event>
12    1  0.8133495E-002  0.3795458E+03  0.7818608E-02  0.1051161E+00
         21   -1    0    0  501  502  0.00000000000E+00  0.00000000000E+00  0.13348219457E+03  0.13348219457E+03  0.00000000000E+00 0. -1.
         21   -1    0    0  502  503 -0.00000000000E+00 -0.00000000000E+00 -0.24323720294E+04  0.24323720294E+04  0.00000000000E+00 0. -1.
         -6    2    1    2    0  503 -0.28325774283E+03 -0.18300307712E+03 -0.21073989828E+04  0.21413046280E+04  0.17415499511E+03 0.  0.
        -24    2    3    3    0    0 -0.10352389037E+03 -0.14627754840E+03 -0.11191866657E+04  0.11361983174E+04  0.79079116060E+02 0.  0.
          6    2    1    2  501    0  0.28325774283E+03  0.18300307712E+03 -0.19149085206E+03  0.42454959594E+03  0.17276729400E+03 0.  0.
         24    2    5    5    0    0  0.88616492475E+02  0.90383844932E+02 -0.13708623259E+03  0.20218617464E+03  0.77874847573E+02 0.  0.
          5    1    5    5  501    0  0.19464125036E+03  0.92619232186E+02 -0.54404619468E+02  0.22236342130E+03  0.47000000000E+01 0. -1.
        -11    1    6    6    0    0  0.73343408945E+01  0.23349327941E+02  0.53166815705E+01  0.25044975036E+02  0.00000000000E+00 0.  1.
         12    1    6    6    0    0  0.81282151581E+02  0.67034516991E+02 -0.14240291416E+03  0.17714119960E+03  0.00000000000E+00 0. -1.
         -5    1    3    3    0  503 -0.17973385246E+03 -0.36725528722E+02 -0.98821231705E+03  0.10051063107E+04  0.47000000000E+01 0.  1.
         13    1    4    4    0    0 -0.19301797374E+02 -0.80479884150E+02 -0.63403951487E+03  0.63941823367E+03  0.00000000000E+00 0. -1.
        -14    1    4    4    0    0 -0.84222092996E+02 -0.65797664246E+02 -0.48514715086E+03  0.49678008370E+03  0.00000000000E+00 0.  1.
</event>
<event>
12    1  0.8133495E-002  0.2110666E+03  0.7818608E-02  0.1141876E+00
         21   -1    0    0  501  502  0.00000000000E+00  0.00000000000E+00  0.23870563703E+02  0.23870563703E+02  0.00000000000E+00 0. -1.
         21   -1    0    0  502  503 -0.00000000000E+00 -0.00000000000E+00 -0.18280975957E+04  0.18280975957E+04  0.00000000000E+00 0. -1.
         -6    2    1    2    0  503 -0.78248940891E+01 -0.12119093030E+03 -0.99106996363E+03  0.10132959898E+04  0.17262855972E+03 0.  0.
        -24    2    3    3    0    0  0.60048382768E+02 -0.90056909216E+02 -0.69966244602E+03  0.71243632104E+03  0.79510489864E+02 0.  0.
          6    2    1    2  501    0  0.78248940891E+01  0.12119093030E+03 -0.81315706834E+03  0.83867216955E+03  0.16552377362E+03 0.  0.
         24    2    5    5    0    0  0.65474292956E+02  0.97831308365E+02 -0.53267039445E+03  0.55133266764E+03  0.79825518184E+02 0.  0.
          5    1    5    5  501    0 -0.57649398867E+02  0.23359621939E+02 -0.28048667389E+03  0.28733950191E+03  0.47000000000E+01 0. -1.
        -13    1    6    6    0    0 -0.15568094284E+02  0.13048018141E+01 -0.75992264450E+02  0.77581520504E+02  0.00000000000E+00 0.  1.
         14    1    6    6    0    0  0.81042387240E+02  0.96526506551E+02 -0.45667813000E+03  0.47375114714E+03  0.00000000000E+00 0. -1.
         -5    1    3    3    0  503 -0.67873276857E+02 -0.31134021089E+02 -0.29140751762E+03  0.30085966879E+03  0.47000000000E+01 0.  1.
         11    1    4    4    0    0  0.77056795884E+01 -0.76601182028E+02 -0.33112096847E+03  0.33995325318E+03  0.00000000000E+00 0. -1.
        -12    1    4    4    0    0  0.52342703180E+02 -0.13455727188E+02 -0.36854147755E+03  0.37248306786E+03  0.00000000000E+00 0.  1.
</event>
<event>
12    1  0.8133495E-002  0.1794939E+03  0.7818608E-02  0.1168404E+00
         21   -1    0    0  503  502  0.00000000000E+00  0.00000000000E+00  0.85587864538E+02  0.85587864538E+02  0.00000000000E+00 0. -1.
         21   -1    0    0  501  503 -0.00000000000E+00 -0.00000000000E+00 -0.81859954575E+03  0.81859954575E+03  0.00000000000E+00 0. -1.
          6    2    1    2  501    0 -0.48641028320E+02  0.10009599138E+02 -0.69891619943E+03  0.72148391826E+03  0.17201467604E+03 0.  0.
         24    2    3    3    0    0 -0.77970348269E+02 -0.12862412719E+02 -0.65694257568E+03  0.66520592056E+03  0.68414560805E+02 0.  0.
         -6    2    1    2    0  502  0.48641028320E+02 -0.10009599138E+02 -0.34095481779E+02  0.18270349202E+03  0.17248745580E+03 0.  0.
        -24    2    5    5    0    0  0.12843982622E+02  0.34891472438E+02  0.29987581379E+02  0.96527719947E+02  0.83880647009E+02 0.  0.
          5    1    3    3  501    0  0.29329319949E+02  0.22872011857E+02 -0.41973623748E+02  0.56277997704E+02  0.47000000000E+01 0. -1.
        -13    1    4    4    0    0  0.12359490558E+02  0.24924076871E+01 -0.64623517752E+02  0.65841993815E+02  0.00000000000E+00 0.  1.
         14    1    4    4    0    0 -0.90329838827E+02 -0.15354820406E+02 -0.59231905793E+03  0.59936392674E+03  0.00000000000E+00 0. -1.
         -5    1    5    5    0  502  0.35797045698E+02 -0.44901071577E+02 -0.64083063158E+02  0.86175772078E+02  0.47000000000E+01 0.  1.
         11    1    6    6    0    0 -0.21003960315E+02  0.47756281639E+02  0.47432549248E+01  0.52386326958E+02  0.00000000000E+00 0. -1.
        -12    1    6    6    0    0  0.33847942938E+02 -0.12864809200E+02  0.25244326454E+02  0.44141392989E+02  0.00000000000E+00 0.  1.
</event>
<event>
12    1  0.8133495E-002  0.1968584E+03  0.7818608E-02  0.1152728E+00
         21   -1    0    0  501  502  0.00000000000E+00  0.00000000000E+00  0.37175216413E+03  0.37175216413E+03  0.00000000000E+00 0.  1.
         21   -1    0    0  502  503 -0.00000000000E+00 -0.00000000000E+00 -0.10978032850E+03  0.10978032850E+03  0.00000000000E+00 0.  1.
         -6    2    1    2    0  503  0.57176980256E+02  0.73385135893E+02  0.72875117517E+02  0.20856582906E+03  0.17185557034E+03 0.  0.
        -24    2    3    3    0    0  0.13802062929E+02 -0.89448832550E+01 -0.17344268349E+02  0.78869093976E+02  0.75159846078E+02 0.  0.
          6    2    1    2  501    0 -0.57176980256E+02 -0.73385135893E+02  0.18909671811E+03  0.27296666357E+03  0.17348961173E+03 0.  0.
         24    2    5    5    0    0 -0.35549146888E+02 -0.63968917372E+02  0.30634401229E+02  0.11268932824E+03  0.80029081756E+02 0.  0.
          5    1    5    5  501    0 -0.21627833368E+02 -0.94162185207E+01  0.15846231688E+03  0.16027733533E+03  0.47000000000E+01 0. -1.
        -13    1    6    6    0    0  0.22822297435E+02 -0.29907639857E+02  0.24353969198E+02  0.44815622251E+02  0.00000000000E+00 0.  1.
         14    1    6    6    0    0 -0.58371444323E+02 -0.34061277515E+02  0.62804320302E+01  0.67873705990E+02  0.00000000000E+00 0. -1.
         -5    1    3    3    0  503  0.43374917327E+02  0.82330019148E+02  0.90219385866E+02  0.12969673509E+03  0.47000000000E+01 0.  1.
         11    1    4    4    0    0 -0.28675576932E+02  0.74134047855E+01  0.13783121623E+01  0.29650413611E+02  0.00000000000E+00 0. -1.
        -12    1    4    4    0    0  0.42477639861E+02 -0.16358288041E+02 -0.18722580512E+02  0.49218680364E+02  0.00000000000E+00 0.  1.
</event>
<event>
12    1  0.8133495E-002  0.2323896E+03  0.7818608E-02  0.1125301E+00
         21   -1    0    0  503  502  0.00000000000E+00  0.00000000000E+00  0.60886085731E+03  0.60886085731E+03  0.00000000000E+00 0.  1.
         21   -1    0    0  501  503 -0.00000000000E+00 -0.00000000000E+00 -0.90441257979E+02  0.90441257979E+02  0.00000000000E+00 0.  1.
          6    2    1    2  501    0  0.14282200555E+02 -0.15313312854E+03  0.20248755939E+03  0.30823067844E+03  0.17421596688E+03 0.  0.
         24    2    3    3    0    0 -0.32511108827E+02 -0.35894729248E+02  0.13934244985E+03  0.16700797868E+03  0.78293951401E+02 0.  0.
         -6    2    1    2    0  502 -0.14282200555E+02  0.15313312854E+03  0.31593203994E+03  0.39107143685E+03  0.17166851356E+03 0.  0.
        -24    2    5    5    0    0 -0.57409952159E+02  0.14474096944E+03  0.29516423999E+03  0.34224702894E+03  0.75929239471E+02 0.  0.
          5    1    3    3  501    0  0.46793309383E+02 -0.11723839929E+03  0.63145109543E+02  0.14122269977E+03  0.47000000000E+01 0. -1.
        -11    1    4    4    0    0 -0.25399369953E+02 -0.29750133140E+02  0.14356297271E+02  0.41668953517E+02  0.00000000000E+00 0.  1.
         12    1    4    4    0    0 -0.71117388746E+01 -0.61445961084E+01  0.12498615258E+03  0.12533902516E+03  0.00000000000E+00 0. -1.
         -5    1    5    5    0  502  0.43127751603E+02  0.83921590934E+01  0.20767799949E+02  0.48824407906E+02  0.47000000000E+01 0.  1.
         13    1    6    6    0    0 -0.42740553992E+02  0.24767472300E+02  0.58991646302E+02  0.76942816254E+02  0.00000000000E+00 0. -1.
        -14    1    6    6    0    0 -0.14669398167E+02  0.11997349714E+03  0.23617259369E+03  0.26530421269E+03  0.00000000000E+00 0.  1.
</event>
<event>
12    1  0.8133495E-002  0.1828014E+03  0.7818608E-02  0.1165334E+00
         21   -1    0    0  503  502  0.00000000000E+00  0.00000000000E+00  0.48853769625E+02  0.48853769625E+02  0.00000000000E+00 0. -1.
         21   -1    0    0  501  503 -0.00000000000E+00 -0.00000000000E+00 -0.83511544340E+03  0.83511544340E+03  0.00000000000E+00 0. -1.
          6    2    1    2  501    0  0.36088536177E+02  0.48991398269E+02 -0.58401996003E+03  0.61196051560E+03  0.17237696885E+03 0.  0.
         24    2    3    3    0    0  0.50263966960E+02  0.84246671694E+02 -0.53685712204E+03  0.55121267259E+03  0.77433021893E+02 0.  0.
         -6    2    1    2    0  502 -0.36088536177E+02 -0.48991398269E+02 -0.20224171375E+03  0.27200869743E+03  0.17141902214E+03 0.  0.
        -24    2    5    5    0    0 -0.54323105161E+01 -0.96391456123E+02 -0.13525565384E+03  0.18428303483E+03  0.79657530845E+02 0.  0.
          5    1    3    3  501    0 -0.14175430783E+02 -0.35255273425E+02 -0.47162837995E+02  0.60747843006E+02  0.47000000000E+01 0. -1.
        -11    1    4    4    0    0  0.56813843646E+02  0.42230485634E+02 -0.21021613654E+03  0.22181535296E+03  0.00000000000E+00 0.  1.
         12    1    4    4    0    0 -0.65498766862E+01  0.42016186060E+02 -0.32664098549E+03  0.32939731963E+03  0.00000000000E+00 0. -1.
         -5    1    5    5    0  502 -0.30656225661E+02  0.47400057854E+02 -0.66986059906E+02  0.87725662597E+02  0.47000000000E+01 0.  1.
         11    1    6    6    0    0 -0.42043330095E+02 -0.53187490562E+02 -0.83568872363E+02  0.10761183571E+03  0.00000000000E+00 0. -1.
        -12    1    6    6    0    0  0.36611019579E+02 -0.43203965561E+02 -0.51686781478E+02  0.76671199119E+02  0.00000000000E+00 0.  1.
</event>
<event>
12    1  0.8133495E-002  0.1811902E+03  0.7818608E-02  0.1167097E+00
         21   -1    0    0  503  502  0.00000000000E+00  0.00000000000E+00  0.33302008166E+02  0.33302008166E+02  0.00000000000E+00 0. -1.
         21   -1    0    0  501  503 -0.00000000000E+00 -0.00000000000E+00 -0.11769844998E+04  0.11769844998E+04  0.00000000000E+00 0. -1.
          6    2    1    2  501    0  0.88042265699E+01  0.52986807239E+02 -0.81956471857E+03  0.83896157385E+03  0.17112883547E+03 0.  0.
         24    2    3    3    0    0 -0.60347917274E+02  0.40901155913E+02 -0.53305001706E+03  0.54393471720E+03  0.80049236165E+02 0.  0.
         -6    2    1    2    0  502 -0.88042265699E+01 -0.52986807239E+02 -0.32411777304E+03  0.37132493409E+03  0.17304554236E+03 0.  0.
        -24    2    5    5    0    0 -0.29996610091E+01  0.39895817306E+02 -0.17440458697E+03  0.19498151060E+03  0.77460669481E+02 0.  0.
          5    1    3    3  501    0  0.69152143843E+02  0.12085651326E+02 -0.28651470151E+03  0.29502685665E+03  0.47000000000E+01 0. -1.
        -13    1    4    4    0    0 -0.62431422190E+01 -0.19020015505E+02 -0.20990012686E+03  0.21085255766E+03  0.00000000000E+00 0.  1.
         14    1    4    4    0    0 -0.54104775055E+02  0.59921171418E+02 -0.32314989019E+03  0.33308215954E+03  0.00000000000E+00 0. -1.
         -5    1    5    5    0  502 -0.58045655608E+01 -0.92882624545E+02 -0.14971318607E+03  0.17634342349E+03  0.47000000000E+01 0.  1.
         13    1    6    6    0    0 -0.50051825084E+01 -0.20008547565E+02 -0.17606675573E+02  0.27118053992E+02  0.00000000000E+00 0. -1.
        -14    1    6    6    0    0  0.20055214993E+01  0.59904364871E+02 -0.15679791139E+03  0.16786345661E+03  0.00000000000E+00 0.  1.
</event>
<event>
12    1  0.8133495E-002  0.2020283E+03  0.7818608E-02  0.1149185E+00
         21   -1    0    0  501  502  0.00000000000E+00  0.00000000000E+00  0.26373104468E+03  0.26373104468E+03  0.00000000000E+00 0.  1.
         21   -1    0    0  502  503 -0.00000000000E+00 -0.00000000000E+00 -0.24184342658E+03  0.24184342658E+03  0.00000000000E+00 0. -1.
         -6    2    1    2    0  503  0.92346862942E+02  0.50963110678E+02  0.16608491605E+03  0.25736431282E+03  0.16591265300E+03 0.  0.
        -24    2    3    3    0    0  0.48797717634E+02 -0.27080931905E+02  0.12566363228E+03  0.15916364672E+03  0.80169344767E+02 0.  0.
          6    2    1    2  501    0 -0.92346862942E+02 -0.50963110678E+02 -0.14419729795E+03  0.24821015844E+03  0.17230856123E+03 0.  0.
         24    2    5    5    0    0 -0.58683465506E+02 -0.43619085263E+02 -0.86792085797E+01  0.10830161123E+03  0.79420001324E+02 0.  0.
          5    1    5    5  501    0 -0.33663397436E+02 -0.73440254149E+01 -0.13551808937E+03  0.13990854721E+03  0.47000000000E+01 0. -1.
        -11    1    6    6    0    0 -0.11210235953E+00  0.20803307119E+02 -0.16064813999E-01  0.20803615361E+02  0.00000000000E+00 0.  1.
         12    1    6    6    0    0 -0.58571363147E+02 -0.64422392382E+02 -0.86631437657E+01  0.87497995868E+02  0.00000000000E+00 0. -1.
         -5    1    3    3    0  503  0.43549145308E+02  0.78044042583E+02  0.40421283770E+02  0.98200666094E+02  0.47000000000E+01 0.  1.
         11    1    4    4    0    0 -0.18623763472E+02 -0.29014030570E+01  0.61430498269E+01  0.19824221718E+02  0.00000000000E+00 0. -1.
        -12    1    4    4    0    0  0.67421481106E+02 -0.24179528848E+02  0.11952058246E+03  0.13933942500E+03  0.00000000000E+00 0.  1.
</event>
<event>
12    1  0.8133495E-002  0.2211662E+03  0.7818608E-02  0.1133474E+00
         21   -1    0    0  501  502  0.00000000000E+00  0.00000000000E+00  0.60153217612E+02  0.60153217612E+02  0.00000000000E+00 0.  1.
         21   -1    0    0  502  503 -0.00000000000E+00 -0.00000000000E+00 -0.15438570672E+04  0.15438570672E+04  0.00000000000E+00 0. -1.
         -6    2    1    2    0  503  0.12174160563E+02 -0.13631837050E+03 -0.12991457811E+04  0.13178369606E+04  0.17373423942E+03 0.  0.
        -24    2    3    3    0    0 -0.20610763741E+02 -0.12491732012E+01 -0.57405877219E+03  0.57953363556E+03  0.76742405537E+02 0.  0.
          6    2    1    2  501    0 -0.12174160563E+02  0.13631837050E+03 -0.18455806853E+03  0.28617332421E+03  0.17059479041E+03 0.  0.
         24    2    5    5    0    0 -0.11489000046E+02  0.12803799161E+03 -0.20996367606E+03  0.25903351925E+03  0.80547466826E+02 0.  0.
          5    1    5    5  501    0 -0.68516051671E+00  0.82803788900E+01  0.25405607534E+02  0.27139804967E+02  0.47000000000E+01 0. -1.
        -11    1    6    6    0    0 -0.45394478049E+02  0.81993899721E+02 -0.11723902958E+03  0.15009546391E+03  0.00000000000E+00 0.  1.
         12    1    6    6    0    0  0.33905478003E+02  0.46044091885E+02 -0.92724646482E+02  0.10893805534E+03  0.00000000000E+00 0. -1.
         -5    1    3    3    0  503  0.32784924304E+02 -0.13506919729E+03 -0.72508700892E+03  0.73830332508E+03  0.47000000000E+01 0.  1.
         11    1    4    4    0    0 -0.34546433246E+02 -0.27398449251E+02 -0.44187834850E+03  0.44407274848E+03  0.00000000000E+00 0. -1.
        -12    1    4    4    0    0  0.13935669505E+02  0.26149276050E+02 -0.13218042369E+03  0.13546088708E+03  0.00000000000E+00 0.  1.
</event>
<event>
12    1  0.8133495E-002  0.2549664E+03  0.7818608E-02  0.1110837E+00
         21   -1    0    0  503  502  0.00000000000E+00  0.00000000000E+00  0.24155386698E+03  0.24155386698E+03  0.00000000000E+00 0. -1.
         21   -1    0    0  501  503 -0.00000000000E+00 -0.00000000000E+00 -0.28933811131E+03  0.28933811131E+03  0.00000000000E+00 0.  1.
          6    2    1    2  501    0  0.33204104948E+02  0.18011497152E+03  0.53496268503E+02  0.25654617802E+03  0.17149395080E+03 0.  0.
         24    2    3    3    0    0 -0.11400351503E+02  0.13817122869E+03 -0.19517752432E+02  0.16114192051E+03  0.79777938255E+02 0.  0.
         -6    2    1    2    0  502 -0.33204104948E+02 -0.18011497152E+03 -0.10128051284E+03  0.27434580027E+03  0.17738083407E+03 0.  0.
        -24    2    5    5    0    0 -0.80341430993E+02 -0.10677427110E+03 -0.24329967231E+02  0.15796598109E+03  0.80658622428E+02 0.  0.
          5    1    3    3  501    0  0.44604456450E+02  0.41943742821E+02  0.73014020936E+02  0.95404257506E+02  0.47000000000E+01 0. -1.
        -13    1    4    4    0    0 -0.14801482503E+02  0.18844975909E+02 -0.33244431305E+02  0.40980595580E+02  0.00000000000E+00 0.  1.
         14    1    4    4    0    0  0.34011310002E+01  0.11932625279E+03  0.13726678873E+02  0.12016132493E+03  0.00000000000E+00 0. -1.
         -5    1    5    5    0  502  0.47137326046E+02 -0.73340700417E+02 -0.76950545608E+02  0.11637981919E+03  0.47000000000E+01 0.  1.
         11    1    6    6    0    0 -0.44056412596E+02 -0.10520160848E+03  0.35053139683E+00  0.11405467457E+03  0.00000000000E+00 0. -1.
        -12    1    6    6    0    0 -0.36285018397E+02 -0.15726626179E+01 -0.24680498628E+02  0.43911306520E+02  0.00000000000E+00 0.  1.
</event>
<event>
12    1  0.8133495E-002  0.1778755E+03  0.7818608E-02  0.1170542E+00
         21   -1    0    0  503  502  0.00000000000E+00  0.00000000000E+00  0.24343989291E+03  0.24343989291E+03  0.00000000000E+00 0.  1.
         21   -1    0    0  501  503 -0.00000000000E+00 -0.00000000000E+00 -0.22414672947E+03  0.22414672947E+03  0.00000000000E+00 0. -1.
          6    2    1    2  501    0  0.91703247865E+01  0.34696429619E+02 -0.14342046278E+03  0.22849317565E+03  0.17421757973E+03 0.  0.
         24    2    3    3    0    0  0.21892018771E+02 -0.13977656946E+02 -0.87901489974E+01  0.84693246614E+02  0.80131416579E+02 0.  0.
         -6    2    1    2    0  502 -0.91703247865E+01 -0.34696429619E+02  0.16271362622E+03  0.23909344674E+03  0.17147015784E+03 0.  0.
        -24    2    5    5    0    0 -0.15802399467E+02  0.44507922081E+02  0.80250597899E+02  0.12446554969E+03  0.82588398937E+02 0.  0.
          5    1    3    3  501    0 -0.12721693985E+02  0.48674086565E+02 -0.13463031378E+03  0.14379992903E+03  0.47000000000E+01 0. -1.
        -13    1    4    4    0    0  0.80921190603E+00 -0.36925488505E+02 -0.29506335220E+02  0.47273357648E+02  0.00000000000E+00 0.  1.
         14    1    4    4    0    0  0.21082806865E+02  0.22947831559E+02  0.20716186223E+02  0.37419888966E+02  0.00000000000E+00 0. -1.
         -5    1    5    5    0  502  0.66320746808E+01 -0.79204351700E+02  0.82463028321E+02  0.11462789705E+03  0.47000000000E+01 0.  1.
         13    1    6    6    0    0  0.71859430202E-01 -0.17792182539E+02 -0.42453726260E+01  0.18291804504E+02  0.00000000000E+00 0. -1.
        -14    1    6    6    0    0 -0.15874258897E+02  0.62300104620E+02  0.84495970525E+02  0.10617374518E+03  0.00000000000E+00 0.  1.
</event>
<event>
12    1  0.8133495E-002  0.2215253E+03  0.7818608E-02  0.1132891E+00
         21   -1    0    0  501  502  0.00000000000E+00  0.00000000000E+00  0.29218551008E+03  0.29218551008E+03  0.00000000000E+00 0.  1.
         21   -1    0    0  502  503 -0.00000000000E+00 -0.00000000000E+00 -0.26434503258E+03  0.26434503258E+03  0.00000000000E+00 0.  1.
         -6    2    1    2    0  503  0.61502803249E+02 -0.12549442309E+03 -0.15459528219E+03  0.27013545310E+03  0.17187791223E+03 0.  0.
        -24    2    3    3    0    0 -0.24100680427E+02 -0.43941747507E+02 -0.10567053549E+03  0.14209438097E+03  0.80702113123E+02 0.  0.
          6    2    1    2  501    0 -0.61502803249E+02  0.12549442309E+03  0.18243575969E+03  0.28639508957E+03  0.17090317692E+03 0.  0.
         24    2    5    5    0    0 -0.75296231756E+02  0.25967277566E+02  0.58565810134E+02  0.12682765627E+03  0.79444812650E+02 0.  0.
          5    1    5    5  501    0  0.13793428507E+02  0.99527145524E+02  0.12386994956E+03  0.15956743330E+03  0.47000000000E+01 0. -1.
        -13    1    6    6    0    0 -0.72553622089E+02  0.37612155588E+01  0.70700413986E+02  0.10137417501E+03  0.00000000000E+00 0.  1.
         14    1    6    6    0    0 -0.27426096669E+01  0.22206062007E+02 -0.12134603852E+02  0.25453481261E+02  0.00000000000E+00 0. -1.
         -5    1    3    3    0  503  0.85603483676E+02 -0.81552675583E+02 -0.48924746703E+02  0.12804107213E+03  0.47000000000E+01 0.  1.
         11    1    4    4    0    0  0.15500828403E+02  0.16548391430E+02 -0.26574055899E+02  0.34932869722E+02  0.00000000000E+00 0. -1.
        -12    1    4    4    0    0 -0.39601508829E+02 -0.60490138937E+02 -0.79096479588E+02  0.10716151125E+03  0.00000000000E+00 0.  1.
</event>
<event>
12    1  0.8133495E-002  0.2091402E+03  0.7818608E-02  0.1142617E+00
         21   -1    0    0  503  502  0.00000000000E+00  0.00000000000E+00  0.66290636554E+02  0.66290636554E+02  0.00000000000E+00 0.  1.
         21   -1    0    0  501  503 -0.00000000000E+00 -0.00000000000E+00 -0.67654297844E+03  0.67654297844E+03  0.00000000000E+00 0.  1.
          6    2    1    2  501    0  0.11544302701E+03  0.14965079913E+02 -0.37420028829E+03  0.42867877449E+03  0.17374863981E+03 0.  0.
         24    2    3    3    0    0  0.20215235598E+02 -0.13773564548E+02 -0.16929738621E+03  0.20085969885E+03  0.10528364932E+03 0.  0.
         -6    2    1    2    0  502 -0.11544302701E+03 -0.14965079913E+02 -0.23605205360E+03  0.31415484051E+03  0.17152739054E+03 0.  0.
        -24    2    5    5    0    0 -0.12796674269E+02  0.41823239315E+02 -0.98491859307E+02  0.13330660583E+03  0.78466977707E+02 0.  0.
          5    1    3    3  501    0  0.95227791413E+02  0.28738644461E+02 -0.20490290208E+03  0.22781907564E+03  0.47000000000E+01 0. -1.
        -13    1    4    4    0    0  0.36425595564E+02  0.32923412574E+02 -0.43122366606E+02  0.65347636602E+02  0.00000000000E+00 0.  1.
         14    1    4    4    0    0 -0.16210359966E+02 -0.46696977122E+02 -0.12617501960E+03  0.13551206225E+03  0.00000000000E+00 0. -1.
         -5    1    5    5    0  502 -0.10264635274E+03 -0.56788319228E+02 -0.13756019429E+03  0.18084823468E+03  0.47000000000E+01 0.  1.
         13    1    6    6    0    0  0.21463863316E+01 -0.18511375963E+02 -0.22960876288E+01  0.18776315739E+02  0.00000000000E+00 0. -1.
        -14    1    6    6    0    0 -0.14943060600E+02  0.60334615277E+02 -0.96195771678E+02  0.11453029010E+03  0.00000000000E+00 0.  1.
</event>
<event>
12    1  0.8133495E-002  0.2038823E+03  0.7818608E-02  0.1146898E+00
         21   -1    0    0  501  502  0.00000000000E+00  0.00000000000E+00  0.60556455593E+03  0.60556455593E+03  0.00000000000E+00 0.  1.
         21   -1    0    0  502  503 -0.00000000000E+00 -0.00000000000E+00 -0.36549618464E+03  0.36549618464E+03  0.00000000000E+00 0.  1.
         -6    2    1    2    0  503  0.10376898279E+03  0.41565128299E+02 -0.31789893062E+03  0.37766087826E+03  0.17050615005E+03 0.  0.
        -24    2    3    3    0    0  0.13733148802E+03  0.12442568229E+02 -0.23775012629E+03  0.28589767160E+03  0.78724843418E+02 0.  0.
          6    2    1    2  501    0 -0.10376898279E+03 -0.41565128299E+02  0.55796730191E+03  0.59339986231E+03  0.16822670687E+03 0.  0.
         24    2    5    5    0    0 -0.11440227202E+03  0.20517414038E+02  0.32901671087E+03  0.35589665803E+03  0.70011363693E+02 0.  0.
          5    1    5    5  501    0  0.10633289228E+02 -0.62082542337E+02  0.22895059104E+03  0.23750320428E+03  0.47000000000E+01 0. -1.
        -11    1    6    6    0    0 -0.10876031828E+03  0.42112865970E+01  0.31618369989E+03  0.33439299312E+03  0.00000000000E+00 0.  1.
         12    1    6    6    0    0 -0.56419537325E+01  0.16306127441E+02  0.12833010975E+02  0.21503664914E+02  0.00000000000E+00 0. -1.
         -5    1    3    3    0  503 -0.33562505227E+02  0.29122560070E+02 -0.80148804322E+02  0.91763206659E+02  0.47000000000E+01 0.  1.
         11    1    4    4    0    0  0.24738977150E+01  0.14437751278E+02 -0.26909261983E+01  0.14893284247E+02  0.00000000000E+00 0. -1.
        -12    1    4    4    0    0  0.13485759030E+03 -0.19951830489E+01 -0.23505920010E+03  0.27100438736E+03  0.00000000000E+00 0.  1.
</event>
<event>
12    1  0.8133495E-002  0.2385075E+03  0.7818608E-02  0.1121358E+00
         21   -1    0    0  501  502  0.00000000000E+00  0.00000000000E+00  0.11360798822E+04  0.11360798822E+04  0.00000000000E+00 0. -1.
         21   -1    0    0  502  503 -0.00000000000E+00 -0.00000000000E+00 -0.12319755596E+03  0.12319755596E+03  0.00000000000E+00 0.  1.
         -6    2    1    2    0  503 -0.12484197764E+03 -0.10969312513E+03  0.20469730183E+02  0.23938427356E+03  0.17107810933E+03 0.  0.
        -24    2    3    3    0    0 -0.14221259235E+03 -0.11733823971E+03 -0.12225202698E+02  0.20128919949E+03  0.79844864128E+02 0.  0.
          6    2    1    2  501    0  0.12484197764E+03  0.10969312513E+03  0.99241259603E+03  0.10198931646E+04  0.16637669695E+03 0.  0.
         24    2    5    5    0    0  0.91231110138E+00  0.32673649736E+02  0.49887749562E+03  0.50521894996E+03  0.72794450816E+02 0.  0.
          5    1    5    5  501    0  0.12392966654E+03  0.77019475397E+02  0.49353510041E+03  0.51467421460E+03  0.47000000000E+01 0. -1.
        -11    1    6    6    0    0 -0.24124306028E+02  0.16734818576E+02  0.78763326493E+02  0.84057705741E+02  0.00000000000E+00 0.  1.
         12    1    6    6    0    0  0.25036617129E+02  0.15938831160E+02  0.42011416912E+03  0.42116124422E+03  0.00000000000E+00 0. -1.
         -5    1    3    3    0  503  0.17370614715E+02  0.76451145804E+01  0.32694932881E+02  0.38095074073E+02  0.47000000000E+01 0.  1.
         11    1    4    4    0    0 -0.25410282111E+02 -0.10658772352E+02  0.26714851663E+02  0.38379358572E+02  0.00000000000E+00 0. -1.
        -12    1    4    4    0    0 -0.11680231024E+03 -0.10667946736E+03 -0.38940054361E+02  0.16290984092E+03  0.00000000000E+00 0.  1.
</event>
<event>
12    1  0.8133495E-002  0.2174647E+03  0.7818608E-02  0.1136498E+00
         21   -1    0    0  501  502  0.00000000000E+00  0.00000000000E+00  0.15767809477E+03  0.15767809477E+03  0.00000000000E+00 0. -1.
         21   -1    0    0  502  503 -0.00000000000E+00 -0.00000000000E+00 -0.36610778067E+03  0.36610778067E+03  0.00000000000E+00 0. -1.
         -6    2    1    2    0  503  0.44625331932E+02  0.11837148950E+03 -0.21905979221E+03  0.30606149829E+03  0.17228818413E+03 0.  0.
        -24    2    3    3    0    0  0.85488126803E+01  0.90126453336E+01 -0.15237211267E+03  0.17290666870E+03  0.80778372029E+02 0.  0.
          6    2    1    2  501    0 -0.44625331932E+02 -0.11837148950E+03  0.10630106318E+02  0.21772437715E+03  0.17688322552E+03 0.  0.
         24    2    5    5    0    0 -0.38853447845E+01 -0.14740395941E+03  0.13298445769E+02  0.16740697562E+03  0.78135930746E+02 0.  0.
          5    1    5    5  501    0 -0.40739987147E+02  0.29032469905E+02 -0.26683394511E+01  0.50317401532E+02  0.47000000000E+01 0. -1.
        -11    1    6    6    0    0 -0.59536863191E+01 -0.67162277433E+02  0.45045688312E+02  0.81088420420E+02  0.00000000000E+00 0.  1.
         12    1    6    6    0    0  0.20683415346E+01 -0.80241681974E+02 -0.31747242543E+02  0.86318555200E+02  0.00000000000E+00 0. -1.
         -5    1    3    3    0  503  0.36076519251E+02  0.10935884417E+03 -0.66687679549E+02  0.13315482959E+03  0.47000000000E+01 0.  1.
         11    1    4    4    0    0  0.34451878743E+02  0.12400458601E+02 -0.28748369076E+02  0.46552895151E+02  0.00000000000E+00 0. -1.
        -12    1    4    4    0    0 -0.25903066063E+02 -0.33878132672E+01 -0.12362374359E+03  0.12635377355E+03  0.00000000000E+00 0.  1.
</event>
<event>
12    1  0.8133495E-002  0.2071837E+03  0.7818608E-02  0.1144400E+00
         21   -1    0    0  501  502  0.00000000000E+00  0.00000000000E+00  0.46410120272E+03  0.46410120272E+03  0.00000000000E+00 0.  1.
         21   -1    0    0  502  503 -0.00000000000E+00 -0.00000000000E+00 -0.12883570386E+03  0.12883570386E+03  0.00000000000E+00 0.  1.
         -6    2    1    2    0  503 -0.34279930422E+02 -0.10926360151E+03  0.82524821882E+01  0.20734796874E+03  0.17265986341E+03 0.  0.
        -24    2    3    3    0    0  0.28779911557E+02 -0.18669550364E+02 -0.15170199099E+02  0.94411979028E+02  0.86640933878E+02 0.  0.
          6    2    1    2  501    0  0.34279930422E+02  0.10926360151E+03  0.32701301667E+03  0.38558893784E+03  0.16919712667E+03 0.  0.
         24    2    5    5    0    0 -0.35146277317E+02  0.74547645006E+02  0.25545180744E+03  0.27990879485E+03  0.79376919354E+02 0.  0.
          5    1    5    5  501    0  0.69426207739E+02  0.34715956501E+02  0.71561209230E+02  0.10568014299E+03  0.47000000000E+01 0. -1.
        -13    1    6    6    0    0  0.81261324597E+01  0.62904842693E+02  0.10258968287E+03  0.12061383127E+03  0.00000000000E+00 0.  1.
         14    1    6    6    0    0 -0.43272409777E+02  0.11642802313E+02  0.15286212457E+03  0.15929496358E+03  0.00000000000E+00 0. -1.
         -5    1    3    3    0  503 -0.63059841979E+02 -0.90594051143E+02  0.23422681287E+02  0.11293598971E+03  0.47000000000E+01 0.  1.
         13    1    4    4    0    0  0.50160101671E+00  0.25052404370E+02  0.19589478971E+02  0.31806009725E+02  0.00000000000E+00 0. -1.
        -14    1    4    4    0    0  0.28278310540E+02 -0.43721954734E+02 -0.34759678070E+02  0.62605969302E+02  0.00000000000E+00 0.  1.
</event>
<event>
12    1  0.8133495E-002  0.1755842E+03  0.7818608E-02  0.1172187E+00
         21   -1    0    0  501  502  0.00000000000E+00  0.00000000000E+00  0.23445987897E+03  0.23445987897E+03  0.00000000000E+00 0.  1.
         21   -1    0    0  502  503 -0.00000000000E+00 -0.00000000000E+00 -0.42887811334E+03  0.42887811334E+03  0.00000000000E+00 0.  1.
         -6    2    1    2    0  503 -0.35634175455E+01 -0.34456281184E+02 -0.37346216096E+03  0.41267880990E+03  0.17213332396E+03 0.  0.
        -24    2    3    3    0    0 -0.64850105518E+01  0.47212033736E+02 -0.22060551826E+03  0.23928477141E+03  0.79494500758E+02 0.  0.
          6    2    1    2  501    0  0.35634175455E+01  0.34456281184E+02  0.17904392659E+03  0.25065918241E+03  0.17196908099E+03 0.  0.
         24    2    5    5    0    0 -0.45957091581E+00  0.81844187792E+02  0.80233406624E+02  0.14089850190E+03  0.81953072048E+02 0.  0.
          5    1    5    5  501    0  0.40229884613E+01 -0.47387906609E+02  0.98810519970E+02  0.10976068051E+03  0.47000000000E+01 0. -1.
        -13    1    6    6    0    0 -0.16011381869E+01  0.35389593404E+01  0.59849750127E+02  0.59975665624E+02  0.00000000000E+00 0.  1.
         14    1    6    6    0    0  0.11415672711E+01  0.78305228452E+02  0.20383656497E+02  0.80922836276E+02  0.00000000000E+00 0. -1.
         -5    1    3    3    0  503  0.29215930062E+01 -0.81668314920E+02 -0.15285664270E+03  0.17339403849E+03  0.47000000000E+01 0.  1.
         11    1    4    4    0    0  0.20127301745E+02 -0.14856156187E+02 -0.54033675163E+02  0.59543695752E+02  0.00000000000E+00 0. -1.
        -12    1    4    4    0    0 -0.26612312297E+02  0.62068189923E+02 -0.16657184309E+03  0.17974107566E+03  0.00000000000E+00 0.  1.
</event>
<event>
12    1  0.8133495E-002  0.2432961E+03  0.7818608E-02  0.1117644E+00
         21   -1    0    0  503  502  0.00000000000E+00  0.00000000000E+00  0.13180223520E+04  0.13180223520E+04  0.00000000000E+00 0.  1.
         21   -1    0    0  501  503 -0.00000000000E+00 -0.00000000000E+00 -0.51258305618E+02  0.51258305618E+02  0.00000000000E+00 0. -1.
          6    2    1    2  501    0  0.21616692322E+02 -0.17096183380E+03  0.39167954687E+03  0.46100433939E+03  0.17151356649E+03 0.  0.
         24    2    3    3    0    0  0.64914297496E+01 -0.12920439012E+03  0.14548484423E+03  0.21079167128E+03  0.80816927025E+02 0.  0.
         -6    2    1    2    0  502 -0.21616692322E+02  0.17096183380E+03  0.87508449952E+03  0.90827631825E+03  0.17174911639E+03 0.  0.
        -24    2    5    5    0    0 -0.33074723662E+02  0.78553167342E+02  0.24173905412E+03  0.26810509792E+03  0.78600482190E+02 0.  0.
          5    1    3    3  501    0  0.15125262573E+02 -0.41757443676E+02  0.24619470264E+03  0.25021266810E+03  0.47000000000E+01 0. -1.
        -13    1    4    4    0    0 -0.20388296089E+02 -0.23595101929E+02  0.74426112295E+02  0.80694842733E+02  0.00000000000E+00 0.  1.
         14    1    4    4    0    0  0.26879725838E+02 -0.10560928820E+03  0.71058731937E+02  0.13009682855E+03  0.00000000000E+00 0. -1.
         -5    1    5    5    0  502  0.11458031340E+02  0.92408666458E+02  0.63334544540E+03  0.64017122032E+03  0.47000000000E+01 0.  1.
         11    1    6    6    0    0  0.49046905989E+01 -0.16970718899E+01 -0.41711511646E+01  0.66584190998E+01  0.00000000000E+00 0. -1.
        -12    1    6    6    0    0 -0.37979414261E+02  0.80250239232E+02  0.24591020529E+03  0.26144667883E+03  0.00000000000E+00 0.  1.
</event>
<event>
12    1  0.8133495E-002  0.1751806E+03  0.7818608E-02  0.1172778E+00
         21   -1    0    0  503  502  0.00000000000E+00  0.00000000000E+00  0.22061798524E+03  0.22061798524E+03  0.00000000000E+00 0.  1.
         21   -1    0    0  501  503 -0.00000000000E+00 -0.00000000000E+00 -0.13861681798E+03  0.13861681798E+03  0.00000000000E+00 0. -1.
          6    2    1    2  501    0  0.16636538307E+02  0.30325340522E+02  0.33519838133E+02  0.17746938144E+03  0.17080808270E+03 0.  0.
         24    2    3    3    0    0 -0.51214290816E+01  0.82624017142E+02  0.35791765344E+02  0.12058517999E+03  0.80042350804E+02 0.  0.
         -6    2    1    2    0  502 -0.16636538307E+02 -0.30325340522E+02  0.48481329119E+02  0.18176542178E+03  0.17173185086E+03 0.  0.
        -24    2    5    5    0    0  0.47668159806E+02 -0.11069528059E+02  0.63463411912E+02  0.11282752714E+03  0.79420767551E+02 0.  0.
          5    1    3    3  501    0  0.21757967389E+02 -0.52298676619E+02 -0.22719272115E+01  0.56884201447E+02  0.47000000000E+01 0. -1.
        -11    1    4    4    0    0  0.11620930283E+02  0.87339335461E+02  0.88985228589E+01  0.88557265363E+02  0.00000000000E+00 0.  1.
         12    1    4    4    0    0 -0.16742359365E+02 -0.47153183196E+01  0.26893242486E+02  0.32027914627E+02  0.00000000000E+00 0. -1.
         -5    1    5    5    0  502 -0.64304698113E+02 -0.19255812464E+02 -0.14982082794E+02  0.68937894643E+02  0.47000000000E+01 0.  1.
         11    1    6    6    0    0  0.17738138294E+02  0.32278474875E+02  0.10897532331E+02  0.38409604285E+02  0.00000000000E+00 0. -1.
        -12    1    6    6    0    0  0.29930021512E+02 -0.43348002934E+02  0.52565879581E+02  0.74417922856E+02  0.00000000000E+00 0.  1.
</event>
<event>
12    1  0.8133495E-002  0.2114887E+03  0.7818608E-02  0.1141234E+00
         21   -1    0    0  501  502  0.00000000000E+00  0.00000000000E+00  0.93807579039E+03  0.93807579039E+03  0.00000000000E+00 0. -1.
         21   -1    0    0  502  503 -0.00000000000E+00 -0.00000000000E+00 -0.51566988427E+02  0.51566988427E+02  0.00000000000E+00 0. -1.
         -6    2    1    2    0  503 -0.11008811670E+03  0.54395078484E+02  0.59888590129E+03  0.63513132510E+03  0.17218960292E+03 0.  0.
        -24    2    3    3    0    0 -0.13192738715E+03  0.83389575894E+02  0.50912205814E+03  0.53819179678E+03  0.78015916233E+02 0.  0.
          6    2    1    2  501    0  0.11008811670E+03 -0.54395078484E+02  0.28762290066E+03  0.35451145371E+03  0.16695274728E+03 0.  0.
         24    2    5    5    0    0  0.24523626855E+02  0.28248822089E+02  0.12571146337E+03  0.15354205367E+03  0.79827225935E+02 0.  0.
          5    1    5    5  501    0  0.85564489843E+02 -0.82643900573E+02  0.16191143730E+03  0.20096940004E+03  0.47000000000E+01 0. -1.
        -11    1    6    6    0    0  0.30056214169E+02  0.21710531533E+02  0.13553151674E+03  0.14051161952E+03  0.00000000000E+00 0.  1.
         12    1    6    6    0    0 -0.55325873144E+01  0.65382905559E+01 -0.98200533779E+01  0.13030434150E+02  0.00000000000E+00 0. -1.
         -5    1    3    3    0  503  0.21839270452E+02 -0.28994497411E+02  0.89763843151E+02  0.96939528321E+02  0.47000000000E+01 0.  1.
         13    1    4    4    0    0 -0.74237350776E+02  0.14625573730E+01  0.21154182135E+03  0.22419470445E+03  0.00000000000E+00 0. -1.
        -14    1    4    4    0    0 -0.57690036373E+02  0.81927018521E+02  0.29758023679E+03  0.31399709233E+03  0.00000000000E+00 0.  1.
</event>
<event>
12    1  0.8133495E-002  0.2764198E+03  0.7818608E-02  0.1097882E+00
         21   -1    0    0  501  502  0.00000000000E+00  0.00000000000E+00  0.48247769613E+03  0.48247769613E+03  0.00000000000E+00 0.  1.
         21   -1    0    0  502  503 -0.00000000000E+00 -0.00000000000E+00 -0.43018526727E+03  0.43018526727E+03  0.00000000000E+00 0. -1.
         -6    2    1    2    0  503 -0.92247672262E+02 -0.19579978287E+03 -0.33717027670E+03  0.43599508728E+03  0.17193234898E+03 0.  0.
        -24    2    3    3    0    0 -0.40816956635E+02 -0.28725283910E+02 -0.75587501621E+02  0.12134187351E+03  0.80741649606E+02 0.  0.
          6    2    1    2  501    0  0.92247672262E+02  0.19579978287E+03  0.38946270557E+03  0.47666787612E+03  0.16936315150E+03 0.  0.
         24    2    5    5    0    0  0.65008504829E+02  0.20691953123E+03  0.38036291402E+03  0.44551475024E+03  0.82253560508E+02 0.  0.
          5    1    5    5  501    0  0.27239167433E+02 -0.11119748355E+02  0.90997915501E+01  0.31153125882E+02  0.47000000000E+01 0. -1.
        -13    1    6    6    0    0  0.20510626505E+02  0.42129256871E+02  0.16032607641E+03  0.16703296340E+03  0.00000000000E+00 0.  1.
         14    1    6    6    0    0  0.44497878324E+02  0.16479027436E+03  0.22003683761E+03  0.27848178684E+03  0.00000000000E+00 0. -1.
         -5    1    3    3    0  503 -0.51430715627E+02 -0.16707449896E+03 -0.26158277508E+03  0.31465321377E+03  0.47000000000E+01 0.  1.
         11    1    4    4    0    0 -0.51138922768E+01  0.22318897271E+02 -0.48066756520E+02  0.53241883438E+02  0.00000000000E+00 0. -1.
        -12    1    4    4    0    0 -0.35703064359E+02 -0.51044181181E+02 -0.27520745101E+02  0.68099990073E+02  0.00000000000E+00 0.  1.
</event>
<event>
12    1  0.8133495E-002  0.1793863E+03  0.7818608E-02  0.1168806E+00
         21   -1    0    0  503  502  0.00000000000E+00  0.00000000000E+00  0.66548209558E+03  0.66548209558E+03  0.00000000000E+00 0.  1.
         21   -1    0    0  501  503 -0.00000000000E+00 -0.00000000000E+00 -0.51127897159E+02  0.51127897159E+02  0.00000000000E+00 0.  1.
          6    2    1    2  501    0 -0.87111221355E+01 -0.45014277446E+02  0.21858168011E+03  0.28276737035E+03  0.17342798514E+03 0.  0.
         24    2    3    3    0    0 -0.42825143185E+02  0.12299916411E+02  0.58300466594E+02  0.10909860327E+03  0.80735865626E+02 0.  0.
         -6    2    1    2    0  502  0.87111221355E+01  0.45014277446E+02  0.39577251831E+03  0.43384262240E+03  0.17170138594E+03 0.  0.
        -24    2    5    5    0    0 -0.32251473142E+02  0.79349228046E+02  0.32330991278E+03  0.34367753911E+03  0.79047414077E+02 0.  0.
          5    1    3    3  501    0  0.34114021050E+02 -0.57314193857E+02  0.16028121352E+03  0.17366876707E+03  0.47000000000E+01 0. -1.
        -13    1    4    4    0    0 -0.46908622320E+02 -0.23525006235E+02  0.19119584688E+02  0.55851618463E+02  0.00000000000E+00 0.  1.
         14    1    4    4    0    0  0.40834791344E+01  0.35824922646E+02  0.39180881907E+02  0.53246984810E+02  0.00000000000E+00 0. -1.
         -5    1    5    5    0  502  0.40962595278E+02 -0.34334950600E+02  0.72462605532E+02  0.90165083292E+02  0.47000000000E+01 0.  1.
         11    1    6    6    0    0  0.19356056662E+02  0.57162180086E+02  0.17129811070E+03  0.18161832092E+03  0.00000000000E+00 0. -1.
        -12    1    6    6    0    0 -0.51607529804E+02  0.22187047960E+02  0.15201180208E+03  0.16205921819E+03  0.00000000000E+00 0.  1.
</event>
<event>
12    1  0.8133495E-002  0.2077335E+03  0.7818608E-02  0.1143402E+00
         21   -1    0    0  503  502  0.00000000000E+00  0.00000000000E+00  0.77649163791E+02  0.77649163791E+02  0.00000000000E+00 0.  1.
         21   -1    0    0  501  503 -0.00000000000E+00 -0.00000000000E+00 -0.55977053091E+03  0.55977053091E+03  0.00000000000E+00 0.  1.
          6    2    1    2  501    0  0.64200281188E+02  0.97395611186E+02 -0.21271528748E+03  0.29722441339E+03  0.17171772536E+03 0.  0.
         24    2    3    3    0    0  0.82337958708E+02  0.10498006132E+03 -0.22473278426E+03  0.27370826025E+03  0.81308269483E+02 0.  0.
         -6    2    1    2    0  502 -0.64200281188E+02 -0.97395611186E+02 -0.26940607964E+03  0.34019528131E+03  0.17188837220E+03 0.  0.
        -24    2    5    5    0    0  0.31606629193E+00 -0.93388743014E+00 -0.94704103796E+02  0.13040945337E+03  0.89648124400E+02 0.  0.
          5    1    3    3  501    0 -0.18137677520E+02 -0.75844501346E+01  0.12017496783E+02  0.23516153142E+02  0.47000000000E+01 0. -1.
        -13    1    4    4    0    0  0.33251154662E+01  0.63254711703E+02 -0.12267045501E+03  0.13805888409E+03  0.00000000000E+00 0.  1.
         14    1    4    4    0    0  0.79012843242E+02  0.41725349618E+02 -0.10206232925E+03  0.13564937615E+03  0.00000000000E+00 0. -1.
         -5    1    5    5    0  502 -0.64516347480E+02 -0.96461723756E+02 -0.17470197585E+03  0.20978582794E+03  0.47000000000E+01 0.  1.
         13    1    6    6    0    0 -0.25528869902E+02 -0.19180652034E+02 -0.93441900968E+02  0.98747199795E+02  0.00000000000E+00 0. -1.
        -14    1    6    6    0    0  0.25844936194E+02  0.18246764604E+02 -0.12622028288E+01  0.31662253574E+02  0.00000000000E+00 0.  1.
</event>
<event>
12    1  0.8133495E-002  0.2647607E+03  0.7818608E-02  0.1104349E+00
         21   -1    0    0  503  502  0.00000000000E+00  0.00000000000E+00  0.81230940950E+03  0.81230940950E+03  0.00000000000E+00 0. -1.
         21   -1    0    0  501  503 -0.00000000000E+00 -0.00000000000E+00 -0.13141013576E+03  0.13141013576E+03  0.00000000000E+00 0.  1.
          6    2    1    2  501    0 -0.11104133511E+03 -0.16812604638E+03  0.61705558783E+03  0.67137008379E+03  0.17141658425E+03 0.  0.
         24    2    3    3    0    0 -0.80119469260E+02 -0.70707566056E+02  0.18883765399E+03  0.23109833706E+03  0.79549309102E+02 0.  0.
         -6    2    1    2    0  502  0.11104133511E+03  0.16812604638E+03  0.63843685909E+02  0.27234946148E+03  0.17176049418E+03 0.  0.
        -24    2    5    5    0    0  0.21661253983E+02  0.10401727125E+03 -0.21404479370E+02  0.13310839844E+03  0.77271542992E+02 0.  0.
          5    1    3    3  501    0 -0.30921865854E+02 -0.97418480328E+02  0.42821793384E+03  0.44027174672E+03  0.47000000000E+01 0. -1.
        -13    1    4    4    0    0 -0.62420034532E+01  0.15380795087E+02  0.10194655554E+02  0.19479796366E+02  0.00000000000E+00 0.  1.
         14    1    4    4    0    0 -0.73877465807E+02 -0.86088361142E+02  0.17864299843E+03  0.21161854070E+03  0.00000000000E+00 0. -1.
         -5    1    5    5    0  502  0.89380081131E+02  0.64108775135E+02  0.85248165279E+02  0.13924106304E+03  0.47000000000E+01 0.  1.
         11    1    6    6    0    0  0.11168549105E+02  0.30446734971E+02  0.28842374995E+02  0.43400722976E+02  0.00000000000E+00 0. -1.
        -12    1    6    6    0    0  0.10492704878E+02  0.73570536278E+02 -0.50246854365E+02  0.89707675466E+02  0.00000000000E+00 0.  1.
</event>
<event>
12    1  0.8133495E-002  0.2000234E+03  0.7818608E-02  0.1149776E+00
         21   -1    0    0  501  502  0.00000000000E+00  0.00000000000E+00  0.77834201811E+03  0.77834201811E+03  0.00000000000E+00 0. -1.
         21   -1    0    0  502  503 -0.00000000000E+00 -0.00000000000E+00 -0.14472032350E+03  0.14472032350E+03  0.00000000000E+00 0.  1.
         -6    2    1    2    0  503 -0.57401833639E+02 -0.83236837849E+02 -0.53860672833E+02  0.20714806573E+03  0.17258623171E+03 0.  0.
        -24    2    3    3    0    0  0.16041875644E+02 -0.12592558920E+02 -0.14456347033E+02  0.97789099613E+02  0.94539979475E+02 0.  0.
          6    2    1    2  501    0  0.57401833639E+02  0.83236837849E+02  0.68748236744E+03  0.71591427589E+03  0.17227275814E+03 0.  0.
         24    2    5    5    0    0  0.10519928899E+03  0.67230611269E+02  0.53159917288E+03  0.55201657494E+03  0.80856495794E+02 0.  0.
          5    1    5    5  501    0 -0.47797455354E+02  0.16006226579E+02  0.15588319456E+03  0.16389770094E+03  0.47000000000E+01 0. -1.
        -13    1    6    6    0    0  0.29721553000E+01  0.20644076499E+02  0.21626504215E+03  0.21726845159E+03  0.00000000000E+00 0.  1.
         14    1    6    6    0    0  0.10222713369E+03  0.46586534770E+02  0.31533413073E+03  0.33474812335E+03  0.00000000000E+00 0. -1.
         -5    1    3    3    0  503 -0.73443709283E+02 -0.70644278929E+02 -0.39404325800E+02  0.10935896612E+03  0.47000000000E+01 0.  1.
         11    1    4    4    0    0 -0.29533573997E+02  0.32668551338E+01 -0.34503552780E+02  0.45534596626E+02  0.00000000000E+00 0. -1.
        -12    1    4    4    0    0  0.45575449641E+02 -0.15859414054E+02  0.20047205747E+02  0.52254502986E+02  0.00000000000E+00 0.  1.
</event>
<event>
12    1  0.8133495E-002  0.2498580E+03  0.7818608E-02  0.1113675E+00
         21   -1    0    0  503  502  0.00000000000E+00  0.00000000000E+00  0.10401724628E+04  0.10401724628E+04  0.00000000000E+00 0.  1.
         21   -1    0    0  501  503 -0.00000000000E+00 -0.00000000000E+00 -0.39051409570E+03  0.39051409570E+03  0.00000000000E+00 0. -1.
          6    2    1    2  501    0 -0.31828249430E+02  0.17594052782E+03 -0.33349671106E+03  0.41671225201E+03  0.17453062166E+03 0.  0.
         24    2    3    3    0    0 -0.84984197222E+02  0.95715852380E+02 -0.21714518527E+03  0.26564497928E+03  0.83853356277E+02 0.  0.
         -6    2    1    2    0  502  0.31828249430E+02 -0.17594052782E+03  0.98315507817E+03  0.10139743065E+04  0.17199383628E+03 0.  0.
        -24    2    5    5    0    0 -0.90296653879E+01 -0.11413804449E+03  0.34551491957E+03  0.37202728531E+03  0.76907173369E+02 0.  0.
          5    1    3    3  501    0  0.53155947792E+02  0.80224675442E+02 -0.11635152579E+03  0.15106727273E+03  0.47000000000E+01 0. -1.
        -11    1    4    4    0    0 -0.52778497327E+01 -0.15193500404E+02 -0.17690307383E+02  0.23909101356E+02  0.00000000000E+00 0.  1.
         12    1    4    4    0    0 -0.79706347489E+02  0.11090935278E+03 -0.19945487788E+03  0.24173587792E+03  0.00000000000E+00 0. -1.
         -5    1    5    5    0  502  0.40857914818E+02 -0.61802483328E+02  0.63764015860E+03  0.64194702119E+03  0.47000000000E+01 0.  1.
         11    1    6    6    0    0 -0.31920739144E+02 -0.10572379984E+03  0.24746331325E+03  0.27098809355E+03  0.00000000000E+00 0. -1.
        -12    1    6    6    0    0  0.22891073756E+02 -0.84142446505E+01  0.98051606320E+02  0.10103919177E+03  0.00000000000E+00 0.  1.
</event>
<event>
12    1  0.8133495E-002  0.2919129E+03  0.7818608E-02  0.1089355E+00
         21   -1    0    0  503  502  0.00000000000E+00  0.00000000000E+00  0.15325707280E+03  0.15325707280E+03  0.00000000000E+00 0.  1.
         21   -1    0    0  501  503 -0.00000000000E+00 -0.00000000000E+00 -0.57029069991E+03  0.57029069991E+03  0.00000000000E+00 0.  1.
          6    2    1    2  501    0  0.21445342965E+03  0.10147604216E+03 -0.26577880633E+03  0.39478032875E+03  0.17007490543E+03 0.  0.
         24    2    3    3    0    0  0.20001399940E+03  0.12673705811E+03 -0.26567439834E+03  0.36530632370E+03  0.82449635169E+02 0.  0.
         -6    2    1    2    0  502 -0.21445342965E+03 -0.10147604216E+03 -0.15125482078E+03  0.32876744396E+03  0.17006572488E+03 0.  0.
        -24    2    5    5    0    0 -0.13072431326E+03 -0.68700899071E+01 -0.36364328970E+02  0.15793780297E+03  0.80535339901E+02 0.  0.
          5    1    3    3  501    0  0.14439430246E+02 -0.25261015959E+02 -0.10440798712E+00  0.29474005057E+02  0.47000000000E+01 0. -1.
        -11    1    4    4    0    0  0.79374417497E+02  0.69535509898E+02 -0.17348202978E+03  0.20305541103E+03  0.00000000000E+00 0.  1.
         12    1    4    4    0    0  0.12063958191E+03  0.57201548216E+02 -0.92192368564E+02  0.16225091267E+03  0.00000000000E+00 0. -1.
         -5    1    5    5    0  502 -0.83729116392E+02 -0.94605952248E+02 -0.11489049181E+03  0.17082964099E+03  0.47000000000E+01 0.  1.
         11    1    6    6    0    0 -0.16456679990E+01 -0.22724778058E+02 -0.11543479727E+02  0.25541646093E+02  0.00000000000E+00 0. -1.
        -12    1    6    6    0    0 -0.12907864526E+03  0.15854688150E+02 -0.24820849243E+02  0.13239615688E+03  0.00000000000E+00 0.  1.
</event>
<event>
12    1  0.8133495E-002  0.2241100E+03  0.7818608E-02  0.1131803E+00
         21   -1    0    0  503  502  0.00000000000E+00  0.00000000000E+00  0.61970016129E+03  0.61970016129E+03  0.00000000000E+00 0. -1.
         21   -1    0    0  501  503 -0.00000000000E+00 -0.00000000000E+00 -0.13478207762E+03  0.13478207762E+03  0.00000000000E+00 0. -1.
          6    2    1    2  501    0 -0.10909585965E+03  0.79151874727E+02 -0.14417753316E+01  0.21897202766E+03  0.17256808603E+03 0.  0.
         24    2    3    3    0    0 -0.52832748893E+02  0.81301985990E+02  0.54864607020E+02  0.13920574842E+03  0.83467376911E+02 0.  0.
         -6    2    1    2    0  502  0.10909585965E+03 -0.79151874727E+02  0.48635985900E+03  0.53551021124E+03  0.17904845165E+03 0.  0.
        -24    2    5    5    0    0  0.13079812291E+02 -0.67792965563E+02  0.36688225204E+03  0.38174059548E+03  0.79726580926E+02 0.  0.
          5    1    3    3  501    0 -0.56263110758E+02 -0.21501112638E+01 -0.56306382351E+02  0.79766279242E+02  0.47000000000E+01 0. -1.
        -13    1    4    4    0    0  0.61106939207E+01  0.48124166921E+02  0.52562862877E+02  0.71527131746E+02  0.00000000000E+00 0.  1.
         14    1    4    4    0    0 -0.58943442814E+02  0.33177819070E+02  0.23017441430E+01  0.67678616675E+02  0.00000000000E+00 0. -1.
         -5    1    5    5    0  502  0.96016047360E+02 -0.11358909163E+02  0.11947760695E+03  0.15376961576E+03  0.47000000000E+01 0.  1.
         11    1    6    6    0    0  0.10892461241E+02 -0.84202218950E+02  0.25810733171E+03  0.27171318347E+03  0.00000000000E+00 0. -1.
        -12    1    6    6    0    0  0.21873510502E+01  0.16409253386E+02  0.10877492033E+03  0.11002741201E+03  0.00000000000E+00 0.  1.
</event>
<event>
12    1  0.8133495E-002  0.1809621E+03  0.7818608E-02  0.1167257E+00
         21   -1    0    0  503  502  0.00000000000E+00  0.00000000000E+00  0.94766229650E+02  0.94766229650E+02  0.00000000000E+00 0.  1.
         21   -1    0    0  501  503 -0.00000000000E+00 -0.00000000000E+00 -0.34838542606E+03  0.34838542606E+03  0.00000000000E+00 0. -1.
          6    2    1    2  501    0 -0.69489443418E+01  0.52448496216E+02 -0.97579532653E+02  0.20420469978E+03  0.17140204676E+03 0.  0.
         24    2    3    3    0    0  0.60810062624E+02  0.46674479324E+02 -0.90888642606E+02  0.13571031821E+03  0.65423041646E+02 0.  0.
         -6    2    1    2    0  502  0.69489443418E+01 -0.52448496216E+02 -0.15603966376E+03  0.23894695593E+03  0.17305530475E+03 0.  0.
        -24    2    5    5    0    0  0.67566110538E+02 -0.55870861131E+02 -0.90063821692E+02  0.14916357687E+03  0.80321530558E+02 0.  0.
          5    1    3    3  501    0 -0.67759006966E+02  0.57740168925E+01 -0.66908900472E+01  0.68494381563E+02  0.47000000000E+01 0. -1.
        -13    1    4    4    0    0  0.43472008676E+02  0.33959235288E+01 -0.74441155857E+02  0.86271858217E+02  0.00000000000E+00 0.  1.
         14    1    4    4    0    0  0.17338053948E+02  0.43278555795E+02 -0.16447486749E+02  0.49438459996E+02  0.00000000000E+00 0. -1.
         -5    1    5    5    0  502 -0.60617166196E+02  0.34223649148E+01 -0.65975842067E+02  0.89783379061E+02  0.47000000000E+01 0.  1.
         11    1    6    6    0    0  0.50777157376E+02 -0.76736002698E+02 -0.72379667966E+02  0.11707070580E+03  0.00000000000E+00 0. -1.
        -12    1    6    6    0    0  0.16788953162E+02  0.20865141566E+02 -0.17684153726E+02  0.32092871076E+02  0.00000000000E+00 0.  1.
</event>
<event>
12    1  0.8133495E-002  0.1739817E+03  0.7818608E-02  0.1174015E+00
         21   -1    0    0  503  502  0.00000000000E+00  0.00000000000E+00  0.30995779819E+03  0.30995779819E+03  0.00000000000E+00 0. -1.
         21   -1    0    0  501  503 -0.00000000000E+00 -0.00000000000E+00 -0.13459795233E+03  0.13459795233E+03  0.00000000000E+00 0. -1.
          6    2    1    2  501    0  0.18418585391E+02 -0.11842155238E+02  0.20483216531E+03  0.26809541037E+03  0.17157928834E+03 0.  0.
         24    2    3    3    0    0 -0.46593715587E+02  0.26801854000E+02  0.95847643988E+02  0.13535628797E+03  0.79026831676E+02 0.  0.
         -6    2    1    2    0  502 -0.18418585391E+02  0.11842155238E+02 -0.29472319456E+02  0.17646034015E+03  0.17259824189E+03 0.  0.
        -24    2    5    5    0    0  0.41770057973E+02  0.14114797073E+02  0.24376157961E+02  0.95530826304E+02  0.81166350528E+02 0.  0.
          5    1    3    3  501    0  0.65012300978E+02 -0.38644009238E+02  0.10898452132E+03  0.13273912240E+03  0.47000000000E+01 0. -1.
        -11    1    4    4    0    0  0.53069976765E+01  0.11432744717E+02 -0.10251775008E+02  0.16247177198E+02  0.00000000000E+00 0.  1.
         12    1    4    4    0    0 -0.51900713264E+02  0.15369109283E+02  0.10609941900E+03  0.11910911077E+03  0.00000000000E+00 0. -1.
         -5    1    5    5    0  502 -0.60188643363E+02 -0.22726418343E+01 -0.53848477417E+02  0.80929513844E+02  0.47000000000E+01 0.  1.
         13    1    6    6    0    0  0.11738629520E+02 -0.10313530156E+02 -0.27004129472E+02  0.31199156011E+02  0.00000000000E+00 0. -1.
        -14    1    6    6    0    0  0.30031428453E+02  0.24428327228E+02  0.51380287433E+02  0.64331670294E+02  0.00000000000E+00 0.  1.
</event>
<event>
12    1  0.8133495E-002  0.2034690E+03  0.7818608E-02  0.1147011E+00
         21   -1    0    0  501  502  0.00000000000E+00  0.00000000000E+00  0.41137716577E+03  0.41137716577E+03  0.00000000000E+00 0.  1.
         21   -1    0    0  502  503 -0.00000000000E+00 -0.00000000000E+00 -0.10067310051E+03  0.10067310051E+03  0.00000000000E+00 0.  1.
         -6    2    1    2    0  503 -0.97717445816E+02  0.40590301596E+02  0.13823414891E+03  0.24531915164E+03  0.17284829892E+03 0.  0.
        -24    2    3    3    0    0 -0.11094357729E+02  0.38293095694E+02  0.13048060889E+03  0.15819255451E+03  0.80064030981E+02 0.  0.
          6    2    1    2  501    0  0.97717445816E+02 -0.40590301596E+02  0.17246991635E+03  0.26673111464E+03  0.17379109204E+03 0.  0.
         24    2    5    5    0    0  0.22437616036E+02 -0.79596022880E+02  0.11810125122E+03  0.16590184899E+03  0.82076455123E+02 0.  0.
          5    1    5    5  501    0  0.75279829780E+02  0.39005721284E+02  0.54368665128E+02  0.10082926565E+03  0.47000000000E+01 0. -1.
        -11    1    6    6    0    0  0.18708758568E+02 -0.87224279962E+02  0.60758132996E+02  0.10793351373E+03  0.00000000000E+00 0.  1.
         12    1    6    6    0    0  0.37288574683E+01  0.76282570816E+01  0.57343118224E+02  0.57968335251E+02  0.00000000000E+00 0. -1.
         -5    1    3    3    0  503 -0.86623088087E+02  0.22972059014E+01  0.77535400252E+01  0.87126597131E+02  0.47000000000E+01 0.  1.
         11    1    4    4    0    0 -0.31598352303E+02 -0.83013411755E+01  0.25233969008E+02  0.41281004415E+02  0.00000000000E+00 0. -1.
        -12    1    4    4    0    0  0.20503994575E+02  0.46594436870E+02  0.10524663988E+03  0.11691155010E+03  0.00000000000E+00 0.  1.
</event>
<event>
12    1  0.8133495E-002  0.1808308E+03  0.7818608E-02  0.1167096E+00
         21   -1    0    0  503  502  0.00000000000E+00  0.00000000000E+00  0.24026908064E+03  0.24026908064E+03  0.00000000000E+00 0.  1.
         21   -1    0    0  501  503 -0.00000000000E+00 -0.00000000000E+00 -0.21922984754E+03  0.21922984754E+03  0.00000000000E+00 0.  1.
          6    2    1    2  501    0  0.22378101384E+02 -0.50704422375E+02 -0.13121752987E+03  0.22310542280E+03  0.17171567101E+03 0.  0.
         24    2    3    3    0    0 -0.36479418127E+02  0.14632896913E+02 -0.44794991803E+02  0.99719370187E+02  0.79953060486E+02 0.  0.
         -6    2    1    2    0  502 -0.22378101384E+02  0.50704422375E+02  0.15225676296E+03  0.23639350538E+03  0.17212800367E+03 0.  0.
        -24    2    5    5    0    0 -0.30696912538E+02  0.34897548204E+01  0.91432895519E+01  0.85390248054E+02  0.79078542544E+02 0.  0.
          5    1    3    3  501    0  0.58857519510E+02 -0.65337319287E+02 -0.86422538065E+02  0.12338605262E+03  0.47000000000E+01 0. -1.
        -13    1    4    4    0    0  0.76026435194E+01 -0.26691388917E+02 -0.20903287200E+02  0.34744464977E+02  0.00000000000E+00 0.  1.
         14    1    4    4    0    0 -0.44082061646E+02  0.41324285829E+02 -0.23891704602E+02  0.64974905210E+02  0.00000000000E+00 0. -1.
         -5    1    5    5    0  502  0.83188111542E+01  0.47214667555E+02  0.14311347341E+03  0.15100325733E+03  0.47000000000E+01 0.  1.
         13    1    6    6    0    0 -0.38180953437E+02 -0.29501082302E+02  0.16076196699E+02  0.50858068805E+02  0.00000000000E+00 0. -1.
        -14    1    6    6    0    0  0.74840408986E+01  0.32990837122E+02 -0.69329071475E+01  0.34532179249E+02  0.00000000000E+00 0.  1.
</event>
<event>
12    1  0.8133495E-002  0.1996585E+03  0.7818608E-02  0.1151431E+00
         21   -1    0    0  503  502  0.00000000000E+00  0.00000000000E+00  0.90805561736E+03  0.90805561736E+03  0.00000000000E+00 0.  1.
         21   -1    0    0  501  503 -0.00000000000E+00 -0.00000000000E+00 -0.45420633888E+02  0.45420633888E+02  0.00000000000E+00 0.  1.
          6    2    1    2  501    0 -0.27667407164E+02  0.83457753393E+02  0.31667288952E+03  0.37435974199E+03  0.17925628425E+03 0.  0.
         24    2    3    3    0    0 -0.12943725972E+02  0.11603550614E+03  0.30516638346E+03  0.33651021830E+03  0.80503581904E+02 0.  0.
         -6    2    1    2    0  502  0.27667407164E+02 -0.83457753393E+02  0.54596209395E+03  0.57911650925E+03  0.17196116202E+03 0.  0.
        -24    2    5    5    0    0 -0.41097222161E+02 -0.71885818745E+02  0.25802315346E+03  0.28281698619E+03  0.80950277032E+02 0.  0.
          5    1    3    3  501    0 -0.14723681191E+02 -0.32577752748E+02  0.11506506065E+02  0.37849523693E+02  0.47000000000E+01 0. -1.
        -11    1    4    4    0    0 -0.17654544904E+01  0.85700512919E+02  0.11401003116E+03  0.14263934222E+03  0.00000000000E+00 0.  1.
         12    1    4    4    0    0 -0.11178271482E+02  0.30334993222E+02  0.19115635230E+03  0.19387087608E+03  0.00000000000E+00 0. -1.
         -5    1    5    5    0  502  0.68764629324E+02 -0.11571934648E+02  0.28793894049E+03  0.29629952306E+03  0.47000000000E+01 0.  1.
         11    1    6    6    0    0 -0.42527603230E+02  0.12784700319E+01  0.90022394551E+02  0.99570392400E+02  0.00000000000E+00 0. -1.
        -12    1    6    6    0    0  0.14303810698E+01 -0.73164288777E+02  0.16800075891E+03  0.18324659379E+03  0.00000000000E+00 0.  1.
</event>
<event>
12    1  0.8133495E-002  0.2695161E+03  0.7818608E-02  0.1101707E+00
         21   -1    0    0  501  502  0.00000000000E+00  0.00000000000E+00  0.45382453654E+03  0.45382453654E+03  0.00000000000E+00 0. -1.
         21   -1    0    0  502  503 -0.00000000000E+00 -0.00000000000E+00 -0.11301703192E+04  0.11301703192E+04  0.00000000000E+00 0. -1.
         -6    2    1    2    0  503  0.74875899281E+02 -0.19351209060E+03 -0.10720888112E+04  0.11051927377E+04  0.17036208195E+03 0.  0.
        -24    2    3    3    0    0  0.13003684901E+02 -0.14940442838E+03 -0.91431197611E+03  0.93000918695E+03  0.80373621994E+02 0.  0.
          6    2    1    2  501    0 -0.74875899281E+02  0.19351209060E+03  0.39574302856E+03  0.47880211796E+03  0.17200463368E+03 0.  0.
         24    2    5    5    0    0 -0.84404281798E+02  0.66683902789E+02  0.14567857583E+03  0.19821256039E+03  0.80592468406E+02 0.  0.
          5    1    5    5  501    0  0.95283825176E+01  0.12682818781E+03  0.25006445273E+03  0.28058955757E+03  0.47000000000E+01 0. -1.
        -11    1    6    6    0    0  0.48085956026E+01 -0.92409367921E+01  0.36924637428E+02  0.38365953053E+02  0.00000000000E+00 0.  1.
         12    1    6    6    0    0 -0.89212877401E+02  0.75924839581E+02  0.10875393840E+03  0.15984660734E+03  0.00000000000E+00 0. -1.
         -5    1    3    3    0  503  0.61872214380E+02 -0.44107662218E+02 -0.15777683509E+03  0.17518355080E+03  0.47000000000E+01 0.  1.
         11    1    4    4    0    0 -0.32713527172E+02 -0.77112609841E+02 -0.49883583712E+03  0.50581985119E+03  0.00000000000E+00 0. -1.
        -12    1    4    4    0    0  0.45717212073E+02 -0.72291818542E+02 -0.41547613898E+03  0.42418933576E+03  0.00000000000E+00 0.  1.
</event>
<event>
12    1  0.8133495E-002  0.2280220E+03  0.7818608E-02  0.1129487E+00
         21   -1    0    0  503  502  0.00000000000E+00  0.00000000000E+00  0.30967561141E+02  0.30967561141E+02  0.00000000000E+00 0.  1.
         21   -1    0    0  501  503 -0.00000000000E+00 -0.00000000000E+00 -0.16632373306E+04  0.16632373306E+04  0.00000000000E+00 0.  1.
          6    2    1    2  501    0 -0.12582540262E+03  0.55098216805E+02 -0.69489990592E+03  0.73135484821E+03  0.18200601452E+03 0.  0.
         24    2    3    3    0    0 -0.61377903337E+02  0.91319564989E+02 -0.29658557612E+03  0.32621060039E+03  0.79648238349E+02 0.  0.
         -6    2    1    2    0  502  0.12582540262E+03 -0.55098216805E+02 -0.93736986352E+03  0.96285004351E+03  0.17190142467E+03 0.  0.
        -24    2    5    5    0    0  0.82497594476E+02 -0.35511942281E+02 -0.29261910135E+03  0.31633124530E+03  0.79828360510E+02 0.  0.
          5    1    3    3  501    0 -0.64447499288E+02 -0.36221348184E+02 -0.39831432979E+03  0.40514424783E+03  0.47000000000E+01 0. -1.
        -11    1    4    4    0    0  0.11351887654E+02  0.39152421300E+02 -0.14038404248E+03  0.14618295670E+03  0.00000000000E+00 0.  1.
         12    1    4    4    0    0 -0.72729790991E+02  0.52167143688E+02 -0.15620153365E+03  0.18002764369E+03  0.00000000000E+00 0. -1.
         -5    1    5    5    0  502  0.43327808149E+02 -0.19586274524E+02 -0.64475076218E+03  0.64651879821E+03  0.47000000000E+01 0.  1.
         11    1    6    6    0    0  0.43144954876E+02  0.23560007688E+02 -0.11649472819E+03  0.12644201355E+03  0.00000000000E+00 0. -1.
        -12    1    6    6    0    0  0.39352639600E+02 -0.59071949969E+02 -0.17612437315E+03  0.18988923175E+03  0.00000000000E+00 0.  1.
</event>
<event>
12    1  0.8133495E-002  0.2263738E+03  0.7818608E-02  0.1129758E+00
         21   -1    0    0  501  502  0.00000000000E+00  0.00000000000E+00  0.24538042933E+03  0.24538042933E+03  0.00000000000E+00 0. -1.
         21   -1    0    0  502  503 -0.00000000000E+00 -0.00000000000E+00 -0.29839022101E+03  0.29839022101E+03  0.00000000000E+00 0. -1.
         -6    2    1    2    0  503 -0.51127584315E+02  0.13254970651E+03 -0.17759087916E+03  0.28538035179E+03  0.17239480924E+03 0.  0.
        -24    2    3    3    0    0  0.25819377441E+02  0.11801219763E+03 -0.10617922710E+03  0.17929600734E+03  0.79243365257E+02 0.  0.
          6    2    1    2  501    0  0.51127584315E+02 -0.13254970651E+03  0.12458108748E+03  0.25839029855E+03  0.17624314017E+03 0.  0.
         24    2    5    5    0    0  0.18371700806E+02 -0.69462010622E+02 -0.86436275145E+01  0.10731442370E+03  0.79241295595E+02 0.  0.
          5    1    5    5  501    0  0.32755883509E+02 -0.63087695887E+02  0.13322471500E+03  0.15107587485E+03  0.47000000000E+01 0. -1.
        -11    1    6    6    0    0 -0.27451356961E+02 -0.34188118167E+02 -0.20311951087E+02  0.48321628488E+02  0.00000000000E+00 0.  1.
         12    1    6    6    0    0  0.45823057767E+02 -0.35273892455E+02  0.11668323572E+02  0.58992795213E+02  0.00000000000E+00 0. -1.
         -5    1    3    3    0  503 -0.76946961756E+02  0.14537508874E+02 -0.71411652056E+02  0.10608434445E+03  0.47000000000E+01 0.  1.
         13    1    4    4    0    0 -0.24273349401E+02  0.54019790204E+02 -0.65878883073E+02  0.88585328694E+02  0.00000000000E+00 0. -1.
        -14    1    4    4    0    0  0.50092726842E+02  0.63992407430E+02 -0.40300344030E+02  0.90710678644E+02  0.00000000000E+00 0.  1.
</event>
<event>
12    1  0.8133495E-002  0.2006083E+03  0.7818608E-02  0.1149231E+00
         21   -1    0    0  501  502  0.00000000000E+00  0.00000000000E+00  0.62381938965E+02  0.62381938965E+02  0.00000000000E+00 0.  1.
         21   -1    0    0  502  503 -0.00000000000E+00 -0.00000000000E+00 -0.70556058301E+03  0.70556058301E+03  0.00000000000E+00 0. -1.
         -6    2    1    2    0  503 -0.90183782487E+02 -0.50405060547E+02 -0.43405434875E+03  0.47817034605E+03  0.17195905740E+03 0.  0.
        -24    2    3    3    0    0 -0.26876841851E+00 -0.58512103639E+02 -0.21433607824E+03  0.24058111587E+03  0.92279902304E+02 0.  0.
          6    2    1    2  501    0  0.90183782487E+02  0.50405060547E+02 -0.20912429529E+03  0.28977217592E+03  0.17193358690E+03 0.  0.
         24    2    5    5    0    0  0.27101925396E+02 -0.87071640437E+00 -0.18042374969E+03  0.20343367168E+03  0.89984758802E+02 0.  0.
          5    1    5    5  501    0  0.63081857091E+02  0.51275776951E+02 -0.28700545607E+02  0.86338504238E+02  0.47000000000E+01 0. -1.
        -13    1    6    6    0    0  0.38426374975E+02  0.15829112405E+02 -0.29012851812E+02  0.50684244727E+02  0.00000000000E+00 0.  1.
         14    1    6    6    0    0 -0.11324449579E+02 -0.16699828809E+02 -0.15141089788E+03  0.15274942696E+03  0.00000000000E+00 0. -1.
         -5    1    3    3    0  503 -0.89915014068E+02  0.81070430920E+01 -0.21971827051E+03  0.23758923018E+03  0.47000000000E+01 0.  1.
         13    1    4    4    0    0  0.41238067263E+02 -0.14756724918E+02 -0.12784040645E+03  0.13513514954E+03  0.00000000000E+00 0. -1.
        -14    1    4    4    0    0 -0.41506835682E+02 -0.43755378721E+02 -0.86495671793E+02  0.10544596633E+03  0.00000000000E+00 0.  1.
</event>
<event>
12    1  0.8133495E-002  0.2697961E+03  0.7818608E-02  0.1101477E+00
         21   -1    0    0  501  502  0.00000000000E+00  0.00000000000E+00  0.40707073131E+02  0.40707073131E+02  0.00000000000E+00 0. -1.
         21   -1    0    0  502  503 -0.00000000000E+00 -0.00000000000E+00 -0.17847541031E+04  0.17847541031E+04  0.00000000000E+00 0.  1.
         -6    2    1    2    0  503  0.44392929579E+02 -0.20219490564E+03 -0.88407697965E+03  0.92416298021E+03  0.17213830484E+03 0.  0.
        -24    2    3    3    0    0  0.82938828611E+02 -0.11919479840E+03 -0.39633858080E+03  0.42789124029E+03  0.70145517547E+02 0.  0.
          6    2    1    2  501    0 -0.44392929579E+02  0.20219490564E+03 -0.85997005033E+03  0.90129819603E+03  0.17302149760E+03 0.  0.
         24    2    5    5    0    0 -0.19903077940E+02  0.13173886591E+03 -0.76624692716E+03  0.78142359411E+03  0.75744430490E+02 0.  0.
          5    1    5    5  501    0 -0.24489851638E+02  0.70456039728E+02 -0.93723123176E+02  0.11987460192E+03  0.47000000000E+01 0. -1.
        -11    1    6    6    0    0 -0.15254067979E+02  0.12737311164E+03 -0.53782245226E+03  0.55291010690E+03  0.00000000000E+00 0.  1.
         12    1    6    6    0    0 -0.46490099617E+01  0.43657542711E+01 -0.22842447490E+03  0.22851348721E+03  0.00000000000E+00 0. -1.
         -5    1    3    3    0  503 -0.38545899032E+02 -0.83000107242E+02 -0.48773839885E+03  0.49627173993E+03  0.47000000000E+01 0.  1.
         11    1    4    4    0    0  0.23506990881E+02 -0.60339988996E+02 -0.93650057766E+02  0.11385879945E+03  0.00000000000E+00 0. -1.
        -12    1    4    4    0    0  0.59431837730E+02 -0.58854809401E+02 -0.30268852303E+03  0.31403244084E+03  0.00000000000E+00 0.  1.
</event>
<event>
12    1  0.8133495E-002  0.1830012E+03  0.7818608E-02  0.1164980E+00
         21   -1    0    0  501  502  0.00000000000E+00  0.00000000000E+00  0.28571226570E+02  0.28571226570E+02  0.00000000000E+00 0.  1.
         21   -1    0    0  502  503 -0.00000000000E+00 -0.00000000000E+00 -0.11712254544E+04  0.11712254544E+04  0.00000000000E+00 0. -1.
         -6    2    1    2    0  503 -0.47158990308E+02 -0.40146844849E+02 -0.55919748785E+03  0.58831388125E+03  0.17197573358E+03 0.  0.
        -24    2    3    3    0    0 -0.18945625545E+02 -0.59929588373E+02 -0.53789404528E+03  0.54753058126E+03  0.80679868508E+02 0.  0.
          6    2    1    2  501    0  0.47158990308E+02  0.40146844849E+02 -0.58345674001E+03  0.61148279975E+03  0.17220251858E+03 0.  0.
         24    2    5    5    0    0  0.43336503666E+02  0.91670547621E+02 -0.44445523878E+03  0.46311565144E+03  0.81572700589E+02 0.  0.
          5    1    5    5  501    0  0.38224866422E+01 -0.51523702772E+02 -0.13900150124E+03  0.14836714831E+03  0.47000000000E+01 0. -1.
        -13    1    6    6    0    0  0.53979363676E+02  0.73793857933E+02 -0.22779032544E+03  0.24545414548E+03  0.00000000000E+00 0.  1.
         14    1    6    6    0    0 -0.10642860010E+02  0.17876689688E+02 -0.21666491334E+03  0.21766150596E+03  0.00000000000E+00 0. -1.
         -5    1    3    3    0  503 -0.28213364763E+02  0.19782743524E+02 -0.21303442567E+02  0.40783299987E+02  0.47000000000E+01 0.  1.
         13    1    4    4    0    0 -0.35413400099E+02 -0.38102997300E+02 -0.15172098418E+03  0.16039078637E+03  0.00000000000E+00 0. -1.
        -14    1    4    4    0    0  0.16467774554E+02 -0.21826591072E+02 -0.38617306110E+03  0.38713979490E+03  0.00000000000E+00 0.  1.
</event>
<event>
12    1  0.8133495E-002  0.2327187E+03  0.7818608E-02  0.1125127E+00
         21   -1    0    0  503  502  0.00000000000E+00  0.00000000000E+00  0.51261725874E+03  0.51261725874E+03  0.00000000000E+00 0. -1.
         21   -1    0    0  501  503 -0.00000000000E+00 -0.00000000000E+00 -0.11178748104E+03  0.11178748104E+03  0.00000000000E+00 0. -1.
          6    2    1    2  501    0 -0.76912533653E+01  0.15676111176E+03  0.12061144060E+03  0.26015163876E+03  0.16881514744E+03 0.  0.
         24    2    3    3    0    0 -0.11282036291E+02  0.69022561473E+02  0.84627928712E+01  0.11763723206E+03  0.94209878297E+02 0.  0.
         -6    2    1    2    0  502  0.76912533653E+01 -0.15676111176E+03  0.28021833710E+03  0.36425310102E+03  0.17182783133E+03 0.  0.
        -24    2    5    5    0    0 -0.55449080355E+02 -0.92237560128E+02  0.21506981065E+03  0.25282415077E+03  0.77991408148E+02 0.  0.
          5    1    3    3  501    0  0.35907829256E+01  0.87738550288E+02  0.11214864773E+03  0.14251440669E+03  0.47000000000E+01 0. -1.
        -13    1    4    4    0    0 -0.31989904577E+02 -0.58705533039E+01  0.21303670840E+02  0.38880120656E+02  0.00000000000E+00 0.  1.
         14    1    4    4    0    0  0.20707868286E+02  0.74893114777E+02 -0.12840877969E+02  0.78757111406E+02  0.00000000000E+00 0. -1.
         -5    1    5    5    0  502  0.63140333720E+02 -0.64523551634E+02  0.65148526445E+02  0.11142895026E+03  0.47000000000E+01 0.  1.
         11    1    6    6    0    0  0.13690423078E+02 -0.47443038760E+02  0.64997749414E+02  0.81627060707E+02  0.00000000000E+00 0. -1.
        -12    1    6    6    0    0 -0.69139503433E+02 -0.44794521368E+02  0.15007206124E+03  0.17119709006E+03  0.00000000000E+00 0.  1.
</event>
<event>
12    1  0.8133495E-002  0.2470624E+03  0.7818608E-02  0.1115341E+00
         21   -1    0    0  503  502  0.00000000000E+00  0.00000000000E+00  0.16666957807E+04  0.16666957807E+04  0.00000000000E+00 0. -1.
         21   -1    0    0  501  503 -0.00000000000E+00 -0.00000000000E+00 -0.37401014751E+02  0.37401014751E+02  0.00000000000E+00 0. -1.
          6    2    1    2  501    0  0.12809663698E+03 -0.12135851814E+03  0.95070034129E+03  0.98227844620E+03  0.17292532669E+03 0.  0.
         24    2    3    3    0    0  0.10283229564E+03 -0.15517463400E+03  0.81475107164E+03  0.83984912845E+03  0.82907187639E+02 0.  0.
         -6    2    1    2    0  502 -0.12809663698E+03  0.12135851814E+03  0.67859442466E+03  0.72181834925E+03  0.17144881980E+03 0.  0.
        -24    2    5    5    0    0 -0.12975789014E+03  0.80354638303E+02  0.64774620055E+03  0.67026467960E+03  0.79910089767E+02 0.  0.
          5    1    3    3  501    0  0.25264341334E+02  0.33816115863E+02  0.13594926965E+03  0.14242931775E+03  0.47000000000E+01 0. -1.
        -11    1    4    4    0    0  0.43433705746E+02 -0.61855553181E+02  0.17528764653E+03  0.19088833196E+03  0.00000000000E+00 0.  1.
         12    1    4    4    0    0  0.59398589896E+02 -0.93319080821E+02  0.63946342511E+03  0.64896079649E+03  0.00000000000E+00 0. -1.
         -5    1    5    5    0  502  0.16612531679E+01  0.41003879836E+02  0.30848224114E+02  0.51553669652E+02  0.47000000000E+01 0.  1.
         13    1    6    6    0    0 -0.17511541890E+02 -0.20488988102E+01  0.17582364535E+02  0.24899631089E+02  0.00000000000E+00 0. -1.
        -14    1    6    6    0    0 -0.11224634825E+03  0.82403537114E+02  0.63016383601E+03  0.64536504851E+03  0.00000000000E+00 0.  1.
</event>
<event>
12    1  0.8133495E-002  0.2337395E+03  0.7818608E-02  0.1124098E+00
         21   -1    0    0  503  502  0.00000000000E+00  0.00000000000E+00  0.28942970578E+03  0.28942970578E+03  0.00000000000E+00 0.  1.
         21   -1    0    0  501  503 -0.00000000000E+00 -0.00000000000E+00 -0.19639762528E+03  0.19639762528E+03  0.00000000000E+00 0.  1.
          6    2    1    2  501    0  0.17200050960E+02 -0.15756882834E+03  0.95346739117E+02  0.25243841018E+03  0.17178583427E+03 0.  0.
         24    2    3    3    0    0  0.38805417509E+02 -0.10331380405E+03 -0.32151558369E+01  0.13777831834E+03  0.82419204328E+02 0.  0.
         -6    2    1    2    0  502 -0.17200050960E+02  0.15756882834E+03 -0.23146586187E+01  0.23338892087E+03  0.17129288754E+03 0.  0.
        -24    2    5    5    0    0 -0.55149601520E+02  0.44806391373E+02  0.26619737676E+02  0.11085392641E+03  0.80813930175E+02 0.  0.
          5    1    3    3  501    0 -0.21605366549E+02 -0.54255024292E+02  0.98561894953E+02  0.11466009184E+03  0.47000000000E+01 0. -1.
        -11    1    4    4    0    0  0.56274524408E+02 -0.64680478585E+02 -0.26071313858E+02  0.89610824199E+02  0.00000000000E+00 0.  1.
         12    1    4    4    0    0 -0.17469106898E+02 -0.38633325468E+02  0.22856158021E+02  0.48167494143E+02  0.00000000000E+00 0. -1.
         -5    1    5    5    0  502  0.37949550559E+02  0.11276243697E+03 -0.28934396295E+02  0.12253499446E+03  0.47000000000E+01 0.  1.
         13    1    6    6    0    0  0.11284405617E+00 -0.12893858463E+02 -0.15801581434E+02  0.20394957603E+02  0.00000000000E+00 0. -1.
        -14    1    6    6    0    0 -0.55262445576E+02  0.57700249835E+02  0.42421319109E+02  0.90458968804E+02  0.00000000000E+00 0.  1.
</event>
<event>
12    1  0.8133495E-002  0.2335397E+03  0.7818608E-02  0.1124425E+00
         21   -1    0    0  503  502  0.00000000000E+00  0.00000000000E+00  0.17393354702E+04  0.17393354702E+04  0.00000000000E+00 0. -1.
         21   -1    0    0  501  503 -0.00000000000E+00 -0.00000000000E+00 -0.41421247367E+02  0.41421247367E+02  0.00000000000E+00 0.  1.
          6    2    1    2  501    0 -0.15265900253E+03 -0.29267706068E+02  0.40383246645E+03  0.46577064683E+03  0.17233764770E+03 0.  0.
         24    2    3    3    0    0 -0.56347397276E+01 -0.63064807251E-01  0.10472681542E+03  0.13117338832E+03  0.78784501432E+02 0.  0.
         -6    2    1    2    0  502  0.15265900253E+03  0.29267706068E+02  0.12940817563E+04  0.13149860707E+04  0.17429688568E+03 0.  0.
        -24    2    5    5    0    0  0.10329445747E+03 -0.48234727909E+02  0.88201648487E+03  0.89277360815E+03  0.78072414444E+02 0.  0.
          5    1    3    3  501    0 -0.14702426281E+03 -0.29204641260E+02  0.29910565103E+03  0.33459725851E+03  0.47000000000E+01 0. -1.
        -13    1    4    4    0    0 -0.37901126460E+02 -0.10845768194E+02  0.79773189705E+02  0.88982514408E+02  0.00000000000E+00 0.  1.
         14    1    4    4    0    0  0.32266386732E+02  0.10782703387E+02  0.24953625718E+02  0.42190873913E+02  0.00000000000E+00 0. -1.
         -5    1    5    5    0  502  0.49364545065E+02  0.77502433976E+02  0.41206527147E+03  0.42221246255E+03  0.47000000000E+01 0.  1.
         13    1    6    6    0    0  0.11022174969E+03 -0.23939285108E+02  0.73436207467E+03  0.74297347206E+03  0.00000000000E+00 0. -1.
        -14    1    6    6    0    0 -0.69272922228E+01 -0.24295442800E+02  0.14765441020E+03  0.14980013609E+03  0.00000000000E+00 0.  1.
</event>
<event>
12    1  0.8133495E-002  0.1809350E+03  0.7818608E-02  0.1168062E+00
         21   -1    0    0  503  502  0.00000000000E+00  0.00000000000E+00  0.85511620442E+02  0.85511620442E+02  0.00000000000E+00 0. -1.
         21   -1    0    0  501  503 -0.00000000000E+00 -0.00000000000E+00 -0.43027479965E+03  0.43027479965E+03  0.00000000000E+00 0. -1.
          6    2    1    2  501    0 -0.55093465700E+02  0.23731662757E+02 -0.26859691325E+03  0.32385453213E+03  0.17070141884E+03 0.  0.
         24    2    3    3    0    0 -0.13256132019E+02 -0.13789182853E+02 -0.24883465202E+03  0.26409824950E+03  0.86390594072E+02 0.  0.
         -6    2    1    2    0  502  0.55093465700E+02 -0.23731662757E+02 -0.76166265958E+02  0.19193188796E+03  0.16564440155E+03 0.  0.
        -24    2    5    5    0    0  0.52821490509E+02 -0.74588190281E+02 -0.71693234747E+02  0.14061282453E+03  0.79237229410E+02 0.  0.
          5    1    3    3  501    0 -0.41837333681E+02  0.37520845610E+02 -0.19762261230E+02  0.59756282630E+02  0.47000000000E+01 0. -1.
        -11    1    4    4    0    0  0.76236363572E+01 -0.47430521978E+02 -0.11801033632E+03  0.12741355393E+03  0.00000000000E+00 0.  1.
         12    1    4    4    0    0 -0.20879768376E+02  0.33641339125E+02 -0.13082431569E+03  0.13668469557E+03  0.00000000000E+00 0. -1.
         -5    1    5    5    0  502  0.22719751906E+01  0.50856527525E+02 -0.44730312109E+01  0.51319063430E+02  0.47000000000E+01 0.  1.
         13    1    6    6    0    0  0.24339399433E+02  0.52377191455E+01  0.60293632039E+01  0.25616269972E+02  0.00000000000E+00 0. -1.
        -14    1    6    6    0    0  0.28482091076E+02 -0.79825909427E+02 -0.77722597951E+02  0.11499655456E+03  0.00000000000E+00 0.  1.
</event>
<event>
12    1  0.8133495E-002  0.1763546E+03  0.7818608E-02  0.1172435E+00
         21   -1    0    0  503  502  0.00000000000E+00  0.00000000000E+00  0.71037371674E+02  0.71037371674E+02  0.00000000000E+00 0.  1.
         21   -1    0    0  501  503 -0.00000000000E+00 -0.00000000000E+00 -0.49940997566E+03  0.49940997566E+03  0.00000000000E+00 0.  1.
          6    2    1    2  501    0 -0.22357654026E+01 -0.37055508646E+02 -0.32464976893E+03  0.36945690918E+03  0.17240309134E+03 0.  0.
         24    2    3    3    0    0 -0.33857786648E+02 -0.17114590844E+02 -0.31936609248E+03  0.33140957461E+03  0.79989662975E+02 0.  0.
         -6    2    1    2    0  502  0.22357654026E+01  0.37055508646E+02 -0.10372283505E+03  0.20099043815E+03  0.16810895381E+03 0.  0.
        -24    2    5    5    0    0 -0.62400009224E+02  0.46772807271E+01 -0.76260070225E+02  0.12351511010E+03  0.74328635175E+02 0.  0.
          5    1    3    3  501    0  0.31622021246E+02 -0.19940917802E+02 -0.52836764517E+01  0.38047334562E+02  0.47000000000E+01 0. -1.
        -13    1    4    4    0    0 -0.48431804475E+02  0.72637170698E+01 -0.11379770172E+03  0.12388832951E+03  0.00000000000E+00 0.  1.
         14    1    4    4    0    0  0.14574017827E+02 -0.24378307914E+02 -0.20556839076E+03  0.20752124511E+03  0.00000000000E+00 0. -1.
         -5    1    5    5    0  502  0.64635774627E+02  0.32378227919E+02 -0.27462764825E+02  0.77475328051E+02  0.47000000000E+01 0.  1.
         13    1    6    6    0    0 -0.62432306107E+02 -0.25027325410E+02 -0.56447410864E+02  0.87809282291E+02  0.00000000000E+00 0. -1.
        -14    1    6    6    0    0  0.32296883296E-01  0.29704606137E+02 -0.19812659361E+02  0.35705827813E+02  0.00000000000E+00 0.  1.
</event>
<event>
12    1  0.8133495E-002  0.2131822E+03  0.7818608E-02  0.1139224E+00
         21   -1    0    0  501  502  0.00000000000E+00  0.00000000000E+00  0.11828095071E+04  0.11828095071E+04  0.00000000000E+00 0. -1.
         21   -1    0    0  502  503 -0.00000000000E+00 -0.00000000000E+00 -0.50106086646E+02  0.50106086646E+02  0.00000000000E+00 0.  1.
         -6    2    1    2    0  503  0.35731377888E+02  0.12069948624E+03  0.26607360147E+03  0.34045052382E+03  0.17107396187E+03 0.  0.
        -24    2    3    3    0    0  0.45889732470E+02  0.10447100036E+03  0.28244269462E+03  0.31482645052E+03  0.79509500929E+02 0.  0.
          6    2    1    2  501    0 -0.35731377888E+02 -0.12069948624E+03  0.86662981898E+03  0.89246506992E+03  0.17205104048E+03 0.  0.
         24    2    5    5    0    0 -0.73046937609E+02 -0.26306197558E+02  0.43633025341E+03  0.45033121002E+03  0.79913938364E+02 0.  0.
          5    1    5    5  501    0  0.37315559721E+02 -0.94393288684E+02  0.43029956557E+03  0.44213385990E+03  0.47000000000E+01 0. -1.
        -11    1    6    6    0    0  0.13241079744E+02 -0.92660613246E+01  0.25489717206E+02  0.30181314890E+02  0.00000000000E+00 0.  1.
         12    1    6    6    0    0 -0.86288017353E+02 -0.17040136234E+02  0.41084053621E+03  0.42014989513E+03  0.00000000000E+00 0. -1.
         -5    1    3    3    0  503 -0.10158354582E+02  0.16228485880E+02 -0.16369093158E+02  0.25624073302E+02  0.47000000000E+01 0.  1.
         11    1    4    4    0    0  0.41047582659E+01  0.13399476017E+01  0.10689892405E+03  0.10698609472E+03  0.00000000000E+00 0. -1.
        -12    1    4    4    0    0  0.41784974204E+02  0.10313105276E+03  0.17554377057E+03  0.20784035580E+03  0.00000000000E+00 0.  1.
</event>
<event>
12    1  0.8133495E-002  0.1856771E+03  0.7818608E-02  0.1162735E+00
         21   -1    0    0  503  502  0.00000000000E+00  0.00000000000E+00  0.19586130741E+03  0.19586130741E+03  0.00000000000E+00 0.  1.
         21   -1    0    0  501  503 -0.00000000000E+00 -0.00000000000E+00 -0.26071997086E+03  0.26071997086E+03  0.00000000000E+00 0. -1.
          6    2    1    2  501    0  0.44116101235E+02  0.55991229617E+02  0.98588300043E+02  0.21022759898E+03  0.17144894950E+03 0.  0.
         24    2    3    3    0    0  0.56212952612E+02 -0.11799817495E+02  0.10144004295E+03  0.14114661521E+03  0.79581109162E+02 0.  0.
         -6    2    1    2    0  502 -0.44116101235E+02 -0.55991229617E+02 -0.16344696349E+03  0.24635367928E+03  0.16998228507E+03 0.  0.
        -24    2    5    5    0    0  0.38172035655E+02 -0.24898915608E+02 -0.10379786954E+03  0.13996677279E+03  0.82095307169E+02 0.  0.
          5    1    3    3  501    0 -0.12096851377E+02  0.67791047112E+02 -0.28517429083E+01  0.69080983775E+02  0.47000000000E+01 0. -1.
        -13    1    4    4    0    0  0.44041248615E+02  0.21452270522E+02  0.92428540255E+02  0.10460815716E+03  0.00000000000E+00 0.  1.
         14    1    4    4    0    0  0.12171703997E+02 -0.33252088017E+02  0.90115026964E+01  0.36538458048E+02  0.00000000000E+00 0. -1.
         -5    1    5    5    0  502 -0.82288136891E+02 -0.31092314009E+02 -0.59649093952E+02  0.10638690649E+03  0.47000000000E+01 0.  1.
         11    1    6    6    0    0 -0.15339455374E+02 -0.27904865972E+02 -0.69197234159E+02  0.76172420543E+02  0.00000000000E+00 0. -1.
        -12    1    6    6    0    0  0.53511491029E+02  0.30059503640E+01 -0.34600635383E+02  0.63794352247E+02  0.00000000000E+00 0.  1.
</event>
<event>
12    1  0.8133495E-002  0.2613221E+03  0.7818608E-02  0.1106545E+00
         21   -1    0    0  501  502  0.00000000000E+00  0.00000000000E+00  0.10926485001E+03  0.10926485001E+03  0.00000000000E+00 0. -1.
         21   -1    0    0  502  503 -0.00000000000E+00 -0.00000000000E+00 -0.64686722638E+03  0.64686722638E+03  0.00000000000E+00 0. -1.
         -6    2    1    2    0  503 -0.13641234090E+03 -0.14043017381E+03 -0.19388327626E+03  0.32435428048E+03  0.17113156924E+03 0.  0.
        -24    2    3    3    0    0 -0.13644335000E+03 -0.15873927791E+03 -0.20418225405E+03  0.30282794317E+03  0.78736422248E+02 0.  0.
          6    2    1    2  501    0  0.13641234090E+03  0.14043017381E+03 -0.34371910011E+03  0.43177779591E+03  0.17309039486E+03 0.  0.
         24    2    5    5    0    0  0.10524200946E+03  0.10183549045E+03 -0.34386744318E+03  0.38194556586E+03  0.78684491066E+02 0.  0.
          5    1    5    5  501    0  0.31170331441E+02  0.38594683358E+02  0.14834306866E+00  0.49832230045E+02  0.47000000000E+01 0. -1.
        -13    1    6    6    0    0  0.79321819867E+02  0.60762080241E+02 -0.30104806570E+03  0.31719697250E+03  0.00000000000E+00 0.  1.
         14    1    6    6    0    0  0.25920189596E+02  0.41073410211E+02 -0.42819377482E+02  0.64748593366E+02  0.00000000000E+00 0. -1.
         -5    1    3    3    0  503  0.31009091497E-01  0.18309104103E+02  0.10298977788E+02  0.21526337313E+02  0.47000000000E+01 0.  1.
         13    1    4    4    0    0 -0.48679728338E+02 -0.87022648693E+02 -0.50215268897E+02  0.11164331851E+03  0.00000000000E+00 0. -1.
        -14    1    4    4    0    0 -0.87763621657E+02 -0.71716629219E+02 -0.15396698515E+03  0.19118462467E+03  0.00000000000E+00 0.  1.
</event>
<event>
12    1  0.8133495E-002  0.2122878E+03  0.7818608E-02  0.1140269E+00
         21   -1    0    0  503  502  0.00000000000E+00  0.00000000000E+00  0.42819344770E+03  0.42819344770E+03  0.00000000000E+00 0.  1.
         21   -1    0    0  501  503 -0.00000000000E+00 -0.00000000000E+00 -0.11054909538E+03  0.11054909538E+03  0.00000000000E+00 0.  1.
          6    2    1    2  501    0  0.41020515440E+02 -0.11267148583E+03  0.92271780736E+02  0.22913165946E+03  0.17207466240E+03 0.  0.
         24    2    3    3    0    0 -0.22614299095E+02 -0.11227879347E+03  0.88796882052E+02  0.16522775700E+03  0.79356105222E+02 0.  0.
         -6    2    1    2    0  502 -0.41020515440E+02  0.11267148583E+03  0.22537257159E+03  0.30961088362E+03  0.17518149682E+03 0.  0.
        -24    2    5    5    0    0 -0.27281378108E+02  0.86427810854E+02  0.49503989370E+02  0.13120308508E+03  0.80929379647E+02 0.  0.
          5    1    3    3  501    0  0.63634814534E+02 -0.39269236101E+00  0.34748986835E+01  0.63903902455E+02  0.47000000000E+01 0. -1.
        -13    1    4    4    0    0 -0.31448982349E+02 -0.11485377816E+03  0.56800869358E+02  0.13193470964E+03  0.00000000000E+00 0.  1.
         14    1    4    4    0    0  0.88346832541E+01  0.25749846914E+01  0.31996012695E+02  0.33293047363E+02  0.00000000000E+00 0. -1.
         -5    1    5    5    0  502 -0.13739137332E+02  0.26243674972E+02  0.17586858222E+03  0.17840779854E+03  0.47000000000E+01 0.  1.
         11    1    6    6    0    0 -0.30182768317E+02  0.81502998531E+02  0.57769358084E+01  0.87104025511E+02  0.00000000000E+00 0. -1.
        -12    1    6    6    0    0  0.29013902093E+01  0.49248123229E+01  0.43727053561E+02  0.44099059567E+02  0.00000000000E+00 0.  1.
</event>
<event>
12    1  0.8133495E-002  0.1918006E+03  0.7818608E-02  0.1156859E+00
         21   -1    0    0  501  502  0.00000000000E+00  0.00000000000E+00  0.28987457922E+03  0.28987457922E+03  0.00000000000E+00 0.  1.
         21   -1    0    0  502  503 -0.00000000000E+00 -0.00000000000E+00 -0.16399853439E+03  0.16399853439E+03  0.00000000000E+00 0.  1.
         -6    2    1    2    0  503  0.85017090732E+02 -0.14140329508E+02 -0.45028367545E+02  0.19701527338E+03  0.17134646021E+03 0.  0.
        -24    2    3    3    0    0  0.96113884019E+02  0.16882145868E+02 -0.79230465905E+02  0.14929309477E+03  0.80548593201E+02 0.  0.
          6    2    1    2  501    0 -0.85017090732E+02  0.14140329508E+02  0.17090441237E+03  0.25685784023E+03  0.17128857896E+03 0.  0.
         24    2    5    5    0    0 -0.55311948306E+02  0.41140322885E+02  0.28520071002E+02  0.10884842905E+03  0.79263158302E+02 0.  0.
          5    1    5    5  501    0 -0.29705142426E+02 -0.26999993377E+02  0.14238434137E+03  0.14800941118E+03  0.47000000000E+01 0. -1.
        -13    1    6    6    0    0 -0.80906934700E+01  0.20928230331E+02  0.48732250851E+02  0.53649626453E+02  0.00000000000E+00 0.  1.
         14    1    6    6    0    0 -0.47221254836E+02  0.20212092555E+02 -0.20212179849E+02  0.55198802596E+02  0.00000000000E+00 0. -1.
         -5    1    3    3    0  503 -0.11096793287E+02 -0.31022475376E+02  0.34202098360E+02  0.47722178617E+02  0.47000000000E+01 0.  1.
         11    1    4    4    0    0  0.22133441320E+02  0.21597670797E+02 -0.67491052524E+02  0.74238741768E+02  0.00000000000E+00 0. -1.
        -12    1    4    4    0    0  0.73980442699E+02 -0.47155249290E+01 -0.11739413381E+02  0.75054352997E+02  0.00000000000E+00 0.  1.
</event>
<event>
12    1  0.8133495E-002  0.1917925E+03  0.7818608E-02  0.1161274E+00
         21   -1    0    0  501  502  0.00000000000E+00  0.00000000000E+00  0.18482169054E+03  0.18482169054E+03  0.00000000000E+00 0.  1.
         21   -1    0    0  502  503 -0.00000000000E+00 -0.00000000000E+00 -0.68142981272E+03  0.68142981272E+03  0.00000000000E+00 0.  1.
         -6    2    1    2    0  503 -0.40763660362E+01 -0.14017356213E+02 -0.62308752193E+03  0.65193744364E+03  0.19123615611E+03 0.  0.
        -24    2    3    3    0    0  0.53120693086E+02 -0.11468539323E+02 -0.54618224173E+03  0.55594519311E+03  0.88355425032E+02 0.  0.
          6    2    1    2  501    0  0.40763660362E+01  0.14017356213E+02  0.12647939975E+03  0.21431405961E+03  0.17239598183E+03 0.  0.
         24    2    5    5    0    0  0.47846296273E+01  0.32666055514E+02  0.15705576946E+03  0.17818540052E+03  0.77418075245E+02 0.  0.
          5    1    5    5  501    0 -0.70826359106E+00 -0.18648699301E+02 -0.30576369710E+02  0.36128659089E+02  0.47000000000E+01 0. -1.
        -11    1    6    6    0    0 -0.14173159183E+02  0.50676264677E+02  0.71855731546E+02  0.89062946273E+02  0.00000000000E+00 0.  1.
         12    1    6    6    0    0  0.18957788810E+02 -0.18010209162E+02  0.85200037914E+02  0.89122454248E+02  0.00000000000E+00 0. -1.
         -5    1    3    3    0  503 -0.57197059122E+02 -0.25488168903E+01 -0.76905280199E+02  0.95992250532E+02  0.47000000000E+01 0.  1.
         13    1    4    4    0    0 -0.91308538629E+01  0.42651790371E+01 -0.55338002007E+01  0.11497268769E+02  0.00000000000E+00 0. -1.
        -14    1    4    4    0    0  0.62251546949E+02 -0.15733718360E+02 -0.54064844153E+03  0.54444792434E+03  0.00000000000E+00 0.  1.
</event>
<event>
12    1  0.8133495E-002  0.1735243E+03  0.7818608E-02  0.1174257E+00
         21   -1    0    0  501  502  0.00000000000E+00  0.00000000000E+00  0.57431223366E+02  0.57431223366E+02  0.00000000000E+00 0.  1.
         21   -1    0    0  502  503 -0.00000000000E+00 -0.00000000000E+00 -0.66440038190E+03  0.66440038190E+03  0.00000000000E+00 0.  1.
         -6    2    1    2    0  503  0.17641917603E+02 -0.81299051732E+01 -0.46937493369E+03  0.50037539937E+03  0.17229445523E+03 0.  0.
        -24    2    3    3    0    0  0.17650787534E+02  0.61016366305E+02 -0.24585658818E+03  0.26635884500E+03  0.80417815832E+02 0.  0.
          6    2    1    2  501    0 -0.17641917603E+02  0.81299051732E+01 -0.13759422484E+03  0.22145620589E+03  0.17243360404E+03 0.  0.
         24    2    5    5    0    0 -0.54844024193E+01  0.66191701982E+02 -0.11862825240E+03  0.15900001697E+03  0.82443453635E+02 0.  0.
          5    1    5    5  501    0 -0.12157515184E+02 -0.58061796808E+02 -0.18965972440E+02  0.62456188922E+02  0.47000000000E+01 0. -1.
        -13    1    6    6    0    0  0.10826093130E+02 -0.58624789191E+01  0.63248226065E+01  0.13841110235E+02  0.00000000000E+00 0.  1.
         14    1    6    6    0    0 -0.16310495549E+02  0.72054180901E+02 -0.12495307501E+03  0.14515890673E+03  0.00000000000E+00 0. -1.
         -5    1    3    3    0  503 -0.88699313965E-02 -0.69146271478E+02 -0.22351834551E+03  0.23401655437E+03  0.47000000000E+01 0.  1.
         11    1    4    4    0    0 -0.17085118325E+02  0.45365261464E+02 -0.20433545860E+03  0.21000687574E+03  0.00000000000E+00 0. -1.
        -12    1    4    4    0    0  0.34735905860E+02  0.15651104841E+02 -0.41521129579E+02  0.56351969266E+02  0.00000000000E+00 0.  1.
</event>
<event>
12    1  0.8133495E-002  0.1737980E+03  0.7818608E-02  0.1174408E+00
         21   -1    0    0  501  502  0.00000000000E+00  0.00000000000E+00  0.16387700873E+03  0.16387700873E+03  0.00000000000E+00 0.  1.
         21   -1    0    0  502  503 -0.00000000000E+00 -0.00000000000E+00 -0.44052012960E+03  0.44052012960E+03  0.00000000000E+00 0.  1.
         -6    2    1    2    0  503  0.21423088820E+01 -0.23433234185E+02 -0.36994771623E+03  0.40873836741E+03  0.17219766054E+03 0.  0.
        -24    2    3    3    0    0 -0.35904581344E+02 -0.48222617613E+02 -0.12007235310E+03  0.15472681947E+03  0.76866500335E+02 0.  0.
          6    2    1    2  501    0 -0.21423088820E+01  0.23433234185E+02  0.93304595359E+02  0.19565877092E+03  0.17036109054E+03 0.  0.
         24    2    5    5    0    0 -0.61152688569E+02  0.40338134788E+02  0.35251914689E+02  0.11104078047E+03  0.75634258112E+02 0.  0.
          5    1    5    5  501    0  0.59010379687E+02 -0.16904900603E+02  0.58052680670E+02  0.84617990452E+02  0.47000000000E+01 0. -1.
        -13    1    6    6    0    0 -0.48974964438E+02  0.37394147499E+02  0.58287103010E+02  0.84818958884E+02  0.00000000000E+00 0.  1.
         14    1    6    6    0    0 -0.12177724131E+02  0.29439872889E+01 -0.23035188321E+02  0.26221821583E+02  0.00000000000E+00 0. -1.
         -5    1    3    3    0  503  0.38046890226E+02  0.24789383428E+02 -0.24987536313E+03  0.25401154794E+03  0.47000000000E+01 0.  1.
         11    1    4    4    0    0  0.60328740198E+01 -0.52128849132E+02 -0.47316143272E+02  0.70658544387E+02  0.00000000000E+00 0. -1.
        -12    1    4    4    0    0 -0.41937455364E+02  0.39062315185E+01 -0.72756209829E+02  0.84068275085E+02  0.00000000000E+00 0.  1.
</event>
<event>
12    1  0.8133495E-002  0.1952783E+03  0.7818608E-02  0.1155075E+00
         21   -1    0    0  503  502  0.00000000000E+00  0.00000000000E+00  0.51547532298E+02  0.51547532298E+02  0.00000000000E+00 0.  1.
         21   -1    0    0  501  503 -0.00000000000E+00 -0.00000000000E+00 -0.72407192009E+03  0.72407192009E+03  0.00000000000E+00 0.  1.
          6    2    1    2  501    0 -0.68123139671E+02 -0.62863321036E+02 -0.37726099487E+03  0.42480523224E+03  0.17187515176E+03 0.  0.
         24    2    3    3    0    0 -0.62377304871E+02  0.12885666443E+02 -0.13012566558E+03  0.16621504544E+03  0.81472596168E+02 0.  0.
         -6    2    1    2    0  502  0.68123139671E+02  0.62863321036E+02 -0.29526339292E+03  0.35081422015E+03  0.16521981289E+03 0.  0.
        -24    2    5    5    0    0  0.18658613675E+02  0.70144408185E+02 -0.27610809029E+03  0.29706694877E+03  0.82126199624E+02 0.  0.
          5    1    3    3  501    0 -0.57458348003E+01 -0.75748987479E+02 -0.24713532929E+03  0.25859018679E+03  0.47000000000E+01 0. -1.
        -13    1    4    4    0    0  0.68362291427E+01 -0.11393332686E+02 -0.70351158087E+02  0.71594884614E+02  0.00000000000E+00 0.  1.
         14    1    4    4    0    0 -0.69213534013E+02  0.24278999129E+02 -0.59774507491E+02  0.94620160828E+02  0.00000000000E+00 0. -1.
         -5    1    5    5    0  502  0.49464525996E+02 -0.72810871491E+01 -0.19155302633E+02  0.53747271383E+02  0.47000000000E+01 0.  1.
         11    1    6    6    0    0  0.49638593702E+02  0.49296748811E+02 -0.14934739879E+03  0.16492060197E+03  0.00000000000E+00 0. -1.
        -12    1    6    6    0    0 -0.30979980028E+02  0.20847659375E+02 -0.12676069150E+03  0.13214634680E+03  0.00000000000E+00 0.  1.
</event>
<event>
12    1  0.8133495E-002  0.2732187E+03  0.7818608E-02  0.1099567E+00
         21   -1    0    0  501  502  0.00000000000E+00  0.00000000000E+00  0.85395827921E+03  0.85395827921E+03  0.00000000000E+00 0. -1.
         21   -1    0    0  502  503 -0.00000000000E+00 -0.00000000000E+00 -0.26294196940E+03  0.26294196940E+03  0.00000000000E+00 0.  1.
         -6    2    1    2    0  503 -0.20053572430E+01  0.21155539181E+03 -0.16095955775E+03  0.31710632912E+03  0.17288360096E+03 0.  0.
        -24    2    3    3    0    0  0.99043136565E+01  0.10444330711E+03 -0.11549700653E+02  0.13282330129E+03  0.80635810612E+02 0.  0.
          6    2    1    2  501    0  0.20053572430E+01 -0.21155539181E+03  0.75197586755E+03  0.79979391949E+03  0.17158934410E+03 0.  0.
         24    2    5    5    0    0  0.38239293203E+02 -0.43631018209E+02  0.32659513936E+03  0.34101036782E+03  0.79106109834E+02 0.  0.
          5    1    5    5  501    0 -0.36233935960E+02 -0.16792437360E+03  0.42538072819E+03  0.45878355166E+03  0.47000000000E+01 0. -1.
        -13    1    6    6    0    0  0.24000906626E+02 -0.44616775814E+02  0.84706458317E+02  0.98700984207E+02  0.00000000000E+00 0.  1.
         14    1    6    6    0    0  0.14238386577E+02  0.98575760500E+00  0.24188868105E+03  0.24230938362E+03  0.00000000000E+00 0. -1.
         -5    1    3    3    0  503 -0.11909670900E+02  0.10711208470E+03 -0.14940985709E+03  0.18428302783E+03  0.47000000000E+01 0.  1.
         11    1    4    4    0    0  0.11047383995E+01  0.18092132224E+02  0.31188858320E+02  0.36073405421E+02  0.00000000000E+00 0. -1.
        -12    1    4    4    0    0  0.87995752570E+01  0.86351174884E+02 -0.42738558973E+02  0.96749895874E+02  0.00000000000E+00 0.  1.
</event>
<event>
12    1  0.8133495E-002  0.1839435E+03  0.7818608E-02  0.1164895E+00
         21   -1    0    0  503  502  0.00000000000E+00  0.00000000000E+00  0.37049991688E+02  0.37049991688E+02  0.00000000000E+00 0. -1.
         21   -1    0    0  501  503 -0.00000000000E+00 -0.00000000000E+00 -0.10524931391E+04  0.10524931391E+04  0.00000000000E+00 0. -1.
          6    2    1    2  501    0  0.32202338742E+02 -0.45637642791E+02 -0.71387525603E+03  0.73630325063E+03  0.17147830957E+03 0.  0.
         24    2    3    3    0    0  0.46874428015E+02 -0.88361507616E+02 -0.42490751876E+03  0.44378822193E+03  0.79978862192E+02 0.  0.
         -6    2    1    2    0  502 -0.32202338742E+02  0.45637642791E+02 -0.30156789138E+03  0.35323988016E+03  0.17525819457E+03 0.  0.
        -24    2    5    5    0    0  0.35847129263E+01  0.22766962140E+02 -0.43351310228E+02  0.91511635824E+02  0.77226023210E+02 0.  0.
          5    1    3    3  501    0 -0.14672089274E+02  0.42723864825E+02 -0.28896773727E+03  0.29251502870E+03  0.47000000000E+01 0. -1.
        -11    1    4    4    0    0  0.17087527471E+02 -0.86875611115E+02 -0.22717650011E+03  0.24382066689E+03  0.00000000000E+00 0.  1.
         12    1    4    4    0    0  0.29786900545E+02 -0.14858965010E+01 -0.19773101865E+03  0.19996755504E+03  0.00000000000E+00 0. -1.
         -5    1    5    5    0  502 -0.35787051668E+02  0.22870680651E+02 -0.25821658115E+03  0.26172824433E+03  0.47000000000E+01 0.  1.
         11    1    6    6    0    0  0.24416359765E+02  0.30374249700E+00 -0.53849367090E+02  0.59127026136E+02  0.00000000000E+00 0. -1.
        -12    1    6    6    0    0 -0.20831646839E+02  0.22463219643E+02  0.10498056862E+02  0.32384609688E+02  0.00000000000E+00 0.  1.
</event>
<event>
12    1  0.8133495E-002  0.2118762E+03  0.7818608E-02  0.1140318E+00
         21   -1    0    0  503  502  0.00000000000E+00  0.00000000000E+00  0.21268666437E+04  0.21268666437E+04  0.00000000000E+00 0.  1.
         21   -1    0    0  501  503 -0.00000000000E+00 -0.00000000000E+00 -0.55045451069E+02  0.55045451069E+02  0.00000000000E+00 0.  1.
          6    2    1    2  501    0  0.46876007808E+02  0.11523192070E+03  0.17672536849E+03  0.27500892073E+03  0.17006556077E+03 0.  0.
         24    2    3    3    0    0 -0.32407564765E+02  0.63175838537E+02  0.13351921343E+03  0.17067971866E+03  0.79137533304E+02 0.  0.
         -6    2    1    2    0  502 -0.46876007808E+02 -0.11523192070E+03  0.18950958242E+04  0.19069031741E+04  0.17151028197E+03 0.  0.
        -24    2    5    5    0    0 -0.31658988024E+02  0.78702503803E+01  0.87039515593E+03  0.87471169391E+03  0.80427530315E+02 0.  0.
          5    1    3    3  501    0  0.79283572573E+02  0.52056082161E+02  0.43206155054E+02  0.10432920207E+03  0.47000000000E+01 0. -1.
        -11    1    4    4    0    0 -0.17064772867E+02  0.21487673000E+02 -0.25358154439E+01  0.27556431625E+02  0.00000000000E+00 0.  1.
         12    1    4    4    0    0 -0.15342791898E+02  0.41688165536E+02  0.13605502888E+03  0.14312328704E+03  0.00000000000E+00 0. -1.
         -5    1    5    5    0  502 -0.15217019784E+02 -0.12310217108E+03  0.10247006682E+04  0.10321914802E+04  0.47000000000E+01 0.  1.
         11    1    6    6    0    0  0.18416463705E+02  0.12106396196E+02  0.88490827824E+02  0.91194065450E+02  0.00000000000E+00 0. -1.
        -12    1    6    6    0    0 -0.50075451729E+02 -0.42361458153E+01  0.78190432810E+03  0.78351762846E+03  0.00000000000E+00 0.  1.
</event>
<event>
12    1  0.8133495E-002  0.2002799E+03  0.7818608E-02  0.1149558E+00
         21   -1    0    0  501  502  0.00000000000E+00  0.00000000000E+00  0.18820239076E+03  0.18820239076E+03  0.00000000000E+00 0.  1.
         21   -1    0    0  502  503 -0.00000000000E+00 -0.00000000000E+00 -0.21286507374E+03  0.21286507374E+03  0.00000000000E+00 0.  1.
         -6    2    1    2    0  503  0.45944939863E+02  0.91440752819E+02 -0.13684556842E+02  0.20048694070E+03  0.17185865564E+03 0.  0.
        -24    2    3    3    0    0  0.21758444628E+02 -0.12748405233E+02  0.23160649972E+02  0.87261384955E+02  0.80263203577E+02 0.  0.
          6    2    1    2  501    0 -0.45944939863E+02 -0.91440752819E+02 -0.10978126137E+02  0.20058052381E+03  0.17216178003E+03 0.  0.
         24    2    5    5    0    0 -0.37842283583E+02 -0.77608489160E+02  0.55880417621E+02  0.13166652356E+03  0.82209101299E+02 0.  0.
          5    1    5    5  501    0 -0.81026562798E+01 -0.13832263660E+02 -0.66858543758E+02  0.68914000248E+02  0.47000000000E+01 0. -1.
        -13    1    6    6    0    0 -0.54588881996E+02 -0.33446995621E+02  0.81825521898E+01  0.64541472821E+02  0.00000000000E+00 0.  1.
         14    1    6    6    0    0  0.16746598412E+02 -0.44161493539E+02  0.47697865431E+02  0.67125050739E+02  0.00000000000E+00 0. -1.
         -5    1    3    3    0  503  0.24186495235E+02  0.10418915805E+03 -0.36845206814E+02  0.11322555574E+03  0.47000000000E+01 0.  1.
         11    1    4    4    0    0 -0.20545788623E+02 -0.20107959262E+01 -0.17910012740E+02  0.27330226613E+02  0.00000000000E+00 0. -1.
        -12    1    4    4    0    0  0.42304233251E+02 -0.10737609307E+02  0.41070662712E+02  0.59931158342E+02  0.00000000000E+00 0.  1.
</event>
<event>
12    1  0.8133495E-002  0.1977400E+03  0.7818608E-02  0.1151833E+00
         21   -1    0    0  501  502  0.00000000000E+00  0.00000000000E+00  0.10363452304E+04  0.10363452304E+04  0.00000000000E+00 0.  1.
         21   -1    0    0  502  503 -0.00000000000E+00 -0.00000000000E+00 -0.48094609180E+02  0.48094609180E+02  0.00000000000E+00 0. -1.
         -6    2    1    2    0  503  0.86355344857E+02  0.41506021862E+02  0.24133855375E+03  0.31200226994E+03  0.17297723400E+03 0.  0.
        -24    2    3    3    0    0  0.76982830616E+02  0.55709889331E+02  0.74135778381E+02  0.14387002447E+03  0.78565401584E+02 0.  0.
          6    2    1    2  501    0 -0.86355344857E+02 -0.41506021862E+02  0.74691206745E+03  0.77243756962E+03  0.17205280302E+03 0.  0.
         24    2    5    5    0    0 -0.46126004167E+00  0.28624915481E+02  0.35908678375E+03  0.36904361472E+03  0.80188981483E+02 0.  0.
          5    1    5    5  501    0 -0.85894084816E+02 -0.70130937342E+02  0.38782528370E+03  0.40339395490E+03  0.47000000000E+01 0. -1.
        -13    1    6    6    0    0 -0.30583678374E+02  0.13468181644E+02  0.29252417785E+03  0.29442681251E+03  0.00000000000E+00 0.  1.
         14    1    6    6    0    0  0.30122418333E+02  0.15156733837E+02  0.66562605905E+02  0.74616802207E+02  0.00000000000E+00 0. -1.
         -5    1    3    3    0  503  0.93725142411E+01 -0.14203867470E+02  0.16720277537E+03  0.16813224547E+03  0.47000000000E+01 0.  1.
         11    1    4    4    0    0  0.78827335996E+02  0.59906095039E+02  0.86005115695E+02  0.13114636498E+03  0.00000000000E+00 0. -1.
        -12    1    4    4    0    0 -0.18445053800E+01 -0.41962057075E+01 -0.11869337314E+02  0.12723659486E+02  0.00000000000E+00 0.  1.
</event>
<event>
12    1  0.8133495E-002  0.2049712E+03  0.7818608E-02  0.1145931E+00
         21   -1    0    0  503  502  0.00000000000E+00  0.00000000000E+00  0.22359818760E+03  0.22359818760E+03  0.00000000000E+00 0.  1.
         21   -1    0    0  501  503 -0.00000000000E+00 -0.00000000000E+00 -0.19975679511E+03  0.19975679511E+03  0.00000000000E+00 0. -1.
          6    2    1    2  501    0 -0.47540528290E+02 -0.99028023791E+02 -0.42630999287E+02  0.20935760516E+03  0.17305072497E+03 0.  0.
         24    2    3    3    0    0  0.14167691972E+02  0.95515760178E+01 -0.29577547504E+02  0.83699670489E+02  0.76412351249E+02 0.  0.
         -6    2    1    2    0  502  0.47540528290E+02  0.99028023791E+02  0.66472391778E+02  0.21399737756E+03  0.17120060574E+03 0.  0.
        -24    2    5    5    0    0  0.94630571464E+02  0.89857990751E+02  0.60474689674E+02  0.16542141537E+03  0.81716907761E+02 0.  0.
          5    1    3    3  501    0 -0.61708220262E+02 -0.10857959981E+03 -0.13053451782E+02  0.12565793467E+03  0.47000000000E+01 0. -1.
        -11    1    4    4    0    0  0.11399054593E+02  0.75751284657E+01  0.25274455316E+02  0.28742287807E+02  0.00000000000E+00 0.  1.
         12    1    4    4    0    0  0.27686373784E+01  0.19764475521E+01 -0.54852002820E+02  0.54957382682E+02  0.00000000000E+00 0. -1.
         -5    1    5    5    0  502 -0.47090043174E+02  0.91700330398E+01  0.59977021038E+01  0.48575962189E+02  0.47000000000E+01 0.  1.
         13    1    6    6    0    0  0.25496157255E+02  0.48889093941E+02 -0.12871363481E+02  0.56620398612E+02  0.00000000000E+00 0. -1.
        -14    1    6    6    0    0  0.69134414209E+02  0.40968896811E+02  0.73346053155E+02  0.10880101676E+03  0.00000000000E+00 0.  1.
</event>
<event>
12    1  0.8133495E-002  0.3049553E+03  0.7818608E-02  0.1083346E+00
         21   -1    0    0  501  502  0.00000000000E+00  0.00000000000E+00  0.81560351589E+03  0.81560351589E+03  0.00000000000E+00 0.  1.
         21   -1    0    0  502  503 -0.00000000000E+00 -0.00000000000E+00 -0.11627996617E+03  0.11627996617E+03  0.00000000000E+00 0.  1.
         -6    2    1    2    0  503 -0.12428623404E+03 -0.21412442411E+03  0.26642949898E+03  0.40494741751E+03  0.17804885860E+03 0.  0.
        -24    2    3    3    0    0 -0.25018491243E+02 -0.15157673916E+03  0.95953491929E+02  0.19794389910E+03  0.79832836727E+02 0.  0.
          6    2    1    2  501    0  0.12428623404E+03  0.21412442411E+03  0.43289405074E+03  0.52693606454E+03  0.17019994118E+03 0.  0.
         24    2    5    5    0    0  0.94396308752E+02  0.21782627967E+03  0.30195177610E+03  0.39249246798E+03  0.80724910102E+02 0.  0.
          5    1    5    5  501    0  0.29889925293E+02 -0.37018555616E+01  0.13094227464E+03  0.13444359656E+03  0.47000000000E+01 0. -1.
        -13    1    6    6    0    0  0.58813728132E+02  0.19377148593E+03  0.27596922102E+03  0.34229439717E+03  0.00000000000E+00 0.  1.
         14    1    6    6    0    0  0.35582580620E+02  0.24054793736E+02  0.25982555071E+02  0.50198070812E+02  0.00000000000E+00 0. -1.
         -5    1    3    3    0  503 -0.99267742802E+02 -0.62547684952E+02  0.17047600705E+03  0.20700351841E+03  0.47000000000E+01 0.  1.
         13    1    4    4    0    0  0.67486890868E+01 -0.94002531360E+02  0.92565571744E+02  0.13209998402E+03  0.00000000000E+00 0. -1.
        -14    1    4    4    0    0 -0.31767180329E+02 -0.57574207797E+02  0.33879201855E+01  0.65843915077E+02  0.00000000000E+00 0.  1.
</event>
<event>
12    1  0.8133495E-002  0.1955185E+03  0.7818608E-02  0.1154774E+00
         21   -1    0    0  501  502  0.00000000000E+00  0.00000000000E+00  0.35295422901E+03  0.35295422901E+03  0.00000000000E+00 0.  1.
         21   -1    0    0  502  503 -0.00000000000E+00 -0.00000000000E+00 -0.10762763503E+03  0.10762763503E+03  0.00000000000E+00 0.  1.
         -6    2    1    2    0  503  0.90936123066E+02  0.29945300335E+02  0.90628991099E+02  0.21550195348E+03  0.17047398170E+03 0.  0.
        -24    2    3    3    0    0 -0.53120070942E+01 -0.26293852926E+02  0.26276349326E+02  0.86700177787E+02  0.78146594125E+02 0.  0.
          6    2    1    2  501    0 -0.90936123066E+02 -0.29945300335E+02  0.15469760288E+03  0.24507991056E+03  0.16421545218E+03 0.  0.
         24    2    5    5    0    0 -0.26948104079E+02 -0.64210380434E+01  0.10661682303E+02  0.85655025724E+02  0.80347258318E+02 0.  0.
          5    1    5    5  501    0 -0.63988018987E+02 -0.23524262291E+02  0.14403592057E+03  0.15942488484E+03  0.47000000000E+01 0. -1.
        -13    1    6    6    0    0  0.17891171237E+02 -0.20368566660E+02  0.24666653848E+02  0.36652644217E+02  0.00000000000E+00 0.  1.
         14    1    6    6    0    0 -0.44839275316E+02  0.13947528616E+02 -0.14004971545E+02  0.49002381507E+02  0.00000000000E+00 0. -1.
         -5    1    3    3    0  503  0.96248130160E+02  0.56239153261E+02  0.64352641773E+02  0.12880177569E+03  0.47000000000E+01 0.  1.
         11    1    4    4    0    0  0.52841041068E+01 -0.43620972686E+02 -0.10056401728E+02  0.45075960666E+02  0.00000000000E+00 0. -1.
        -12    1    4    4    0    0 -0.10596111201E+02  0.17327119759E+02  0.36332751054E+02  0.41624217121E+02  0.00000000000E+00 0.  1.
</event>
<event>
12    1  0.8133495E-002  0.2530662E+03  0.7818608E-02  0.1112193E+00
         21   -1    0    0  501  502  0.00000000000E+00  0.00000000000E+00  0.66864225370E+02  0.66864225370E+02  0.00000000000E+00 0. -1.
         21   -1    0    0  502  503 -0.00000000000E+00 -0.00000000000E+00 -0.17555379982E+04  0.17555379982E+04  0.00000000000E+00 0. -1.
         -6    2    1    2    0  503 -0.14586730711E+03  0.11487694341E+03 -0.14706294401E+04  0.14922444391E+04  0.17195503040E+03 0.  0.
        -24    2    3    3    0    0 -0.13498118830E+03  0.10425979603E+03 -0.14630426665E+04  0.14746126345E+04  0.69989652172E+02 0.  0.
          6    2    1    2  501    0  0.14586730711E+03 -0.11487694341E+03 -0.21804433269E+03  0.33015778445E+03  0.16427674274E+03 0.  0.
         24    2    5    5    0    0  0.12066812360E+03 -0.93817125564E+02 -0.23443366896E+03  0.29315487753E+03  0.87282231749E+02 0.  0.
          5    1    5    5  501    0  0.25199183507E+02 -0.21059817842E+02  0.16389336266E+02  0.37002906916E+02  0.47000000000E+01 0. -1.
        -11    1    6    6    0    0 -0.26316236587E+00  0.33859287383E+01  0.60651779932E+01  0.69512698078E+01  0.00000000000E+00 0.  1.
         12    1    6    6    0    0  0.12093128596E+03 -0.97203054302E+02 -0.24049884695E+03  0.28620360773E+03  0.00000000000E+00 0. -1.
         -5    1    3    3    0  503 -0.10886118803E+02  0.10617147379E+02 -0.75867736004E+01  0.17631804636E+02  0.47000000000E+01 0.  1.
         11    1    4    4    0    0 -0.11309379909E+03  0.80384938927E+02 -0.89936076262E+03  0.91000094898E+03  0.00000000000E+00 0. -1.
        -12    1    4    4    0    0 -0.21887389211E+02  0.23874857100E+02 -0.56368190392E+03  0.56461168551E+03  0.00000000000E+00 0.  1.
</event>
<event>
12    1  0.8133495E-002  0.2186260E+03  0.7818608E-02  0.1134987E+00
         21   -1    0    0  501  502  0.00000000000E+00  0.00000000000E+00  0.40877830612E+02  0.40877830612E+02  0.00000000000E+00 0. -1.
         21   -1    0    0  502  503 -0.00000000000E+00 -0.00000000000E+00 -0.12465305883E+04  0.12465305883E+04  0.00000000000E+00 0.  1.
         -6    2    1    2    0  503 -0.99436204759E+02 -0.91292413491E+02 -0.76477372129E+03  0.79529902546E+03  0.17146379077E+03 0.  0.
        -24    2    3    3    0    0 -0.75565055701E+02 -0.46580158913E+02 -0.71141354518E+03  0.72155340959E+03  0.81549382367E+02 0.  0.
          6    2    1    2  501    0  0.99436204759E+02  0.91292413491E+02 -0.44087903645E+03  0.49210939350E+03  0.17197519244E+03 0.  0.
         24    2    5    5    0    0  0.11416746603E+03  0.57645911096E+02 -0.42667957900E+03  0.45245070248E+03  0.79365695806E+02 0.  0.
          5    1    5    5  501    0 -0.14731261270E+02  0.33646502394E+02 -0.14199457448E+02  0.39658691025E+02  0.47000000000E+01 0. -1.
        -13    1    6    6    0    0  0.10974796165E+03  0.30606161807E+02 -0.26483752647E+03  0.28830585782E+03  0.00000000000E+00 0.  1.
         14    1    6    6    0    0  0.44195043820E+01  0.27039749290E+02 -0.16184205253E+03  0.16414484466E+03  0.00000000000E+00 0. -1.
         -5    1    3    3    0  503 -0.23871149058E+02 -0.44712254578E+02 -0.53360176105E+02  0.73745615874E+02  0.47000000000E+01 0.  1.
         11    1    4    4    0    0 -0.65080183748E+02 -0.61339350862E+02 -0.41207222195E+03  0.42166510691E+03  0.00000000000E+00 0. -1.
        -12    1    4    4    0    0 -0.10484871953E+02  0.14759191948E+02 -0.29934132324E+03  0.29988830268E+03  0.00000000000E+00 0.  1.
</event>
<event>
12    1  0.8133495E-002  0.2039799E+03  0.7818608E-02  0.1147954E+00
         21   -1    0    0  501  502  0.00000000000E+00  0.00000000000E+00  0.70280698110E+02  0.70280698110E+02  0.00000000000E+00 0.  1.
         21   -1    0    0  502  503 -0.00000000000E+00 -0.00000000000E+00 -0.12247340194E+04  0.12247340194E+04  0.00000000000E+00 0.  1.
         -6    2    1    2    0  503  0.69488322588E+02 -0.83972491825E+02 -0.10453459393E+04  0.10636875975E+04  0.16371672450E+03 0.  0.
        -24    2    3    3    0    0  0.10621521156E+03 -0.84860304354E+02 -0.77048579365E+03  0.78634333082E+03  0.78768859939E+02 0.  0.
          6    2    1    2  501    0 -0.69488322588E+02  0.83972491825E+02 -0.10910738199E+03  0.23132712002E+03  0.17241754346E+03 0.  0.
         24    2    5    5    0    0 -0.11390025529E+03  0.69993840528E+02 -0.79645785322E+02  0.17602885480E+03  0.82281837218E+02 0.  0.
          5    1    5    5  501    0  0.44411932700E+02  0.13978651297E+02 -0.29461596668E+02  0.55298265221E+02  0.47000000000E+01 0. -1.
        -11    1    6    6    0    0 -0.62212712278E+02  0.22080341258E+02  0.46175406103E+01  0.66176164291E+02  0.00000000000E+00 0.  1.
         12    1    6    6    0    0 -0.51687543010E+02  0.47913499270E+02 -0.84263325932E+02  0.10985269051E+03  0.00000000000E+00 0. -1.
         -5    1    3    3    0  503 -0.36726888968E+02  0.88781252900E+00 -0.27486014567E+03  0.27734426668E+03  0.47000000000E+01 0.  1.
         11    1    4    4    0    0  0.26217535722E+02 -0.56405602800E+02 -0.19644962002E+03  0.20606165197E+03  0.00000000000E+00 0. -1.
        -12    1    4    4    0    0  0.79997675834E+02 -0.28454701554E+02 -0.57403617363E+03  0.58028167885E+03  0.00000000000E+00 0.  1.
</event>
<event>
12    1  0.8133495E-002  0.1905930E+03  0.7818608E-02  0.1160018E+00
         21   -1    0    0  503  502  0.00000000000E+00  0.00000000000E+00  0.21907228063E+03  0.21907228063E+03  0.00000000000E+00 0. -1.
         21   -1    0    0  501  503 -0.00000000000E+00 -0.00000000000E+00 -0.17899528622E+03  0.17899528622E+03  0.00000000000E+00 0.  1.
          6    2    1    2  501    0 -0.61608726428E+02 -0.24992329442E+02 -0.47643998660E+02  0.19645768905E+03  0.17862088701E+03 0.  0.
         24    2    3    3    0    0 -0.11780232454E+03 -0.36127126996E+02 -0.26017777103E+02  0.13504525021E+03  0.48762053979E+02 0.  0.
         -6    2    1    2    0  502  0.61608726428E+02  0.24992329442E+02  0.87720993066E+02  0.20160987781E+03  0.16891216209E+03 0.  0.
        -24    2    5    5    0    0  0.30376012500E+02  0.69264921406E+02  0.15943969955E+02  0.11155669427E+03  0.80438513074E+02 0.  0.
          5    1    3    3  501    0  0.56193598108E+02  0.11134797554E+02 -0.21626221557E+02  0.61412438836E+02  0.47000000000E+01 0. -1.
        -13    1    4    4    0    0 -0.71384403937E+02 -0.17216719771E+02  0.88866907202E+01  0.73967032096E+02  0.00000000000E+00 0.  1.
         14    1    4    4    0    0 -0.46417920599E+02 -0.18910407225E+02 -0.34904467823E+02  0.61078218116E+02  0.00000000000E+00 0. -1.
         -5    1    5    5    0  502  0.31232713928E+02 -0.44272591964E+02  0.71777023111E+02  0.90053183537E+02  0.47000000000E+01 0.  1.
         11    1    6    6    0    0  0.10024706221E+02  0.63181482589E+02  0.43058285625E+02  0.77112971918E+02  0.00000000000E+00 0. -1.
        -12    1    6    6    0    0  0.20351306280E+02  0.60834388167E+01 -0.27114315670E+02  0.34443722351E+02  0.00000000000E+00 0.  1.
</event>
<event>
12    1  0.8133495E-002  0.1861363E+03  0.7818608E-02  0.1162035E+00
         21   -1    0    0  501  502  0.00000000000E+00  0.00000000000E+00  0.45697042503E+03  0.45697042503E+03  0.00000000000E+00 0.  1.
         21   -1    0    0  502  503 -0.00000000000E+00 -0.00000000000E+00 -0.28149486440E+03  0.28149486440E+03  0.00000000000E+00 0.  1.
         -6    2    1    2    0  503 -0.36705655265E+02 -0.61997500468E+02 -0.22794506718E+03  0.29417378403E+03  0.17143006261E+03 0.  0.
        -24    2    3    3    0    0 -0.73220804690E+02 -0.82682123447E+02 -0.19830580249E+03  0.24258128674E+03  0.85573766997E+02 0.  0.
          6    2    1    2  501    0  0.36705655265E+02  0.61997500468E+02  0.40342062781E+03  0.44429150539E+03  0.17162675674E+03 0.  0.
         24    2    5    5    0    0 -0.33525323318E+02  0.40378983028E+02  0.31129960352E+03  0.32635879676E+03  0.82753921349E+02 0.  0.
          5    1    5    5  501    0  0.70230978583E+02  0.21618517440E+02  0.92121024287E+02  0.11793270863E+03  0.47000000000E+01 0. -1.
        -13    1    6    6    0    0 -0.12395045248E+02  0.49947338003E+02  0.88653332036E+02  0.10250749729E+03  0.00000000000E+00 0.  1.
         14    1    6    6    0    0 -0.21130278070E+02 -0.95683549750E+01  0.22264627149E+03  0.22385129947E+03  0.00000000000E+00 0. -1.
         -5    1    3    3    0  503  0.36515149426E+02  0.20684622979E+02 -0.29639264684E+02  0.51592497288E+02  0.47000000000E+01 0.  1.
         11    1    4    4    0    0 -0.63676287124E+02 -0.21370930259E+02 -0.56412637897E+02  0.87714148896E+02  0.00000000000E+00 0. -1.
        -12    1    4    4    0    0 -0.95445175662E+01 -0.61311193187E+02 -0.14189316460E+03  0.15486713785E+03  0.00000000000E+00 0.  1.
</event>
<event>
12    1  0.8133495E-002  0.2665358E+03  0.7818608E-02  0.1103391E+00
         21   -1    0    0  503  502  0.00000000000E+00  0.00000000000E+00  0.43128739338E+03  0.43128739338E+03  0.00000000000E+00 0.  1.
         21   -1    0    0  501  503 -0.00000000000E+00 -0.00000000000E+00 -0.26884116542E+03  0.26884116542E+03  0.00000000000E+00 0. -1.
          6    2    1    2  501    0  0.13320879893E+03 -0.15259192904E+03 -0.13705758495E+03  0.29971007889E+03  0.17324107157E+03 0.  0.
         24    2    3    3    0    0  0.12551282902E+03 -0.13177174412E+03 -0.16907963198E+03  0.26046457534E+03  0.78336519311E+02 0.  0.
         -6    2    1    2    0  502 -0.13320879893E+03  0.15259192904E+03  0.29950381291E+03  0.40041847992E+03  0.17205680513E+03 0.  0.
        -24    2    5    5    0    0 -0.36543950106E+02  0.12436934985E+03  0.11735483797E+03  0.19223359563E+03  0.79864897299E+02 0.  0.
          5    1    3    3  501    0  0.76959699153E+01 -0.20820184913E+02  0.32022047035E+02  0.39245503552E+02  0.47000000000E+01 0. -1.
        -13    1    4    4    0    0  0.24608379255E+02  0.78756780062E+01 -0.21961506014E+02  0.33910269536E+02  0.00000000000E+00 0.  1.
         14    1    4    4    0    0  0.10090444976E+03 -0.13964742213E+03 -0.14711812597E+03  0.22655430580E+03  0.00000000000E+00 0. -1.
         -5    1    5    5    0  502 -0.96664848825E+02  0.28222579181E+02  0.18214897494E+03  0.20818488429E+03  0.47000000000E+01 0.  1.
         11    1    6    6    0    0 -0.29010988605E+02  0.13895161205E+01  0.22573848200E+02  0.36785144249E+02  0.00000000000E+00 0. -1.
        -12    1    6    6    0    0 -0.75329615009E+01  0.12297983373E+03  0.94780989766E+02  0.15544845138E+03  0.00000000000E+00 0.  1.
</event>
<event>
12    1  0.8133495E-002  0.1822079E+03  0.7818608E-02  0.1166575E+00
         21   -1    0    0  501  502  0.00000000000E+00  0.00000000000E+00  0.66919449307E+02  0.66919449307E+02  0.00000000000E+00 0. -1.
         21   -1    0    0  502  503 -0.00000000000E+00 -0.00000000000E+00 -0.91298424129E+03  0.91298424129E+03  0.00000000000E+00 0. -1.
         -6    2    1    2    0  503  0.34476502011E+02  0.43659361748E+02 -0.90322490448E+02  0.20336630873E+03  0.17350773524E+03 0.  0.
        -24    2    3    3    0    0  0.35500319344E+02  0.76026176883E+02 -0.94190602485E+01  0.11609595900E+03  0.79682499680E+02 0.  0.
          6    2    1    2  501    0 -0.34476502011E+02 -0.43659361748E+02 -0.75574230154E+03  0.77653738187E+03  0.16961459268E+03 0.  0.
         24    2    5    5    0    0  0.11627071561E+02  0.28995062772E+02 -0.32251498734E+03  0.33482231459E+03  0.84345496786E+02 0.  0.
          5    1    5    5  501    0 -0.46103573571E+02 -0.72654424521E+02 -0.43322731419E+03  0.44171506728E+03  0.47000000000E+01 0. -1.
        -11    1    6    6    0    0 -0.27492197474E+02  0.23147764737E+02 -0.24675369070E+03  0.24935722129E+03  0.00000000000E+00 0.  1.
         12    1    6    6    0    0  0.39119269035E+02  0.58472980352E+01 -0.75761296646E+02  0.85465093305E+02  0.00000000000E+00 0. -1.
         -5    1    3    3    0  503 -0.10238173335E+01 -0.32366815134E+02 -0.80903430199E+02  0.87270349729E+02  0.47000000000E+01 0.  1.
         11    1    4    4    0    0  0.16301515756E+02  0.64822044937E+02  0.28083471990E+02  0.72500471204E+02  0.00000000000E+00 0. -1.
        -12    1    4    4    0    0  0.19198803589E+02  0.11204131946E+02 -0.37502532239E+02  0.43595487796E+02  0.00000000000E+00 0.  1.
</event>
<event>
12    1  0.8133495E-002  0.2016200E+03  0.7818608E-02  0.1148642E+00
         21   -1    0    0  501  502  0.00000000000E+00  0.00000000000E+00  0.50161660429E+03  0.50161660429E+03  0.00000000000E+00 0. -1.
         21   -1    0    0  502  503 -0.00000000000E+00 -0.00000000000E+00 -0.48276372134E+03  0.48276372134E+03  0.00000000000E+00 0.  1.
         -6    2    1    2    0  503 -0.70681852957E+02 -0.73329480071E+02 -0.43984197798E+03  0.48332983166E+03  0.17255035088E+03 0.  0.
        -24    2    3    3    0    0  0.11407225030E+02 -0.34918111352E+02 -0.32649278450E+03  0.33812590735E+03  0.79888620007E+02 0.  0.
          6    2    1    2  501    0  0.70681852957E+02  0.73329480071E+02  0.45869486092E+03  0.50105049398E+03  0.17400426745E+03 0.  0.
         24    2    5    5    0    0  0.27725623372E+02 -0.19056303803E+02  0.12333743467E+03  0.15052650897E+03  0.79462281653E+02 0.  0.
          5    1    5    5  501    0  0.42956229585E+02  0.92385783873E+02  0.33535742625E+03  0.35052398501E+03  0.47000000000E+01 0. -1.
        -11    1    6    6    0    0 -0.26551941873E+02  0.16347253870E+01  0.53020507431E+02  0.59319913626E+02  0.00000000000E+00 0.  1.
         12    1    6    6    0    0  0.54277565244E+02 -0.20691029190E+02  0.70316927240E+02  0.91206595344E+02  0.00000000000E+00 0. -1.
         -5    1    3    3    0  503 -0.82089077987E+02 -0.38411368719E+02 -0.11334919348E+03  0.14520392431E+03  0.47000000000E+01 0.  1.
         13    1    4    4    0    0  0.39347300680E+02 -0.40365506411E+02 -0.17107896342E+03  0.18012661076E+03  0.00000000000E+00 0. -1.
        -14    1    4    4    0    0 -0.27940075650E+02  0.54473950596E+01 -0.15541382108E+03  0.15799929659E+03  0.00000000000E+00 0.  1.
</event>
<event>
12    1  0.8133495E-002  0.1797900E+03  0.7818608E-02  0.1168701E+00
         21   -1    0    0  501  502  0.00000000000E+00  0.00000000000E+00  0.10137429063E+03  0.10137429063E+03  0.00000000000E+00 0. -1.
         21   -1    0    0  502  503 -0.00000000000E+00 -0.00000000000E+00 -0.38607169760E+03  0.38607169760E+03  0.00000000000E+00 0. -1.
         -6    2    1    2    0  503  0.79658845030E+00 -0.45591080963E+02 -0.24868572197E+03  0.30686972233E+03  0.17391163548E+03 0.  0.
        -24    2    3    3    0    0  0.61718014004E+02  0.14704656073E+01 -0.15209891531E+03  0.18326830455E+03  0.81497950238E+02 0.  0.
          6    2    1    2  501    0 -0.79658845030E+00  0.45591080963E+02 -0.36011685001E+02  0.18057626590E+03  0.17097299533E+03 0.  0.
         24    2    5    5    0    0 -0.47392783462E+02  0.74927104655E+02 -0.11045872995E+02  0.11993643209E+03  0.80016182713E+02 0.  0.
          5    1    5    5  501    0  0.46596195011E+02 -0.29336023692E+02 -0.24965812006E+02  0.60639833812E+02  0.47000000000E+01 0. -1.
        -13    1    6    6    0    0 -0.86971438471E+01  0.74192414506E+02  0.10826507853E+02  0.75480911187E+02  0.00000000000E+00 0.  1.
         14    1    6    6    0    0 -0.38695639615E+02  0.73469014894E+00 -0.21872380848E+02  0.44455520903E+02  0.00000000000E+00 0. -1.
         -5    1    3    3    0  503 -0.60921425554E+02 -0.47061546570E+02 -0.96586806661E+02  0.12360141778E+03  0.47000000000E+01 0.  1.
         13    1    4    4    0    0  0.21280112491E+02  0.40666223448E+02 -0.66208774846E+02  0.80561695512E+02  0.00000000000E+00 0. -1.
        -14    1    4    4    0    0  0.40437901513E+02 -0.39195757841E+02 -0.85890140459E+02  0.10270660904E+03  0.00000000000E+00 0.  1.
</event>
<event>
12    1  0.8133495E-002  0.2264925E+03  0.7818608E-02  0.1129724E+00
         21   -1    0    0  501  502  0.00000000000E+00  0.00000000000E+00  0.16408795764E+03  0.16408795764E+03  0.00000000000E+00 0. -1.
         21   -1    0    0  502  503 -0.00000000000E+00 -0.00000000000E+00 -0.31539995898E+03  0.31539995898E+03  0.00000000000E+00 0. -1.
         -6    2    1    2    0  503 -0.13861232245E+03  0.31561933396E+02 -0.39817693199E+02  0.22996582580E+03  0.17632158339E+03 0.  0.
        -24    2    3    3    0    0 -0.15652301031E+03  0.65196750502E+02 -0.27482863005E+02  0.18963802276E+03  0.80356722711E+02 0.  0.
          6    2    1    2  501    0  0.13861232245E+03 -0.31561933396E+02 -0.11149430814E+03  0.24952209083E+03  0.17210683161E+03 0.  0.
         24    2    5    5    0    0  0.39142867579E+02 -0.55569207664E+02 -0.12776875500E+02  0.10726266872E+03  0.81987380925E+02 0.  0.
          5    1    5    5  501    0  0.99469454872E+02  0.24007274268E+02 -0.98717432641E+02  0.14225942210E+03  0.47000000000E+01 0. -1.
        -11    1    6    6    0    0 -0.18663971214E+02 -0.57007071446E+01 -0.23081497267E+02  0.30225773762E+02  0.00000000000E+00 0.  1.
         12    1    6    6    0    0  0.57806838792E+02 -0.49868500520E+02  0.10304621767E+02  0.77036894959E+02  0.00000000000E+00 0. -1.
         -5    1    3    3    0  503  0.17910687864E+02 -0.33634817106E+02 -0.12334830194E+02  0.40327803033E+02  0.47000000000E+01 0.  1.
         11    1    4    4    0    0 -0.69861522684E+02  0.42108595541E+02  0.25511081268E+02  0.85466844084E+02  0.00000000000E+00 0. -1.
        -12    1    4    4    0    0 -0.86661487631E+02  0.23088154961E+02 -0.52993944274E+02  0.10417117868E+03  0.00000000000E+00 0.  1.
</event>
<event>
12    1  0.8133495E-002  0.1824008E+03  0.7818608E-02  0.1165587E+00
         21   -1    0    0  503  502  0.00000000000E+00  0.00000000000E+00  0.36572258664E+03  0.36572258664E+03  0.00000000000E+00 0.  1.
         21   -1    0    0  501  503 -0.00000000000E+00 -0.00000000000E+00 -0.10178337566E+03  0.10178337566E+03  0.00000000000E+00 0.  1.
          6    2    1    2  501    0 -0.55114584012E+02 -0.25092924846E+02  0.55020732574E+02  0.19016683662E+03  0.17166500077E+03 0.  0.
         24    2    3    3    0    0 -0.10760058955E+02  0.28890635596E+02 -0.20793525304E+02  0.86961020952E+02  0.78609164711E+02 0.  0.
         -6    2    1    2    0  502  0.55114584012E+02  0.25092924846E+02  0.20891847841E+03  0.27733912567E+03  0.17205460691E+03 0.  0.
        -24    2    5    5    0    0  0.30125091514E+02  0.74877848506E+02  0.87465382169E+02  0.14363812364E+03  0.80420794250E+02 0.  0.
          5    1    3    3  501    0 -0.44354525056E+02 -0.53983560442E+02  0.75814257877E+02  0.10320581567E+03  0.47000000000E+01 0. -1.
        -13    1    4    4    0    0 -0.42163265195E+02  0.20287204388E+02  0.26092297428E+01  0.46862774925E+02  0.00000000000E+00 0.  1.
         14    1    4    4    0    0  0.31403206240E+02  0.86034312077E+01 -0.23402755046E+02  0.40098246027E+02  0.00000000000E+00 0. -1.
         -5    1    5    5    0  502  0.24989492498E+02 -0.49784923660E+02  0.12145309624E+03  0.13370100203E+03  0.47000000000E+01 0.  1.
         13    1    6    6    0    0 -0.26566612247E+02  0.18370897669E+02  0.36532828316E+02  0.48763944797E+02  0.00000000000E+00 0. -1.
        -14    1    6    6    0    0  0.56691703760E+02  0.56506950838E+02  0.50932553853E+02  0.94874178838E+02  0.00000000000E+00 0.  1.
</event>
<event>
12    1  0.8133495E-002  0.3196935E+03  0.7818608E-02  0.1076080E+00
         21   -1    0    0  501  502  0.00000000000E+00  0.00000000000E+00  0.11366716553E+03  0.11366716553E+03  0.00000000000E+00 0.  1.
         21   -1    0    0  502  503 -0.00000000000E+00 -0.00000000000E+00 -0.12411119860E+04  0.12411119860E+04  0.00000000000E+00 0.  1.
         -6    2    1    2    0  503 -0.25239488626E+03 -0.85028983504E+02 -0.20293726212E+03  0.37655721266E+03  0.17227505741E+03 0.  0.
        -24    2    3    3    0    0 -0.15253690583E+03 -0.65643839931E+02 -0.20419250806E+03  0.27471878333E+03  0.78735050688E+02 0.  0.
          6    2    1    2  501    0  0.25239488626E+03  0.85028983504E+02 -0.92450755837E+03  0.97822193888E+03  0.17683560043E+03 0.  0.
         24    2    5    5    0    0  0.17344777387E+03  0.12251076669E+03 -0.74135339298E+03  0.77523162156E+03  0.79285531899E+02 0.  0.
          5    1    5    5  501    0  0.78947112393E+02 -0.37481783189E+02 -0.18315416539E+03  0.20299031732E+03  0.47000000000E+01 0. -1.
        -13    1    6    6    0    0  0.78133645475E+02  0.20706077925E+02 -0.36570468057E+03  0.37453106895E+03  0.00000000000E+00 0.  1.
         14    1    6    6    0    0  0.95314128392E+02  0.10180468877E+03 -0.37564871241E+03  0.40070055261E+03  0.00000000000E+00 0. -1.
         -5    1    3    3    0  503 -0.99857980427E+02 -0.19385143573E+02  0.12552459379E+01  0.10183842933E+03  0.47000000000E+01 0.  1.
         11    1    4    4    0    0 -0.10548848650E+03 -0.31315779261E+01 -0.11598509635E+03  0.15681253183E+03  0.00000000000E+00 0. -1.
        -12    1    4    4    0    0 -0.47048419334E+02 -0.62512262005E+02 -0.88207411707E+02  0.11790625150E+03  0.00000000000E+00 0.  1.
</event>
<event>
12    1  0.8133495E-002  0.1876384E+03  0.7818608E-02  0.1161137E+00
         21   -1    0    0  501  502  0.00000000000E+00  0.00000000000E+00  0.13306213228E+03  0.13306213228E+03  0.00000000000E+00 0.  1.
         21   -1    0    0  502  503 -0.00000000000E+00 -0.00000000000E+00 -0.28627468731E+03  0.28627468731E+03  0.00000000000E+00 0.  1.
         -6    2    1    2    0  503 -0.73451474097E+02  0.58427503347E+01 -0.14352659285E+02  0.18590541331E+03  0.17007518070E+03 0.  0.
        -24    2    3    3    0    0  0.15624679873E+02 -0.24551891381E+02  0.19308734789E+02  0.85837561817E+02  0.78411311608E+02 0.  0.
          6    2    1    2  501    0  0.73451474097E+02 -0.58427503347E+01 -0.13885989574E+03  0.23343140628E+03  0.17256562234E+03 0.  0.
         24    2    5    5    0    0  0.75082169182E+02 -0.64349339509E+02 -0.74928694375E+02  0.14662720908E+03  0.78147677997E+02 0.  0.
          5    1    5    5  501    0 -0.16306950852E+01  0.58506589174E+02 -0.63931201367E+02  0.86804197200E+02  0.47000000000E+01 0. -1.
        -13    1    6    6    0    0  0.64117261069E+02 -0.51989204864E+01 -0.27229409867E+02  0.69853365724E+02  0.00000000000E+00 0.  1.
         14    1    6    6    0    0  0.10964908112E+02 -0.59150419023E+02 -0.47699284508E+02  0.76773843352E+02  0.00000000000E+00 0. -1.
         -5    1    3    3    0  503 -0.89076153970E+02  0.30394641716E+02 -0.33661394074E+02  0.10006785149E+03  0.47000000000E+01 0.  1.
         11    1    4    4    0    0  0.20835287659E+02  0.25602995935E+02  0.10574878951E+02  0.34661948553E+02  0.00000000000E+00 0. -1.
        -12    1    4    4    0    0 -0.52106077855E+01 -0.50154887316E+02  0.87338558382E+01  0.51175613264E+02  0.00000000000E+00 0.  1.
</event>
<event>
12    1  0.8133495E-002  0.1895953E+03  0.7818608E-02  0.1158864E+00
         21   -1    0    0  501  502  0.00000000000E+00  0.00000000000E+00  0.92694076796E+02  0.92694076796E+02  0.00000000000E+00 0. -1.
         21   -1    0    0  502  503 -0.00000000000E+00 -0.00000000000E+00 -0.41236124924E+03  0.41236124924E+03  0.00000000000E+00 0.  1.
         -6    2    1    2    0  503  0.77746610334E+02 -0.12356266125E+02 -0.22182395775E+03  0.29170195314E+03  0.17229900900E+03 0.  0.
        -24    2    3    3    0    0  0.78795368573E+02 -0.45216585152E+02 -0.77684374307E+02  0.14378572693E+03  0.79913850971E+02 0.  0.
          6    2    1    2  501    0 -0.77746610334E+02  0.12356266125E+02 -0.97843214698E+02  0.21335337290E+03  0.17247943163E+03 0.  0.
         24    2    5    5    0    0 -0.10361524248E+03  0.54156300109E+02 -0.88299388587E+02  0.16305820825E+03  0.71569364522E+02 0.  0.
          5    1    5    5  501    0  0.25868632144E+02 -0.41800033984E+02 -0.95438261108E+01  0.50295164647E+02  0.47000000000E+01 0. -1.
        -11    1    6    6    0    0  0.47060945176E+01  0.12970756438E+02 -0.30674331433E+02  0.33634839929E+02  0.00000000000E+00 0.  1.
         12    1    6    6    0    0 -0.10832133700E+03  0.41185543672E+02 -0.57625057154E+02  0.12942336832E+03  0.00000000000E+00 0. -1.
         -5    1    3    3    0  503 -0.10487582389E+01  0.32860319027E+02 -0.14413958344E+03  0.14791622621E+03  0.47000000000E+01 0.  1.
         13    1    4    4    0    0 -0.89911827793E+01 -0.16223360814E+02 -0.39732259282E+02  0.43848503184E+02  0.00000000000E+00 0. -1.
        -14    1    4    4    0    0  0.87786551352E+02 -0.28993224339E+02 -0.37952115025E+02  0.99937223749E+02  0.00000000000E+00 0.  1.
</event>
<event>
12    1  0.8133495E-002  0.2578311E+03  0.7818608E-02  0.1108697E+00
         21   -1    0    0  501  502  0.00000000000E+00  0.00000000000E+00  0.11352827143E+04  0.11352827143E+04  0.00000000000E+00 0. -1.
         21   -1    0    0  502  503 -0.00000000000E+00 -0.00000000000E+00 -0.65937743255E+02  0.65937743255E+02  0.00000000000E+00 0.  1.
         -6    2    1    2    0  503 -0.24532309300E+02 -0.18942155542E+03  0.32736673292E+03  0.41572151662E+03  0.17080117591E+03 0.  0.
        -24    2    3    3    0    0 -0.27603509908E+02 -0.20222292520E+03  0.33507765429E+03  0.39975731762E+03  0.76634283130E+02 0.  0.
          6    2    1    2  501    0  0.24532309300E+02  0.18942155542E+03  0.74197823809E+03  0.78549894091E+03  0.17318926211E+03 0.  0.
         24    2    5    5    0    0 -0.99265701105E+01  0.16004406602E+02  0.20746220671E+03  0.22247993618E+03  0.78115792050E+02 0.  0.
          5    1    5    5  501    0  0.34458879410E+02  0.17341714882E+03  0.53451603138E+03  0.56301900472E+03  0.47000000000E+01 0. -1.
        -13    1    6    6    0    0 -0.24920344966E+02  0.85618312405E+01  0.17164796848E+02  0.31447715310E+02  0.00000000000E+00 0.  1.
         14    1    6    6    0    0  0.14993774856E+02  0.74425753616E+01  0.19029740986E+03  0.19103222087E+03  0.00000000000E+00 0. -1.
         -5    1    3    3    0  503  0.30712006086E+01  0.12801369776E+02 -0.77109213647E+01  0.15964198997E+02  0.47000000000E+01 0.  1.
         11    1    4    4    0    0 -0.11719486234E+02 -0.29817746606E+02  0.11700732322E+03  0.12131429453E+03  0.00000000000E+00 0. -1.
        -12    1    4    4    0    0 -0.15884023674E+02 -0.17240517859E+03  0.21807033106E+03  0.27844302308E+03  0.00000000000E+00 0.  1.
</event>
<event>
12    1  0.8133495E-002  0.1955765E+03  0.7818608E-02  0.1156093E+00
         21   -1    0    0  501  502  0.00000000000E+00  0.00000000000E+00  0.73686527492E+03  0.73686527492E+03  0.00000000000E+00 0. -1.
         21   -1    0    0  502  503 -0.00000000000E+00 -0.00000000000E+00 -0.74547886510E+02  0.74547886510E+02  0.00000000000E+00 0. -1.
         -6    2    1    2    0  503 -0.65585291750E+02  0.42415844787E+01  0.86782792104E+02  0.20355606237E+03  0.17200115113E+03 0.  0.
        -24    2    3    3    0    0  0.18420130151E+01  0.17142081968E+02 -0.12242889672E+02  0.82969828023E+02  0.80230044425E+02 0.  0.
          6    2    1    2  501    0  0.65585291750E+02 -0.42415844787E+01  0.57553459631E+03  0.60785709906E+03  0.18420303960E+03 0.  0.
         24    2    5    5    0    0  0.19225163092E+02  0.40610861455E+02  0.50186231412E+03  0.50982292850E+03  0.77683892284E+02 0.  0.
          5    1    5    5  501    0  0.46360128657E+02 -0.44852445934E+02  0.73672282183E+02  0.98034170560E+02  0.47000000000E+01 0. -1.
        -11    1    6    6    0    0 -0.23403679444E+02  0.15055700006E+02  0.73583676968E+02  0.78669967779E+02  0.00000000000E+00 0.  1.
         12    1    6    6    0    0  0.42628842537E+02  0.25555161449E+02  0.42827863715E+03  0.43115296072E+03  0.00000000000E+00 0. -1.
         -5    1    3    3    0  503 -0.67427304765E+02 -0.12900497489E+02  0.99025681777E+02  0.12058623435E+03  0.47000000000E+01 0.  1.
         13    1    4    4    0    0 -0.20106231602E+02  0.13102945544E+01 -0.39635959937E+02  0.44463319053E+02  0.00000000000E+00 0. -1.
        -14    1    4    4    0    0  0.21948244617E+02  0.15831787413E+02  0.27393070265E+02  0.38506508970E+02  0.00000000000E+00 0.  1.
</event>
<event>
12    1  0.8133495E-002  0.1853403E+03  0.7818608E-02  0.1162960E+00
         21   -1    0    0  501  502  0.00000000000E+00  0.00000000000E+00  0.86659868099E+03  0.86659868099E+03  0.00000000000E+00 0. -1.
         21   -1    0    0  502  503 -0.00000000000E+00 -0.00000000000E+00 -0.61396182158E+02  0.61396182158E+02  0.00000000000E+00 0. -1.
         -6    2    1    2    0  503 -0.50227413707E+02  0.43681890437E+02  0.12438627365E+03  0.22240167447E+03  0.17192922699E+03 0.  0.
        -24    2    3    3    0    0 -0.53237404851E+02 -0.10942907709E+02  0.12328935063E+02  0.97614392463E+02  0.80141115987E+02 0.  0.
          6    2    1    2  501    0  0.50227413707E+02 -0.43681890437E+02  0.68081622518E+03  0.70559318868E+03  0.17297431833E+03 0.  0.
         24    2    5    5    0    0 -0.37888053674E+01  0.22959606849E+02  0.48004957776E+03  0.48721695875E+03  0.79945413802E+02 0.  0.
          5    1    5    5  501    0  0.54016219075E+02 -0.66641497286E+02  0.20076664742E+03  0.21837622993E+03  0.47000000000E+01 0. -1.
        -11    1    6    6    0    0 -0.19888788948E+02  0.46343922120E+02  0.22447529539E+03  0.23007060065E+03  0.00000000000E+00 0.  1.
         12    1    6    6    0    0  0.16099983581E+02 -0.23384315271E+02  0.25557428237E+03  0.25714635809E+03  0.00000000000E+00 0. -1.
         -5    1    3    3    0  503  0.30099911435E+01  0.54624798145E+02  0.11205733858E+03  0.12478728200E+03  0.47000000000E+01 0.  1.
         13    1    4    4    0    0 -0.17420844759E+02  0.30321071690E+02  0.23116889689E+02  0.41919491999E+02  0.00000000000E+00 0. -1.
        -14    1    4    4    0    0 -0.35816560092E+02 -0.41263979399E+02 -0.10787954626E+02  0.55694900464E+02  0.00000000000E+00 0.  1.
</event>
<event>
12    1  0.8133495E-002  0.2509005E+03  0.7818608E-02  0.1113943E+00
         21   -1    0    0  503  502  0.00000000000E+00  0.00000000000E+00  0.82432666259E+02  0.82432666259E+02  0.00000000000E+00 0.  1.
         21   -1    0    0  501  503 -0.00000000000E+00 -0.00000000000E+00 -0.89210670324E+03  0.89210670324E+03  0.00000000000E+00 0.  1.
          6    2    1    2  501    0 -0.15017874312E+02  0.17014634631E+03 -0.60030449610E+03  0.64775707560E+03  0.17334481600E+03 0.  0.
         24    2    3    3    0    0 -0.16680267840E+02  0.12081766673E+03 -0.57276164151E+03  0.59104040238E+03  0.79985744603E+02 0.  0.
         -6    2    1    2    0  502  0.15017874312E+02 -0.17014634631E+03 -0.20936954088E+03  0.32678229391E+03  0.18378179249E+03 0.  0.
        -24    2    5    5    0    0 -0.13509799296E+02 -0.26568449231E+02 -0.15329084339E+02  0.83672792930E+02  0.76666539497E+02 0.  0.
          5    1    3    3  501    0  0.16623935278E+01  0.49328679579E+02 -0.27542854597E+02  0.56716673215E+02  0.47000000000E+01 0. -1.
        -13    1    4    4    0    0 -0.18254525551E+02  0.12607434120E+03 -0.43753783095E+03  0.45570530031E+03  0.00000000000E+00 0.  1.
         14    1    4    4    0    0  0.15742577115E+01 -0.52566744703E+01 -0.13522381055E+03  0.13533510208E+03  0.00000000000E+00 0. -1.
         -5    1    5    5    0  502  0.28527673608E+02 -0.14357789707E+03 -0.19404045654E+03  0.24310950098E+03  0.47000000000E+01 0.  1.
         11    1    6    6    0    0  0.17758058494E+02 -0.20929918376E+02 -0.36369969904E+02  0.45565171299E+02  0.00000000000E+00 0. -1.
        -12    1    6    6    0    0 -0.31267857790E+02 -0.56385308550E+01  0.21040885565E+02  0.38107621631E+02  0.00000000000E+00 0.  1.
</event>
<event>
12    1  0.8133495E-002  0.1979614E+03  0.7818608E-02  0.1151955E+00
         21   -1    0    0  503  502  0.00000000000E+00  0.00000000000E+00  0.19980191386E+03  0.19980191386E+03  0.00000000000E+00 0. -1.
         21   -1    0    0  501  503 -0.00000000000E+00 -0.00000000000E+00 -0.22574402923E+03  0.22574402923E+03  0.00000000000E+00 0.  1.
          6    2    1    2  501    0  0.21364051649E+02 -0.94167730303E+02 -0.92804714787E+02  0.21659785027E+03  0.17022905018E+03 0.  0.
         24    2    3    3    0    0 -0.20143492961E+01 -0.94546295983E+02 -0.12566874267E+03  0.17599209611E+03  0.78978005296E+02 0.  0.
         -6    2    1    2    0  502 -0.21364051649E+02  0.94167730303E+02  0.66862599421E+02  0.20894809281E+03  0.17281410289E+03 0.  0.
        -24    2    5    5    0    0 -0.19843367154E+02  0.48317336670E+02  0.11186467625E+03  0.14451325754E+03  0.75113591115E+02 0.  0.
          5    1    3    3  501    0  0.23378400945E+02  0.37856568052E+00  0.32864027884E+02  0.40605754167E+02  0.47000000000E+01 0. -1.
        -11    1    4    4    0    0 -0.57278987822E+01 -0.42079283161E+02 -0.30600509163E+01  0.42577444820E+02  0.00000000000E+00 0.  1.
         12    1    4    4    0    0  0.37135494861E+01 -0.52467012822E+02 -0.12260869175E+03  0.13341465129E+03  0.00000000000E+00 0. -1.
         -5    1    5    5    0  502 -0.15206844951E+01  0.45850393632E+02 -0.45002076829E+02  0.64434835272E+02  0.47000000000E+01 0.  1.
         13    1    6    6    0    0 -0.26868392709E+02 -0.12722835254E+02  0.42258898833E+02  0.51668129386E+02  0.00000000000E+00 0. -1.
        -14    1    6    6    0    0  0.70250255549E+01  0.61040171925E+02  0.69605777417E+02  0.92845128157E+02  0.00000000000E+00 0.  1.
</event>
<event>
12    1  0.8133495E-002  0.2543884E+03  0.7818608E-02  0.1112386E+00
         21   -1    0    0  501  502  0.00000000000E+00  0.00000000000E+00  0.70618024854E+03  0.70618024854E+03  0.00000000000E+00 0.  1.
         21   -1    0    0  502  503 -0.00000000000E+00 -0.00000000000E+00 -0.12744480966E+03  0.12744480966E+03  0.00000000000E+00 0.  1.
         -6    2    1    2    0  503 -0.16225628567E+03  0.54890499498E+02  0.51570094864E+02  0.24829030005E+03  0.17218748281E+03 0.  0.
        -24    2    3    3    0    0 -0.30810449470E+02  0.84993939268E+01 -0.24785857579E+02  0.89285696326E+02  0.79599455644E+02 0.  0.
          6    2    1    2  501    0  0.16225628567E+03 -0.54890499498E+02  0.52716534401E+03  0.58533475816E+03  0.18807820183E+03 0.  0.
         24    2    5    5    0    0  0.58131134330E+02 -0.57852095907E+01  0.40695280537E+03  0.41882193256E+03  0.79928267661E+02 0.  0.
          5    1    5    5  501    0  0.10412515134E+03 -0.49105289908E+02  0.12021253864E+03  0.16651282559E+03  0.47000000000E+01 0. -1.
        -11    1    6    6    0    0  0.18388626598E+02 -0.40757935720E+02  0.22111991085E+03  0.22559558038E+03  0.00000000000E+00 0.  1.
         12    1    6    6    0    0  0.39742507732E+02  0.34972726129E+02  0.18583289452E+03  0.19322635219E+03  0.00000000000E+00 0. -1.
         -5    1    3    3    0  503 -0.13144583620E+03  0.46391105572E+02  0.76355952443E+02  0.15900460372E+03  0.47000000000E+01 0.  1.
         13    1    4    4    0    0 -0.55297018217E+02 -0.78387469314E+01 -0.20719569872E+02  0.59569344069E+02  0.00000000000E+00 0. -1.
        -14    1    4    4    0    0  0.24486568747E+02  0.16338140858E+02 -0.40662877074E+01  0.29716352257E+02  0.00000000000E+00 0.  1.
</event>
<event>
12    1  0.8133495E-002  0.1832502E+03  0.7818608E-02  0.1165232E+00
         21   -1    0    0  501  502  0.00000000000E+00  0.00000000000E+00  0.16675294331E+03  0.16675294331E+03  0.00000000000E+00 0.  1.
         21   -1    0    0  502  503 -0.00000000000E+00 -0.00000000000E+00 -0.44122964427E+03  0.44122964427E+03  0.00000000000E+00 0. -1.
         -6    2    1    2    0  503  0.57731970204E+02  0.22287944094E+02 -0.36213655442E+03  0.40484498765E+03  0.17007894385E+03 0.  0.
        -24    2    3    3    0    0  0.67380634809E+01 -0.86042339444E+01 -0.32431652642E+03  0.33408377154E+03  0.79443833983E+02 0.  0.
          6    2    1    2  501    0 -0.57731970204E+02 -0.22287944094E+02  0.87659853458E+02  0.20313759993E+03  0.17248449717E+03 0.  0.
         24    2    5    5    0    0 -0.69041295794E+02 -0.62907352656E+02  0.10083368270E+03  0.15871376653E+03  0.79363672910E+02 0.  0.
          5    1    5    5  501    0  0.11309325591E+02  0.40619408562E+02 -0.13173829239E+02  0.44423833401E+02  0.47000000000E+01 0. -1.
        -11    1    6    6    0    0  0.29049373867E+01 -0.18449880900E+01  0.52642730763E+02  0.52755092119E+02  0.00000000000E+00 0.  1.
         12    1    6    6    0    0 -0.71946233181E+02 -0.61062364566E+02  0.48190951934E+02  0.10595867441E+03  0.00000000000E+00 0. -1.
         -5    1    3    3    0  503  0.50993906723E+02  0.30892178039E+02 -0.37820028000E+02  0.70761216105E+02  0.47000000000E+01 0.  1.
         11    1    4    4    0    0 -0.12230217709E+02  0.22882596514E+02 -0.24823773197E+03  0.24958998983E+03  0.00000000000E+00 0. -1.
        -12    1    4    4    0    0  0.18968281190E+02 -0.31486830458E+02 -0.76078794449E+02  0.84493781715E+02  0.00000000000E+00 0.  1.
</event>
<event>
12    1  0.8133495E-002  0.1753641E+03  0.7818608E-02  0.1173216E+00
         21   -1    0    0  501  502  0.00000000000E+00  0.00000000000E+00  0.84724044672E+02  0.84724044672E+02  0.00000000000E+00 0.  1.
         21   -1    0    0  502  503 -0.00000000000E+00 -0.00000000000E+00 -0.35831794619E+03  0.35831794619E+03  0.00000000000E+00 0.  1.
         -6    2    1    2    0  503 -0.28813865871E+01 -0.34168467980E+02 -0.11787042855E+03  0.20851616551E+03  0.16855197050E+03 0.  0.
        -24    2    3    3    0    0  0.55267062319E+02 -0.24137247651E+02 -0.30605650038E+02  0.10306902681E+03  0.77778297564E+02 0.  0.
          6    2    1    2  501    0  0.28813865871E+01  0.34168467980E+02 -0.15572347297E+03  0.23452582535E+03  0.17197899910E+03 0.  0.
         24    2    5    5    0    0  0.12999585713E+02  0.48693399672E+02 -0.17016377855E+02  0.94614782795E+02  0.78245534107E+02 0.  0.
          5    1    5    5  501    0 -0.10118199126E+02 -0.14524931692E+02 -0.13870709511E+03  0.13991104256E+03  0.47000000000E+01 0. -1.
        -13    1    6    6    0    0 -0.95194724051E+01  0.44403214318E+02 -0.41183011889E+02  0.61305026424E+02  0.00000000000E+00 0.  1.
         14    1    6    6    0    0  0.22519058118E+02  0.42901853544E+01  0.24166634034E+02  0.33309756370E+02  0.00000000000E+00 0. -1.
         -5    1    3    3    0  503 -0.58148448906E+02 -0.10031220329E+02 -0.87264778511E+02  0.10544713870E+03  0.47000000000E+01 0.  1.
         11    1    4    4    0    0  0.24595353133E+02 -0.89400720768E+00 -0.53076527348E+02  0.58505114306E+02  0.00000000000E+00 0. -1.
        -12    1    4    4    0    0  0.30671709186E+02 -0.23243240443E+02  0.22470877310E+02  0.44563912505E+02  0.00000000000E+00 0.  1.
</event>
<event>
12    1  0.8133495E-002  0.2393638E+03  0.7818608E-02  0.1120272E+00
         21   -1    0    0  501  502  0.00000000000E+00  0.00000000000E+00  0.53778931153E+03  0.53778931153E+03  0.00000000000E+00 0.  1.
         21   -1    0    0  502  503 -0.00000000000E+00 -0.00000000000E+00 -0.39444398880E+03  0.39444398880E+03  0.00000000000E+00 0.  1.
         -6    2    1    2    0  503 -0.70215220475E+02  0.15104578824E+03 -0.32666392012E+03  0.40478310393E+03  0.17144980954E+03 0.  0.
        -24    2    3    3    0    0 -0.62863005364E+02  0.86126624433E+02 -0.97340498028E+02  0.16628808341E+03  0.82504552894E+02 0.  0.
          6    2    1    2  501    0  0.70215220475E+02 -0.15104578824E+03  0.47000924284E+03  0.52745019640E+03  0.17190117509E+03 0.  0.
         24    2    5    5    0    0  0.51741013145E+02 -0.18442540755E+02  0.27761098677E+03  0.29300596739E+03  0.75943249840E+02 0.  0.
          5    1    5    5  501    0  0.18474207330E+02 -0.13260324749E+03  0.19239825607E+03  0.23444422901E+03  0.47000000000E+01 0. -1.
        -13    1    6    6    0    0  0.12205569337E+02 -0.29049318256E+02  0.35532169683E+02  0.47490776961E+02  0.00000000000E+00 0.  1.
         14    1    6    6    0    0  0.39535443808E+02  0.10606777501E+02  0.24207881709E+03  0.24551519043E+03  0.00000000000E+00 0. -1.
         -5    1    3    3    0  503 -0.73522151113E+01  0.64919163807E+02 -0.22932342209E+03  0.23849502052E+03  0.47000000000E+01 0.  1.
         11    1    4    4    0    0 -0.47970989016E+01 -0.31300421034E+01  0.12227189179E+02  0.13502350783E+02  0.00000000000E+00 0. -1.
        -12    1    4    4    0    0 -0.58065906462E+02  0.89256666536E+02 -0.10956768721E+03  0.15278573263E+03  0.00000000000E+00 0.  1.
</event>
<event>
12    1  0.8133495E-002  0.2621725E+03  0.7818608E-02  0.1105989E+00
         21   -1    0    0  501  502  0.00000000000E+00  0.00000000000E+00  0.50527986168E+03  0.50527986168E+03  0.00000000000E+00 0.  1.
         21   -1    0    0  502  503 -0.00000000000E+00 -0.00000000000E+00 -0.13576820027E+03  0.13576820027E+03  0.00000000000E+00 0. -1.
         -6    2    1    2    0  503 -0.15534693171E+03  0.12051352415E+03  0.17169565961E+03  0.31339085274E+03  0.17343081720E+03 0.  0.
        -24    2    3    3    0    0 -0.16201555542E+03  0.85952529957E+02  0.18801668660E+03  0.27430890315E+03  0.79108926817E+02 0.  0.
          6    2    1    2  501    0  0.15534693171E+03 -0.12051352415E+03  0.19781600180E+03  0.32765720921E+03  0.17196481466E+03 0.  0.
         24    2    5    5    0    0  0.41228945062E+02 -0.12651378044E+02  0.12584701642E+03  0.15486026972E+03  0.79273881687E+02 0.  0.
          5    1    5    5  501    0  0.11411798665E+03 -0.10786214611E+03  0.71968985383E+02  0.17279693949E+03  0.47000000000E+01 0. -1.
        -13    1    6    6    0    0  0.34640645575E+02 -0.21709740697E+02  0.13458318832E+03  0.14065532960E+03  0.00000000000E+00 0.  1.
         14    1    6    6    0    0  0.65882994866E+01  0.90583626535E+01 -0.87361719028E+01  0.14204940113E+02  0.00000000000E+00 0. -1.
         -5    1    3    3    0  503  0.66686237086E+01  0.34560994196E+02 -0.16321026987E+02  0.39081949592E+02  0.47000000000E+01 0.  1.
         13    1    4    4    0    0 -0.37743468812E+02  0.60657880546E+02  0.84124105063E+02  0.11036672036E+03  0.00000000000E+00 0. -1.
        -14    1    4    4    0    0 -0.12427208661E+03  0.25294649411E+02  0.10389258154E+03  0.16394218279E+03  0.00000000000E+00 0.  1.
</event>
<event>
12    1  0.8133495E-002  0.2787488E+03  0.7818608E-02  0.1096455E+00
         21   -1    0    0  503  502  0.00000000000E+00  0.00000000000E+00  0.94052194339E+03  0.94052194339E+03  0.00000000000E+00 0. -1.
         21   -1    0    0  501  503 -0.00000000000E+00 -0.00000000000E+00 -0.10046284567E+03  0.10046284567E+03  0.00000000000E+00 0. -1.
          6    2    1    2  501    0  0.17431784695E+03 -0.13454462818E+03  0.19922272930E+03  0.34214852914E+03  0.16996161738E+03 0.  0.
         24    2    3    3    0    0  0.17931873353E+03 -0.74653694413E+02  0.11769421072E+03  0.24075364685E+03  0.79887476789E+02 0.  0.
         -6    2    1    2    0  502 -0.17431784695E+03  0.13454462818E+03  0.64083636841E+03  0.69883625992E+03  0.17091488632E+03 0.  0.
        -24    2    5    5    0    0 -0.17723443807E+03  0.86245772895E+02  0.39912623756E+03  0.45228573106E+03  0.80064034588E+02 0.  0.
          5    1    3    3  501    0 -0.50008865755E+01 -0.59890933764E+02  0.81528518579E+02  0.10139488229E+03  0.47000000000E+01 0. -1.
        -13    1    4    4    0    0  0.15943438364E+03 -0.86259384305E+02  0.12033571995E+03  0.21757915701E+03  0.00000000000E+00 0.  1.
         14    1    4    4    0    0  0.19884349887E+02  0.11605689891E+02 -0.26415092271E+01  0.23174489838E+02  0.00000000000E+00 0. -1.
         -5    1    5    5    0  502  0.29165911165E+01  0.48298855283E+02  0.24171013085E+03  0.24655052886E+03  0.47000000000E+01 0.  1.
         13    1    6    6    0    0 -0.33786414480E+02  0.43778042643E+02  0.16890102253E+03  0.17772336434E+03  0.00000000000E+00 0. -1.
        -14    1    6    6    0    0 -0.14344802359E+03  0.42467730252E+02  0.23022521503E+03  0.27456236672E+03  0.00000000000E+00 0.  1.
</event>
<event>
12    1  0.8133495E-002  0.1984759E+03  0.7818608E-02  0.1151077E+00
         21   -1    0    0  503  502  0.00000000000E+00  0.00000000000E+00  0.19144457038E+03  0.19144457038E+03  0.00000000000E+00 0. -1.
         21   -1    0    0  501  503 -0.00000000000E+00 -0.00000000000E+00 -0.22038079061E+03  0.22038079061E+03  0.00000000000E+00 0.  1.
          6    2    1    2  501    0  0.77449939236E+01  0.98544885420E+02 -0.67903810341E+02  0.20977040021E+03  0.17210930821E+03 0.  0.
         24    2    3    3    0    0 -0.35521115013E+02  0.72819784167E+01 -0.70680873200E+02  0.10862359376E+03  0.74084562924E+02 0.  0.
         -6    2    1    2    0  502 -0.77449939236E+01 -0.98544885420E+02  0.38967590112E+02  0.20205496077E+03  0.17186231326E+03 0.  0.
        -24    2    5    5    0    0 -0.34979231228E+01 -0.80469131259E+01 -0.29721009074E+02  0.88265091901E+02  0.82646232769E+02 0.  0.
          5    1    3    3  501    0  0.43266108937E+02  0.91262907003E+02  0.27770628595E+01  0.10114680645E+03  0.47000000000E+01 0. -1.
        -11    1    4    4    0    0 -0.53112650289E+02 -0.13137239331E+02 -0.39937118549E+02  0.67738571848E+02  0.00000000000E+00 0.  1.
         12    1    4    4    0    0  0.17591535275E+02  0.20419217748E+02 -0.30743754651E+02  0.40885021913E+02  0.00000000000E+00 0. -1.
         -5    1    5    5    0  502 -0.42470708008E+01 -0.90497972294E+02  0.68688599186E+02  0.11378986887E+03  0.47000000000E+01 0.  1.
         13    1    6    6    0    0  0.26332214947E+02  0.17838278875E+02  0.88977170261E+01  0.33026642359E+02  0.00000000000E+00 0. -1.
        -14    1    6    6    0    0 -0.29830138070E+02 -0.25885192000E+02 -0.38618726100E+02  0.55238449542E+02  0.00000000000E+00 0.  1.
</event>
<event>
12    1  0.8133495E-002  0.1859867E+03  0.7818608E-02  0.1163217E+00
         21   -1    0    0  503  502  0.00000000000E+00  0.00000000000E+00  0.49255921059E+03  0.49255921059E+03  0.00000000000E+00 0.  1.
         21   -1    0    0  501  503 -0.00000000000E+00 -0.00000000000E+00 -0.68589181251E+02  0.68589181251E+02  0.00000000000E+00 0.  1.
          6    2    1    2  501    0  0.50232925237E+02  0.51295308638E+02  0.21978523351E+03  0.28495558761E+03  0.16655204163E+03 0.  0.
         24    2    3    3    0    0  0.65977392851E+02 -0.17060011370E+02  0.16380196353E+03  0.19508593449E+03  0.81138019593E+02 0.  0.
         -6    2    1    2    0  502 -0.50232925237E+02 -0.51295308638E+02  0.20418479582E+03  0.27619280423E+03  0.17157062335E+03 0.  0.
        -24    2    5    5    0    0 -0.59539074506E+02  0.28409160747E+02  0.92485002129E+02  0.13857616001E+03  0.79359276067E+02 0.  0.
          5    1    3    3  501    0 -0.15744467614E+02  0.68355320007E+02  0.55983269982E+02  0.89869653119E+02  0.47000000000E+01 0. -1.
        -13    1    4    4    0    0  0.12982315643E+02  0.31229012185E+02  0.44419669775E+02  0.55829192941E+02  0.00000000000E+00 0.  1.
         14    1    4    4    0    0  0.52995077208E+02 -0.48289023555E+02  0.11938229376E+03  0.13925674155E+03  0.00000000000E+00 0. -1.
         -5    1    5    5    0  502  0.93061492692E+01 -0.79704469385E+02  0.11169979369E+03  0.13761664421E+03  0.47000000000E+01 0.  1.
         11    1    6    6    0    0 -0.46559193408E+02  0.21313733670E+02  0.10651767380E+03  0.11818649908E+03  0.00000000000E+00 0. -1.
        -12    1    6    6    0    0 -0.12979881098E+02  0.70954270777E+01 -0.14032671669E+02  0.20389660932E+02  0.00000000000E+00 0.  1.
</event>
<event>
12    1  0.8133495E-002  0.1934462E+03  0.7818608E-02  0.1157928E+00
         21   -1    0    0  501  502  0.00000000000E+00  0.00000000000E+00  0.29923814553E+02  0.29923814553E+02  0.00000000000E+00 0.  1.
         21   -1    0    0  502  503 -0.00000000000E+00 -0.00000000000E+00 -0.14849644347E+04  0.14849644347E+04  0.00000000000E+00 0.  1.
         -6    2    1    2    0  503 -0.48524110322E+02 -0.36849189019E+02 -0.10538075991E+04  0.10694565927E+04  0.17179783358E+03 0.  0.
        -24    2    3    3    0    0  0.79917674030E+01  0.38209608446E+02 -0.51602322624E+03  0.52350605532E+03  0.79087150776E+02 0.  0.
          6    2    1    2  501    0  0.48524110322E+02  0.36849189019E+02 -0.40123302102E+03  0.44543165658E+03  0.18360003135E+03 0.  0.
         24    2    5    5    0    0  0.87002994409E+02  0.68963888377E+02 -0.33844249281E+03  0.36495359206E+03  0.79512668699E+02 0.  0.
          5    1    5    5  501    0 -0.38478884087E+02 -0.32114699358E+02 -0.62790528213E+02  0.80478064519E+02  0.47000000000E+01 0. -1.
        -13    1    6    6    0    0  0.51976311255E+02  0.39416214451E+02 -0.83674358245E+02  0.10609699864E+03  0.00000000000E+00 0.  1.
         14    1    6    6    0    0  0.35026683155E+02  0.29547673926E+02 -0.25476813456E+03  0.25885659342E+03  0.00000000000E+00 0. -1.
         -5    1    3    3    0  503 -0.56515877725E+02 -0.75058797465E+02 -0.53778437290E+03  0.54595053737E+03  0.47000000000E+01 0.  1.
         11    1    4    4    0    0 -0.72862478721E+01  0.76825314444E+01 -0.56669351186E+01  0.12009365141E+02  0.00000000000E+00 0. -1.
        -12    1    4    4    0    0  0.15278015275E+02  0.30527077002E+02 -0.51035629112E+03  0.51149669018E+03  0.00000000000E+00 0.  1.
</event>
<event>
12    1  0.8133495E-002  0.2501443E+03  0.7818608E-02  0.1113322E+00
         21   -1    0    0  501  502  0.00000000000E+00  0.00000000000E+00  0.60411413115E+03  0.60411413115E+03  0.00000000000E+00 0.  1.
         21   -1    0    0  502  503 -0.00000000000E+00 -0.00000000000E+00 -0.12689672995E+03  0.12689672995E+03  0.00000000000E+00 0.  1.
         -6    2    1    2    0  503 -0.94815247214E+02 -0.15243629009E+03  0.80709282026E+02  0.26219227875E+03  0.17321676937E+03 0.  0.
        -24    2    3    3    0    0 -0.23158594985E+02 -0.14789987520E+03  0.85455987335E+02  0.19008211248E+03  0.80111111008E+02 0.  0.
          6    2    1    2  501    0  0.94815247214E+02  0.15243629009E+03  0.39650811918E+03  0.46881858235E+03  0.17419937123E+03 0.  0.
         24    2    5    5    0    0 -0.13157382597E+02  0.88041348030E+02  0.17965151899E+03  0.21811223541E+03  0.85871318132E+02 0.  0.
          5    1    5    5  501    0  0.10797262981E+03  0.64394942061E+02  0.21685660019E+03  0.25070634694E+03  0.47000000000E+01 0. -1.
        -13    1    6    6    0    0  0.34742004495E+02  0.26285067740E+02  0.46508990805E+02  0.63725959296E+02  0.00000000000E+00 0.  1.
         14    1    6    6    0    0 -0.47899387092E+02  0.61756280290E+02  0.13314252819E+03  0.15438627611E+03  0.00000000000E+00 0. -1.
         -5    1    3    3    0  503 -0.71656652230E+02 -0.45364148944E+01 -0.47467053088E+01  0.72110166275E+02  0.47000000000E+01 0.  1.
         13    1    4    4    0    0  0.17528913225E+00 -0.86131786760E+02  0.53879315096E+01  0.86300319946E+02  0.00000000000E+00 0. -1.
        -14    1    4    4    0    0 -0.23333884117E+02 -0.61768088436E+02  0.80068055825E+02  0.10378179253E+03  0.00000000000E+00 0.  1.
</event>
<event>
12    1  0.8133495E-002  0.1871947E+03  0.7818608E-02  0.1161035E+00
         21   -1    0    0  501  502  0.00000000000E+00  0.00000000000E+00  0.47896965578E+03  0.47896965578E+03  0.00000000000E+00 0. -1.
         21   -1    0    0  502  503 -0.00000000000E+00 -0.00000000000E+00 -0.76577389097E+02  0.76577389097E+02  0.00000000000E+00 0. -1.
         -6    2    1    2    0  503 -0.50985956407E+02  0.56296822818E+02  0.26019094674E+03  0.32053267772E+03  0.17109345022E+03 0.  0.
        -24    2    3    3    0    0 -0.49405688968E+02 -0.31540141563E+02  0.11487552610E+03  0.15066069347E+03  0.77888095546E+02 0.  0.
          6    2    1    2  501    0  0.50985956407E+02 -0.56296822818E+02  0.14220131994E+03  0.23501436715E+03  0.17100186364E+03 0.  0.
         24    2    5    5    0    0  0.88387448387E+02  0.17270124362E+01  0.95273314986E+02  0.15140835835E+03  0.77666999585E+02 0.  0.
          5    1    5    5  501    0 -0.37401491980E+02 -0.58023835254E+02  0.46928004953E+02  0.83606008808E+02  0.47000000000E+01 0. -1.
        -13    1    6    6    0    0  0.31622866800E+02  0.34826601937E+02  0.19000150883E+02  0.50733653926E+02  0.00000000000E+00 0.  1.
         14    1    6    6    0    0  0.56764581586E+02 -0.33099589501E+02  0.76273164103E+02  0.10067470442E+03  0.00000000000E+00 0. -1.
         -5    1    3    3    0  503 -0.15802674384E+01  0.87836964381E+02  0.14531542064E+03  0.16987198425E+03  0.47000000000E+01 0.  1.
         11    1    4    4    0    0  0.15431064058E+02 -0.28610045857E+02  0.41062334184E+02  0.52371440218E+02  0.00000000000E+00 0. -1.
        -12    1    4    4    0    0 -0.64836753026E+02 -0.29300957061E+01  0.73813191919E+02  0.98289253253E+02  0.00000000000E+00 0.  1.
</event>
<event>
12    1  0.8133495E-002  0.3308856E+03  0.7818608E-02  0.1070747E+00
         21   -1    0    0  501  502  0.00000000000E+00  0.00000000000E+00  0.11523733927E+04  0.11523733927E+04  0.00000000000E+00 0.  1.
         21   -1    0    0  502  503 -0.00000000000E+00 -0.00000000000E+00 -0.95632395371E+02  0.95632395371E+02  0.00000000000E+00 0. -1.
         -6    2    1    2    0  503  0.27670335023E+03 -0.56144168988E+02  0.57888178936E+03  0.66677536214E+03  0.17253505663E+03 0.  0.
        -24    2    3    3    0    0  0.79694669528E+02 -0.46255761657E+02  0.12976358004E+03  0.17622520485E+03  0.75669678758E+02 0.  0.
          6    2    1    2  501    0 -0.27670335023E+03  0.56144168988E+02  0.47785920794E+03  0.58123042591E+03  0.17251803860E+03 0.  0.
         24    2    5    5    0    0 -0.43481023282E+02  0.17553181174E+02  0.11420428918E+03  0.14746907670E+03  0.80658510767E+02 0.  0.
          5    1    5    5  501    0 -0.23322232695E+03  0.38590987814E+02  0.36365491876E+03  0.43376134921E+03  0.47000000000E+01 0. -1.
        -13    1    6    6    0    0 -0.14933707972E+02  0.48242688350E+02  0.52232808872E+02  0.72654242379E+02  0.00000000000E+00 0.  1.
         14    1    6    6    0    0 -0.28547315310E+02 -0.30689507176E+02  0.61971480312E+02  0.74814834319E+02  0.00000000000E+00 0. -1.
         -5    1    3    3    0  503  0.19700868070E+03 -0.98884073309E+01  0.44911820932E+03  0.49055015729E+03  0.47000000000E+01 0.  1.
         11    1    4    4    0    0  0.15578235513E+02  0.21087330356E+02  0.30265936028E+02  0.40042275246E+02  0.00000000000E+00 0. -1.
        -12    1    4    4    0    0  0.64116434014E+02 -0.67343092013E+02  0.99497644008E+02  0.13618292960E+03  0.00000000000E+00 0.  1.
</event>
<event>
12    1  0.8133495E-002  0.1827679E+03  0.7818608E-02  0.1165787E+00
         21   -1    0    0  503  502  0.00000000000E+00  0.00000000000E+00  0.10232977698E+03  0.10232977698E+03  0.00000000000E+00 0. -1.
         21   -1    0    0  501  503 -0.00000000000E+00 -0.00000000000E+00 -0.83456813673E+03  0.83456813673E+03  0.00000000000E+00 0. -1.
          6    2    1    2  501    0 -0.43428420537E+02 -0.30426901926E+02 -0.73437542531E+03  0.75677696365E+03  0.17490649885E+03 0.  0.
         24    2    3    3    0    0 -0.59551655788E+02  0.31875898854E+02 -0.30200636894E+03  0.31961945359E+03  0.79914176433E+02 0.  0.
         -6    2    1    2    0  502  0.43428420537E+02  0.30426901926E+02  0.21370655608E+01  0.18012095005E+03  0.17212543545E+03 0.  0.
        -24    2    5    5    0    0  0.29692713184E+02  0.32015234555E+02  0.67455124585E+02  0.11319015526E+03  0.79719413917E+02 0.  0.
          5    1    3    3  501    0  0.16123235251E+02 -0.62302800780E+02 -0.43236905637E+03  0.43715751007E+03  0.47000000000E+01 0. -1.
        -13    1    4    4    0    0 -0.21572778187E+02 -0.75393290491E+01 -0.14759674173E+02  0.27204305228E+02  0.00000000000E+00 0.  1.
         14    1    4    4    0    0 -0.37978877601E+02  0.39415227904E+02 -0.28724669477E+03  0.29241514836E+03  0.00000000000E+00 0. -1.
         -5    1    5    5    0  502  0.13735707353E+02 -0.15883326300E+01 -0.65318059025E+02  0.66930794794E+02  0.47000000000E+01 0.  1.
         11    1    6    6    0    0  0.52116354140E+02  0.37962546951E+00  0.38588265669E+02  0.64848382645E+02  0.00000000000E+00 0. -1.
        -12    1    6    6    0    0 -0.22423640955E+02  0.31635609086E+02  0.28866858917E+02  0.48341772616E+02  0.00000000000E+00 0.  1.
</event>
<event>
12    1  0.8133495E-002  0.2886606E+03  0.7818608E-02  0.1091089E+00
         21   -1    0    0  501  502  0.00000000000E+00  0.00000000000E+00  0.20734992322E+04  0.20734992322E+04  0.00000000000E+00 0.  1.
         21   -1    0    0  502  503 -0.00000000000E+00 -0.00000000000E+00 -0.41842870399E+02  0.41842870399E+02  0.00000000000E+00 0.  1.
         -6    2    1    2    0  503 -0.15622396029E+03  0.17148867848E+03  0.80325998271E+03  0.85355230027E+03  0.17178660270E+03 0.  0.
        -24    2    3    3    0    0 -0.14611995336E+03  0.70617193682E+02  0.58779541867E+03  0.61538383939E+03  0.82800886264E+02 0.  0.
          6    2    1    2  501    0  0.15622396029E+03 -0.17148867848E+03  0.12283963791E+04  0.12617898024E+04  0.17129374904E+03 0.  0.
         24    2    5    5    0    0  0.16498361912E+03 -0.88402197436E+02  0.82412637275E+03  0.84895033839E+03  0.80609277950E+02 0.  0.
          5    1    5    5  501    0 -0.87596588338E+01 -0.83086481048E+02  0.40427000637E+03  0.41283946396E+03  0.47000000000E+01 0. -1.
        -13    1    6    6    0    0  0.17756241908E+02 -0.34133074304E+02  0.28067615395E+03  0.28330099591E+03  0.00000000000E+00 0.  1.
         14    1    6    6    0    0  0.14722737722E+03 -0.54269123132E+02  0.54345021880E+03  0.56564934247E+03  0.00000000000E+00 0. -1.
         -5    1    3    3    0  503 -0.10104006934E+02  0.10087148480E+03  0.21546456404E+03  0.23816846088E+03  0.47000000000E+01 0.  1.
         13    1    4    4    0    0 -0.62655069946E+02 -0.47549282685E+01  0.13619373475E+03  0.14999000139E+03  0.00000000000E+00 0. -1.
        -14    1    4    4    0    0 -0.83464883410E+02  0.75372121950E+02  0.45160168392E+03  0.46539383800E+03  0.00000000000E+00 0.  1.
</event>
<event>
12    1  0.8133495E-002  0.1820949E+03  0.7818608E-02  0.1165888E+00
         21   -1    0    0  503  502  0.00000000000E+00  0.00000000000E+00  0.14607092108E+03  0.14607092108E+03  0.00000000000E+00 0.  1.
         21   -1    0    0  501  503 -0.00000000000E+00 -0.00000000000E+00 -0.22747564511E+03  0.22747564511E+03  0.00000000000E+00 0.  1.
          6    2    1    2  501    0  0.54854263231E+02 -0.26700728240E+02 -0.52900956486E+02  0.18923426813E+03  0.17114081324E+03 0.  0.
         24    2    3    3    0    0  0.19950521856E+01  0.44648041479E+02 -0.28214601773E+02  0.96950741748E+02  0.81277024621E+02 0.  0.
         -6    2    1    2    0  502 -0.54854263231E+02  0.26700728240E+02 -0.28503767552E+02  0.18431229806E+03  0.17157109129E+03 0.  0.
        -24    2    5    5    0    0  0.11188304295E+02  0.64049524064E+02 -0.28855144560E+01  0.10409423172E+03  0.81238926619E+02 0.  0.
          5    1    3    3  501    0  0.52859211046E+02 -0.71348769719E+02 -0.24686354713E+02  0.92283526383E+02  0.47000000000E+01 0. -1.
        -13    1    4    4    0    0  0.40846627711E+02  0.17036387285E+02 -0.71142699510E+01  0.44825197423E+02  0.00000000000E+00 0.  1.
         14    1    4    4    0    0 -0.38851575526E+02  0.27611654194E+02 -0.21100331822E+02  0.52125544325E+02  0.00000000000E+00 0. -1.
         -5    1    5    5    0  502 -0.66042567526E+02 -0.37348795824E+02 -0.25618253096E+02  0.80218066335E+02  0.47000000000E+01 0.  1.
         13    1    6    6    0    0  0.17841053793E+02 -0.11933817401E+02 -0.15907707133E+02  0.26716555624E+02  0.00000000000E+00 0. -1.
        -14    1    6    6    0    0 -0.66527494980E+01  0.75983341465E+02  0.13022192677E+02  0.77377676097E+02  0.00000000000E+00 0.  1.
</event>
<event>
12    1  0.8133495E-002  0.1991688E+03  0.7818608E-02  0.1150524E+00
         21   -1    0    0  501  502  0.00000000000E+00  0.00000000000E+00  0.13292351180E+03  0.13292351180E+03  0.00000000000E+00 0.  1.
         21   -1    0    0  502  503 -0.00000000000E+00 -0.00000000000E+00 -0.29984546339E+03  0.29984546339E+03  0.00000000000E+00 0. -1.
         -6    2    1    2    0  503  0.57176059803E+02 -0.81422159357E+02 -0.10119940865E+03  0.22340438059E+03  0.17253848008E+03 0.  0.
        -24    2    3    3    0    0 -0.20575997457E+02 -0.38390200149E+02 -0.41931654814E+02  0.11648437047E+03  0.99564882106E+02 0.  0.
          6    2    1    2  501    0 -0.57176059803E+02  0.81422159357E+02 -0.65722542946E+02  0.20936459460E+03  0.17209128673E+03 0.  0.
         24    2    5    5    0    0 -0.79352858646E+02 -0.62518493111E+01 -0.49267586707E+02  0.11732439801E+03  0.70723104240E+02 0.  0.
          5    1    5    5  501    0  0.22176798843E+02  0.87674008668E+02 -0.16454956239E+02  0.92040196586E+02  0.47000000000E+01 0. -1.
        -11    1    6    6    0    0 -0.19368031734E+02 -0.32833916635E+02 -0.56475627380E+01  0.38536757774E+02  0.00000000000E+00 0.  1.
         12    1    6    6    0    0 -0.59984826911E+02  0.26582067324E+02 -0.43620023969E+02  0.78787640235E+02  0.00000000000E+00 0. -1.
         -5    1    3    3    0  503  0.77752057260E+02 -0.43031959208E+02 -0.59267753833E+02  0.10692001013E+03  0.47000000000E+01 0.  1.
         11    1    4    4    0    0 -0.50859487334E+02 -0.33551270447E+02 -0.55989876934E+02  0.82748060519E+02  0.00000000000E+00 0. -1.
        -12    1    4    4    0    0  0.30283489876E+02 -0.48389297016E+01  0.14058222120E+02  0.33736309948E+02  0.00000000000E+00 0.  1.
</event>
<event>
12    1  0.8133495E-002  0.1913932E+03  0.7818608E-02  0.1157409E+00
         21   -1    0    0  501  502  0.00000000000E+00  0.00000000000E+00  0.34493420082E+04  0.34493420082E+04  0.00000000000E+00 0. -1.
         21   -1    0    0  502  503 -0.00000000000E+00 -0.00000000000E+00 -0.10571412672E+02  0.10571412672E+02  0.00000000000E+00 0.  1.
         -6    2    1    2    0  503  0.44531016258E+02 -0.71338889288E+02  0.17380457627E+04  0.17485520934E+04  0.17192760587E+03 0.  0.
        -24    2    3    3    0    0  0.13373891003E+01 -0.43503667977E+01  0.13462257542E+04  0.13486794129E+04  0.81189058422E+02 0.  0.
          6    2    1    2  501    0 -0.44531016258E+02  0.71338889288E+02  0.17007248329E+04  0.17113613275E+04  0.17093971903E+03 0.  0.
         24    2    5    5    0    0  0.24994875572E+02  0.28467353404E+02  0.47957485723E+03  0.48747359929E+03  0.78761236044E+02 0.  0.
          5    1    5    5  501    0 -0.69525891830E+02  0.42871535884E+02  0.12211499756E+04  0.12238877282E+04  0.47000000000E+01 0. -1.
        -11    1    6    6    0    0 -0.13030832661E+01  0.59736966085E+00 -0.30288994113E+01  0.33509861465E+01  0.00000000000E+00 0.  1.
         12    1    6    6    0    0  0.26297958838E+02  0.27869983743E+02  0.48260375664E+03  0.48412261315E+03  0.00000000000E+00 0. -1.
         -5    1    3    3    0  503  0.43193627157E+02 -0.66988522490E+02  0.39182000851E+03  0.39987268054E+03  0.47000000000E+01 0.  1.
         13    1    4    4    0    0 -0.32477850332E+02  0.99101076475E+01  0.31977568773E+03  0.32157349309E+03  0.00000000000E+00 0. -1.
        -14    1    4    4    0    0  0.33815239432E+02 -0.14260474445E+02  0.10264500665E+04  0.10271059198E+04  0.00000000000E+00 0.  1.
</event>
<event>
12    1  0.8133495E-002  0.1928834E+03  0.7818608E-02  0.1156649E+00
         21   -1    0    0  501  502  0.00000000000E+00  0.00000000000E+00  0.20099074751E+03  0.20099074751E+03  0.00000000000E+00 0.  1.
         21   -1    0    0  502  503 -0.00000000000E+00 -0.00000000000E+00 -0.29692770233E+03  0.29692770233E+03  0.00000000000E+00 0. -1.
         -6    2    1    2    0  503  0.46127631344E+02 -0.65113733976E+02 -0.20322273388E+03  0.28018474707E+03  0.17560312127E+03 0.  0.
        -24    2    3    3    0    0 -0.13602998789E+02 -0.49994749941E+02 -0.34536980486E+02  0.10053702164E+03  0.78932712490E+02 0.  0.
          6    2    1    2  501    0 -0.46127631344E+02  0.65113733976E+02  0.10728577906E+03  0.21773370277E+03  0.17184344680E+03 0.  0.
         24    2    5    5    0    0 -0.44470789965E+02 -0.23535326298E+02  0.81715023554E+02  0.12533589680E+03  0.80623688882E+02 0.  0.
          5    1    5    5  501    0 -0.16568413787E+01  0.88649060274E+02  0.25570755502E+02  0.92397805968E+02  0.47000000000E+01 0. -1.
        -13    1    6    6    0    0 -0.27080670838E+02 -0.23112909267E+02  0.96277650272E+02  0.10264967243E+03  0.00000000000E+00 0.  1.
         14    1    6    6    0    0 -0.17390119128E+02 -0.42241703048E+00 -0.14562626718E+02  0.22686224374E+02  0.00000000000E+00 0. -1.
         -5    1    3    3    0  503  0.59730630133E+02 -0.15118984035E+02 -0.16868575340E+03  0.17964772543E+03  0.47000000000E+01 0.  1.
         13    1    4    4    0    0  0.25193336938E+02 -0.86493372331E-01 -0.26913302671E+02  0.36865126717E+02  0.00000000000E+00 0. -1.
        -14    1    4    4    0    0 -0.38796335726E+02 -0.49908256569E+02 -0.76236778147E+01  0.63671894922E+02  0.00000000000E+00 0.  1.
</event>
<event>
12    1  0.8133495E-002  0.1774035E+03  0.7818608E-02  0.1170837E+00
         21   -1    0    0  501  502  0.00000000000E+00  0.00000000000E+00  0.40445182095E+02  0.40445182095E+02  0.00000000000E+00 0. -1.
         21   -1    0    0  502  503 -0.00000000000E+00 -0.00000000000E+00 -0.10223593847E+04  0.10223593847E+04  0.00000000000E+00 0. -1.
         -6    2    1    2    0  503  0.30632027118E+02  0.13803013825E+02 -0.75740126088E+03  0.77790016283E+03  0.17419285025E+03 0.  0.
        -24    2    3    3    0    0  0.82924533358E+02 -0.11493528340E+02 -0.42691121292E+03  0.44231085572E+03  0.79856934176E+02 0.  0.
          6    2    1    2  501    0 -0.30632027118E+02 -0.13803013825E+02 -0.22451294176E+03  0.28490440400E+03  0.17214997567E+03 0.  0.
         24    2    5    5    0    0  0.47303533971E+02 -0.21016771328E+02 -0.14476862571E+03  0.17306864978E+03  0.79469953711E+02 0.  0.
          5    1    5    5  501    0 -0.77935561089E+02  0.72137575032E+01 -0.79744316049E+02  0.11183575422E+03  0.47000000000E+01 0. -1.
        -11    1    6    6    0    0  0.25461874145E+02  0.29192995149E+02 -0.45996425936E+02  0.60134924957E+02  0.00000000000E+00 0.  1.
         12    1    6    6    0    0  0.21841659826E+02 -0.50209766477E+02 -0.98772199775E+02  0.11293372482E+03  0.00000000000E+00 0. -1.
         -5    1    3    3    0  503 -0.52292506241E+02  0.25296542165E+02 -0.33049004795E+03  0.33558930711E+03  0.47000000000E+01 0.  1.
         13    1    4    4    0    0  0.18452647284E+02  0.31932330705E+02 -0.16703454516E+03  0.17105763126E+03  0.00000000000E+00 0. -1.
        -14    1    4    4    0    0  0.64471886074E+02 -0.43425859045E+02 -0.25987666776E+03  0.27125322445E+03  0.00000000000E+00 0.  1.
</event>
<event>
12    1  0.8133495E-002  0.1935242E+03  0.7818608E-02  0.1155825E+00
         21   -1    0    0  503  502  0.00000000000E+00  0.00000000000E+00  0.11449244152E+04  0.11449244152E+04  0.00000000000E+00 0.  1.
         21   -1    0    0  501  503 -0.00000000000E+00 -0.00000000000E+00 -0.11449807116E+03  0.11449807116E+03  0.00000000000E+00 0.  1.
          6    2    1    2  501    0  0.31519456900E+02  0.85031329173E+02 -0.17382533134E+02  0.19430328503E+03  0.17096143135E+03 0.  0.
         24    2    3    3    0    0 -0.29511263156E+01  0.51951988392E+02 -0.73579424036E+02  0.12039358038E+03  0.79830848118E+02 0.  0.
         -6    2    1    2    0  502 -0.31519456900E+02 -0.85031329173E+02  0.10478088772E+04  0.10651192014E+04  0.16837953215E+03 0.  0.
        -24    2    5    5    0    0 -0.84383740040E+02 -0.54092531950E+02  0.77488947285E+03  0.78537122035E+03  0.79420658661E+02 0.  0.
          5    1    3    3  501    0  0.34470583215E+02  0.33079340781E+02  0.56196890902E+02  0.73909704646E+02  0.47000000000E+01 0. -1.
        -13    1    4    4    0    0  0.31031844294E+02  0.52765743532E+02 -0.44846090135E+02  0.75883930125E+02  0.00000000000E+00 0.  1.
         14    1    4    4    0    0 -0.33982970610E+02 -0.81375514010E+00 -0.28733333901E+02  0.44509650257E+02  0.00000000000E+00 0. -1.
         -5    1    5    5    0  502  0.52864283140E+02 -0.30938797223E+02  0.27291940437E+03  0.27974798102E+03  0.47000000000E+01 0.  1.
         13    1    6    6    0    0 -0.79709289505E+01 -0.20230559158E+02  0.38194985950E+02  0.43950747251E+02  0.00000000000E+00 0. -1.
        -14    1    6    6    0    0 -0.76412811089E+02 -0.33861972792E+02  0.73669448690E+03  0.74142047310E+03  0.00000000000E+00 0.  1.
</event>
<event>
12    1  0.8133495E-002  0.1838475E+03  0.7818608E-02  0.1164936E+00
         21   -1    0    0  503  502  0.00000000000E+00  0.00000000000E+00  0.62869782468E+03  0.62869782468E+03  0.00000000000E+00 0. -1.
         21   -1    0    0  501  503 -0.00000000000E+00 -0.00000000000E+00 -0.91487166509E+02  0.91487166509E+02  0.00000000000E+00 0. -1.
          6    2    1    2  501    0  0.35385748870E+02  0.45589511303E+02  0.32933943947E+02  0.18344025540E+03  0.17098282918E+03 0.  0.
         24    2    3    3    0    0  0.70187124023E+02  0.30409210715E+02  0.69867813727E+02  0.13026339976E+03  0.78968914440E+02 0.  0.
         -6    2    1    2    0  502 -0.35385748870E+02 -0.45589511303E+02  0.50427671423E+03  0.53674473579E+03  0.17455472530E+03 0.  0.
        -24    2    5    5    0    0 -0.32961562988E+02 -0.92135477945E+02  0.26983265353E+03  0.29766627318E+03  0.78867853705E+02 0.  0.
          5    1    3    3  501    0 -0.34801375153E+02  0.15180300588E+02 -0.36933869780E+02  0.53176855637E+02  0.47000000000E+01 0. -1.
        -13    1    4    4    0    0  0.29371622507E+01  0.41287204088E+02  0.20919727832E+02  0.46377744189E+02  0.00000000000E+00 0.  1.
         14    1    4    4    0    0  0.67249961772E+02 -0.10877993373E+02  0.48948085895E+02  0.83885655573E+02  0.00000000000E+00 0. -1.
         -5    1    5    5    0  502 -0.24241858820E+01  0.46545966642E+02  0.23444406070E+03  0.23907846261E+03  0.47000000000E+01 0.  1.
         13    1    6    6    0    0 -0.30359689823E+02 -0.95247789037E+02  0.27411029591E+03  0.29177098280E+03  0.00000000000E+00 0. -1.
        -14    1    6    6    0    0 -0.26018731650E+01  0.31123110924E+01 -0.42776423801E+01  0.58952903775E+01  0.00000000000E+00 0.  1.
</event>
<event>
12    1  0.8133495E-002  0.1996283E+03  0.7818608E-02  0.1150205E+00
         21   -1    0    0  503  502  0.00000000000E+00  0.00000000000E+00  0.94526905254E+02  0.94526905254E+02  0.00000000000E+00 0.  1.
         21   -1    0    0  501  503 -0.00000000000E+00 -0.00000000000E+00 -0.46237114451E+03  0.46237114451E+03  0.00000000000E+00 0. -1.
          6    2    1    2  501    0  0.39531969535E+02  0.88400665159E+02 -0.99406225697E+02  0.22236786844E+03  0.17374814241E+03 0.  0.
         24    2    3    3    0    0 -0.47564448147E+02  0.36311641675E+02 -0.54323926396E+02  0.11122131631E+03  0.76407985011E+02 0.  0.
         -6    2    1    2    0  502 -0.39531969535E+02 -0.88400665159E+02 -0.26843801356E+03  0.33453018133E+03  0.17456809811E+03 0.  0.
        -24    2    5    5    0    0 -0.74036414808E+02 -0.11218055910E+03 -0.22448465828E+03  0.27362018592E+03  0.80054829857E+02 0.  0.
          5    1    3    3  501    0  0.87096417682E+02  0.52089023484E+02 -0.45082299301E+02  0.11114655213E+03  0.47000000000E+01 0. -1.
        -11    1    4    4    0    0 -0.55754906062E+02  0.44965166717E+02 -0.19235709499E+02  0.74165276834E+02  0.00000000000E+00 0.  1.
         12    1    4    4    0    0  0.81904579153E+01 -0.86535250421E+01 -0.35088216896E+02  0.37056039473E+02  0.00000000000E+00 0. -1.
         -5    1    5    5    0  502  0.34504445273E+02  0.23779893945E+02 -0.43953355289E+02  0.60909995409E+02  0.47000000000E+01 0.  1.
         13    1    6    6    0    0 -0.14750500342E+02 -0.40006976958E+02 -0.14447176360E+03  0.15063275190E+03  0.00000000000E+00 0. -1.
        -14    1    6    6    0    0 -0.59285914465E+02 -0.72173582146E+02 -0.80012894675E+02  0.12298743403E+03  0.00000000000E+00 0.  1.
</event>
<event>
12    1  0.8133495E-002  0.2459276E+03  0.7818608E-02  0.1115954E+00
         21   -1    0    0  501  502  0.00000000000E+00  0.00000000000E+00  0.70802666154E+02  0.70802666154E+02  0.00000000000E+00 0. -1.
         21   -1    0    0  502  503 -0.00000000000E+00 -0.00000000000E+00 -0.85796394093E+03  0.85796394093E+03  0.00000000000E+00 0.  1.
         -6    2    1    2    0  503  0.14945159890E+03  0.92054829386E+02 -0.42849362298E+03  0.49405180977E+03  0.17225136798E+03 0.  0.
        -24    2    3    3    0    0  0.29931073847E+02  0.26319066738E+02 -0.80310955689E+02  0.12007372725E+03  0.79870444575E+02 0.  0.
          6    2    1    2  501    0 -0.14945159890E+03 -0.92054829386E+02 -0.35866765179E+03  0.43471479732E+03  0.17182723455E+03 0.  0.
         24    2    5    5    0    0 -0.47196307022E+02 -0.10593391968E+03 -0.23327686538E+03  0.27225337672E+03  0.79084249235E+02 0.  0.
          5    1    5    5  501    0 -0.10225529188E+03  0.13879090299E+02 -0.12539078641E+03  0.16246142060E+03  0.47000000000E+01 0. -1.
        -13    1    6    6    0    0  0.11526960737E+02 -0.11747585774E+02 -0.87482597019E+02  0.89017309421E+02  0.00000000000E+00 0.  1.
         14    1    6    6    0    0 -0.58723267759E+02 -0.94186333911E+02 -0.14579426836E+03  0.18323606730E+03  0.00000000000E+00 0. -1.
         -5    1    3    3    0  503  0.11952052505E+03  0.65735762648E+02 -0.34818266730E+03  0.37397808252E+03  0.47000000000E+01 0.  1.
         11    1    4    4    0    0  0.54121699797E+02  0.20139954878E+02 -0.32826874159E+02  0.66425746804E+02  0.00000000000E+00 0. -1.
        -12    1    4    4    0    0 -0.24190625951E+02  0.61791118601E+01 -0.47484081529E+02  0.53647980446E+02  0.00000000000E+00 0.  1.
</event>
<event>
12    1  0.8133495E-002  0.2231030E+03  0.7818608E-02  0.1131657E+00
         21   -1    0    0  501  502  0.00000000000E+00  0.00000000000E+00  0.12708253095E+03  0.12708253095E+03  0.00000000000E+00 0. -1.
         21   -1    0    0  502  503 -0.00000000000E+00 -0.00000000000E+00 -0.39111761116E+03  0.39111761116E+03  0.00000000000E+00 0. -1.
         -6    2    1    2    0  503 -0.11952795090E+03 -0.76288078334E+02 -0.12827225918E+03  0.25703643057E+03  0.17177646003E+03 0.  0.
        -24    2    3    3    0    0 -0.55715807501E+02 -0.61004940101E+02 -0.14814680190E+03  0.18831488076E+03  0.81787318566E+02 0.  0.
          6    2    1    2  501    0  0.11952795090E+03  0.76288078334E+02 -0.13576282103E+03  0.26116371154E+03  0.17224441560E+03 0.  0.
         24    2    5    5    0    0  0.91087856769E+02  0.92743750403E+02 -0.37618874749E+02  0.15755892260E+03  0.80692214403E+02 0.  0.
          5    1    5    5  501    0  0.28440094136E+02 -0.16455672070E+02 -0.98143946282E+02  0.10360478893E+03  0.47000000000E+01 0. -1.
        -11    1    6    6    0    0  0.14278758921E+02  0.37457316800E+02  0.21981492570E+02  0.45717825340E+02  0.00000000000E+00 0.  1.
         12    1    6    6    0    0  0.76809097848E+02  0.55286433603E+02 -0.59600367319E+02  0.11184109726E+03  0.00000000000E+00 0. -1.
         -5    1    3    3    0  503 -0.63812143404E+02 -0.15283138233E+02  0.19874542723E+02  0.68721549812E+02  0.47000000000E+01 0.  1.
         11    1    4    4    0    0 -0.28415292799E+02 -0.78728110486E+02 -0.10753039557E+03  0.13626566045E+03  0.00000000000E+00 0. -1.
        -12    1    4    4    0    0 -0.27300514701E+02  0.17723170385E+02 -0.40616406332E+02  0.52049220310E+02  0.00000000000E+00 0.  1.
</event>
<event>
12    1  0.8133495E-002  0.1857972E+03  0.7818608E-02  0.1163034E+00
         21   -1    0    0  503  502  0.00000000000E+00  0.00000000000E+00  0.40716022581E+03  0.40716022581E+03  0.00000000000E+00 0. -1.
         21   -1    0    0  501  503 -0.00000000000E+00 -0.00000000000E+00 -0.12817093754E+03  0.12817093754E+03  0.00000000000E+00 0. -1.
          6    2    1    2  501    0  0.52950705382E+01 -0.70093381275E+02 -0.19504229846E+02  0.18373623665E+03  0.16863413001E+03 0.  0.
         24    2    3    3    0    0 -0.22859207158E+02  0.20671622134E+02  0.16490288361E+01  0.86265730601E+02  0.80555556398E+02 0.  0.
         -6    2    1    2    0  502 -0.52950705382E+01  0.70093381275E+02  0.29849351811E+03  0.35159492670E+03  0.17198689560E+03 0.  0.
        -24    2    5    5    0    0 -0.23715965411E+02  0.11165101931E+03  0.23038226343E+03  0.26957298049E+03  0.81025967306E+02 0.  0.
          5    1    3    3  501    0  0.28154277696E+02 -0.90765003409E+02 -0.21153258682E+02  0.97470506048E+02  0.47000000000E+01 0. -1.
        -13    1    4    4    0    0  0.17841941687E+02  0.29656237896E+02 -0.19288330129E+02  0.39621547275E+02  0.00000000000E+00 0.  1.
         14    1    4    4    0    0 -0.40701148845E+02 -0.89846157623E+01  0.20937358965E+02  0.46644183326E+02  0.00000000000E+00 0. -1.
         -5    1    5    5    0  502  0.18420894873E+02 -0.41557638032E+02  0.68111254676E+02  0.82021946211E+02  0.47000000000E+01 0.  1.
         13    1    6    6    0    0 -0.33689654823E+02  0.23836939086E+02  0.12713544687E+03  0.13366605536E+03  0.00000000000E+00 0. -1.
        -14    1    6    6    0    0  0.99736894117E+01  0.87814080221E+02  0.10324681657E+03  0.13590692513E+03  0.00000000000E+00 0.  1.
</event>
<event>
12    1  0.8133495E-002  0.1893613E+03  0.7818608E-02  0.1162707E+00
         21   -1    0    0  503  502  0.00000000000E+00  0.00000000000E+00  0.91109480205E+02  0.91109480205E+02  0.00000000000E+00 0.  1.
         21   -1    0    0  501  503 -0.00000000000E+00 -0.00000000000E+00 -0.37105383725E+03  0.37105383725E+03  0.00000000000E+00 0.  1.
          6    2    1    2  501    0  0.24126347868E+02 -0.13084235327E+02 -0.18173904293E+03  0.26246290972E+03  0.18736173936E+03 0.  0.
         24    2    3    3    0    0  0.46489030024E+02 -0.66566775451E+02 -0.63093855643E+02  0.13032948428E+03  0.80078551101E+02 0.  0.
         -6    2    1    2    0  502 -0.24126347868E+02  0.13084235327E+02 -0.98205314115E+02  0.19970040774E+03  0.17170524527E+03 0.  0.
        -24    2    5    5    0    0 -0.27500942189E+01 -0.58178422927E+02 -0.51152347466E+02  0.11154496348E+03  0.80208629924E+02 0.  0.
          5    1    3    3  501    0 -0.22362682155E+02  0.53482540124E+02 -0.11864518729E+03  0.13213342544E+03  0.47000000000E+01 0. -1.
        -11    1    4    4    0    0 -0.16240879207E+02 -0.39073366976E+02 -0.39509971898E+02  0.57892417842E+02  0.00000000000E+00 0.  1.
         12    1    4    4    0    0  0.62729909231E+02 -0.27493408475E+02 -0.23583883745E+02  0.72437066438E+02  0.00000000000E+00 0. -1.
         -5    1    5    5    0  502 -0.21376253649E+02  0.71262658254E+02 -0.47052966649E+02  0.88155444256E+02  0.47000000000E+01 0.  1.
         11    1    6    6    0    0 -0.40169152912E+02 -0.32245035980E+02 -0.38451831389E+02  0.64279440945E+02  0.00000000000E+00 0. -1.
        -12    1    6    6    0    0  0.37419058693E+02 -0.25933386947E+02 -0.12700516077E+02  0.47265522536E+02  0.00000000000E+00 0.  1.
</event>
<event>
12    1  0.8133495E-002  0.1990015E+03  0.7818608E-02  0.1153721E+00
         21   -1    0    0  503  502  0.00000000000E+00  0.00000000000E+00  0.20973379937E+03  0.20973379937E+03  0.00000000000E+00 0. -1.
         21   -1    0    0  501  503 -0.00000000000E+00 -0.00000000000E+00 -0.25841670242E+03  0.25841670242E+03  0.00000000000E+00 0. -1.
          6    2    1    2  501    0 -0.81507822114E+02  0.66658527990E+02 -0.15741794154E+03  0.25373605800E+03  0.16886294559E+03 0.  0.
         24    2    3    3    0    0  0.68673050474E+01 -0.14699378212E+02 -0.47636194020E+02  0.90937427509E+02  0.75744155833E+02 0.  0.
         -6    2    1    2    0  502  0.81507822114E+02 -0.66658527990E+02  0.10873503849E+03  0.21441444379E+03  0.15186625922E+03 0.  0.
        -24    2    5    5    0    0 -0.11153064469E+01 -0.50308949047E+02  0.67081119705E+02  0.12033453597E+03  0.86303474228E+02 0.  0.
          5    1    3    3  501    0 -0.88375127162E+02  0.81357906202E+02 -0.10978174752E+03  0.16279863049E+03  0.47000000000E+01 0. -1.
        -11    1    4    4    0    0 -0.30167735468E+02 -0.24820947400E+02 -0.23636781353E+02  0.45660367123E+02  0.00000000000E+00 0.  1.
         12    1    4    4    0    0  0.37035040515E+02  0.10121569188E+02 -0.23999412667E+02  0.45277060386E+02  0.00000000000E+00 0. -1.
         -5    1    5    5    0  502  0.82623128561E+02 -0.16349578943E+02  0.41653918780E+02  0.94079907816E+02  0.47000000000E+01 0.  1.
         13    1    6    6    0    0  0.23176782072E+02 -0.60226307697E+02  0.68433451714E+02  0.94061196460E+02  0.00000000000E+00 0. -1.
        -14    1    6    6    0    0 -0.24292088519E+02  0.99173586500E+01 -0.13523320087E+01  0.26273339511E+02  0.00000000000E+00 0.  1.
</event>
<event>
12    1  0.8133495E-002  0.3051942E+03  0.7818608E-02  0.1083493E+00
         21   -1    0    0  503  502  0.00000000000E+00  0.00000000000E+00  0.40739437042E+03  0.40739437042E+03  0.00000000000E+00 0.  1.
         21   -1    0    0  501  503 -0.00000000000E+00 -0.00000000000E+00 -0.58061893643E+03  0.58061893643E+03  0.00000000000E+00 0.  1.
          6    2    1    2  501    0  0.22801386310E+03 -0.10731354340E+03 -0.47429743537E+03  0.56400493617E+03  0.17215397893E+03 0.  0.
         24    2    3    3    0    0  0.19008919341E+03 -0.12749923842E+03 -0.45696627971E+03  0.51744098218E+03  0.80851914034E+02 0.  0.
         -6    2    1    2    0  502 -0.22801386310E+03  0.10731354340E+03  0.30107286936E+03  0.42400837068E+03  0.16009905489E+03 0.  0.
        -24    2    5    5    0    0 -0.13842963508E+03  0.80944749236E+02  0.10751255417E+03  0.20904713502E+03  0.80168192323E+02 0.  0.
          5    1    3    3  501    0  0.37924669683E+02  0.20185695021E+02 -0.17331155666E+02  0.46563953986E+02  0.47000000000E+01 0. -1.
        -13    1    4    4    0    0  0.48830831626E+02 -0.10135478993E+02 -0.16629815274E+03  0.17361524604E+03  0.00000000000E+00 0.  1.
         14    1    4    4    0    0  0.14125836179E+03 -0.11736375943E+03 -0.29066812697E+03  0.34382573615E+03  0.00000000000E+00 0. -1.
         -5    1    5    5    0  502 -0.89584228017E+02  0.26368794164E+02  0.19356031520E+03  0.21496123565E+03  0.47000000000E+01 0.  1.
         11    1    6    6    0    0 -0.24166258865E+01  0.41647830911E+01 -0.11641276597E+02  0.12597810115E+02  0.00000000000E+00 0. -1.
        -12    1    6    6    0    0 -0.13601300919E+03  0.76779966145E+02  0.11915383076E+03  0.19644932491E+03  0.00000000000E+00 0.  1.
</event>
<event>
12    1  0.8133495E-002  0.1842149E+03  0.7818608E-02  0.1164912E+00
         21   -1    0    0  503  502  0.00000000000E+00  0.00000000000E+00  0.24748469775E+04  0.24748469775E+04  0.00000000000E+00 0. -1.
         21   -1    0    0  501  503 -0.00000000000E+00 -0.00000000000E+00 -0.42877227150E+02  0.42877227150E+02  0.00000000000E+00 0. -1.
          6    2    1    2  501    0 -0.15348066695E+02  0.59852279742E+02  0.17649307057E+03  0.25511746129E+03  0.17354324117E+03 0.  0.
         24    2    3    3    0    0  0.14631519878E+02 -0.15245459114E+02  0.14623914204E+03  0.16865454332E+03  0.81313977395E+02 0.  0.
         -6    2    1    2    0  502  0.15348066695E+02 -0.59852279742E+02  0.22554766798E+04  0.22626067434E+04  0.16851220586E+03 0.  0.
        -24    2    5    5    0    0  0.38275168327E+02 -0.88433815380E+02  0.12389691876E+04  0.12454282301E+04  0.82227126350E+02 0.  0.
          5    1    3    3  501    0 -0.29979586573E+02  0.75097738856E+02  0.30253928526E+02  0.86462917968E+02  0.47000000000E+01 0. -1.
        -13    1    4    4    0    0  0.28249350299E+02 -0.32936781446E+02  0.36602661958E+02  0.56768056394E+02  0.00000000000E+00 0.  1.
         14    1    4    4    0    0 -0.13617830421E+02  0.17691322333E+02  0.10963648009E+03  0.11188648693E+03  0.00000000000E+00 0. -1.
         -5    1    5    5    0  502 -0.22927101632E+02  0.28581535638E+02  0.10165074922E+04  0.10171785132E+04  0.47000000000E+01 0.  1.
         11    1    6    6    0    0  0.19353467956E+02 -0.91658963971E+02  0.71542476642E+03  0.72153206360E+03  0.00000000000E+00 0. -1.
        -12    1    6    6    0    0  0.18921700371E+02  0.32251485907E+01  0.52354442120E+03  0.52389616653E+03  0.00000000000E+00 0.  1.
</event>
<event>
12    1  0.8133495E-002  0.1879184E+03  0.7818608E-02  0.1160409E+00
         21   -1    0    0  501  502  0.00000000000E+00  0.00000000000E+00  0.19881726877E+02  0.19881726877E+02  0.00000000000E+00 0.  1.
         21   -1    0    0  502  503 -0.00000000000E+00 -0.00000000000E+00 -0.19179930415E+04  0.19179930415E+04  0.00000000000E+00 0.  1.
         -6    2    1    2    0  503  0.20707307230E+02 -0.72333195086E+02 -0.68399766763E+03  0.70934203428E+03  0.17219880543E+03 0.  0.
        -24    2    3    3    0    0  0.58925181820E+02 -0.69760773469E+02 -0.29191940727E+03  0.31536909671E+03  0.76824372768E+02 0.  0.
          6    2    1    2  501    0 -0.20707307230E+02  0.72333195086E+02 -0.12141136470E+04  0.12285327341E+04  0.17192977418E+03 0.  0.
         24    2    5    5    0    0 -0.69345710724E+02  0.87899279767E+01 -0.60453784846E+03  0.61370903152E+03  0.79288553542E+02 0.  0.
          5    1    5    5  501    0  0.48638403494E+02  0.63543267109E+02 -0.60957579852E+03  0.61482370256E+03  0.47000000000E+01 0. -1.
        -13    1    6    6    0    0 -0.25437544299E+01  0.32803351538E+02 -0.24800807673E+03  0.25018100784E+03  0.00000000000E+00 0.  1.
         14    1    6    6    0    0 -0.66801956294E+02 -0.24013423561E+02 -0.35652977173E+03  0.36352802369E+03  0.00000000000E+00 0. -1.
         -5    1    3    3    0  503 -0.38217874590E+02 -0.25724216176E+01 -0.39207826036E+03  0.39397293757E+03  0.47000000000E+01 0.  1.
         13    1    4    4    0    0  0.54717708730E+02 -0.41557327764E+02 -0.99924080248E+02  0.12126772428E+03  0.00000000000E+00 0. -1.
        -14    1    4    4    0    0  0.42074730901E+01 -0.28203445705E+02 -0.19199532702E+03  0.19410137243E+03  0.00000000000E+00 0.  1.
</event>
<event>
12    1  0.8133495E-002  0.2358196E+03  0.7818608E-02  0.1123319E+00
         21   -1    0    0  503  502  0.00000000000E+00  0.00000000000E+00  0.71048403976E+03  0.71048403976E+03  0.00000000000E+00 0.  1.
         21   -1    0    0  501  503 -0.00000000000E+00 -0.00000000000E+00 -0.20383835941E+03  0.20383835941E+03  0.00000000000E+00 0.  1.
          6    2    1    2  501    0  0.11604312050E+03  0.10905812126E+03 -0.10658066768E+03  0.25878622273E+03  0.17392869437E+03 0.  0.
         24    2    3    3    0    0  0.13309518964E+03  0.52195696253E+02 -0.74616210328E+02  0.19119979678E+03  0.10271836853E+03 0.  0.
         -6    2    1    2    0  502 -0.11604312050E+03 -0.10905812126E+03  0.61322634803E+03  0.65553617643E+03  0.16828976520E+03 0.  0.
        -24    2    5    5    0    0 -0.93889695925E+02 -0.27662147619E+02  0.21486187624E+03  0.24831090570E+03  0.76890900729E+02 0.  0.
          5    1    3    3  501    0 -0.17052069134E+02  0.56862425003E+02 -0.31964457347E+02  0.67586425949E+02  0.47000000000E+01 0. -1.
        -13    1    4    4    0    0  0.91415476203E+02  0.78031173721E+02 -0.75893064464E+02  0.14214573717E+03  0.00000000000E+00 0.  1.
         14    1    4    4    0    0  0.41679713435E+02 -0.25835477469E+02  0.12768541360E+01  0.49054059613E+02  0.00000000000E+00 0. -1.
         -5    1    5    5    0  502 -0.22153424578E+02 -0.81395973637E+02  0.39836447179E+03  0.40722527074E+03  0.47000000000E+01 0.  1.
         13    1    6    6    0    0  0.11696239180E+02 -0.12634384467E+02  0.39099954861E+02  0.42722782586E+02  0.00000000000E+00 0. -1.
        -14    1    6    6    0    0 -0.10558593511E+03 -0.15027763152E+02  0.17576192138E+03  0.20558812311E+03  0.00000000000E+00 0.  1.
</event>
<event>
12    1  0.8133495E-002  0.3040917E+03  0.7818608E-02  0.1083288E+00
         21   -1    0    0  501  502  0.00000000000E+00  0.00000000000E+00  0.92782851878E+02  0.92782851878E+02  0.00000000000E+00 0.  1.
         21   -1    0    0  502  503 -0.00000000000E+00 -0.00000000000E+00 -0.99685802143E+03  0.99685802143E+03  0.00000000000E+00 0. -1.
         -6    2    1    2    0  503 -0.18076067947E+02  0.25023238139E+03 -0.47723000144E+03  0.56555255790E+03  0.17075781840E+03 0.  0.
        -24    2    3    3    0    0 -0.63059805211E-01  0.14345293889E+03 -0.39997182053E+03  0.43244645616E+03  0.80335114201E+02 0.  0.
          6    2    1    2  501    0  0.18076067947E+02 -0.25023238139E+03 -0.42684516810E+03  0.52408831540E+03  0.17183938977E+03 0.  0.
         24    2    5    5    0    0  0.39986225988E+02 -0.10241388359E+03 -0.11442248943E+03  0.17773534014E+03  0.80061496541E+02 0.  0.
          5    1    5    5  501    0 -0.21910158041E+02 -0.14781849780E+03 -0.31242267868E+03  0.34635297526E+03  0.47000000000E+01 0. -1.
        -11    1    6    6    0    0 -0.22240400233E+02 -0.35039182918E+02 -0.53162333971E+02  0.67443409577E+02  0.00000000000E+00 0.  1.
         12    1    6    6    0    0  0.62226626222E+02 -0.67374700674E+02 -0.61260155455E+02  0.11029193057E+03  0.00000000000E+00 0. -1.
         -5    1    3    3    0  503 -0.18013008142E+02  0.10677944250E+03 -0.77258180910E+02  0.13310610174E+03  0.47000000000E+01 0.  1.
         11    1    4    4    0    0  0.37558558603E+02  0.47331233742E+02 -0.12797672127E+03  0.14152361004E+03  0.00000000000E+00 0. -1.
        -12    1    4    4    0    0 -0.37621618408E+02  0.96121705147E+02 -0.27199509926E+03  0.29092284612E+03  0.00000000000E+00 0.  1.
</event>
<event>
12    1  0.8133495E-002  0.1889352E+03  0.7818608E-02  0.1159939E+00
         21   -1    0    0  503  502  0.00000000000E+00  0.00000000000E+00  0.12609919465E+03  0.12609919465E+03  0.00000000000E+00 0.  1.
         21   -1    0    0  501  503 -0.00000000000E+00 -0.00000000000E+00 -0.31173978793E+03  0.31173978793E+03  0.00000000000E+00 0.  1.
          6    2    1    2  501    0 -0.54341822511E+02  0.56586455449E+02 -0.16347613352E+03  0.24984183434E+03  0.17187622099E+03 0.  0.
         24    2    3    3    0    0 -0.22262181434E+01 -0.24697800908E+02 -0.11514763291E+03  0.14176361951E+03  0.78886050949E+02 0.  0.
         -6    2    1    2    0  502  0.54341822511E+02 -0.56586455449E+02 -0.22164459761E+02  0.18799714824E+03  0.16940071976E+03 0.  0.
        -24    2    5    5    0    0  0.43186547922E+02 -0.48130776860E+02  0.51497056050E+02  0.11287027180E+03  0.76851167018E+02 0.  0.
          5    1    3    3  501    0 -0.52115604368E+02  0.81284256357E+02 -0.48328500612E+02  0.10807821483E+03  0.47000000000E+01 0. -1.
        -13    1    4    4    0    0 -0.13711319322E+02  0.63690280222E+01 -0.10645085823E+03  0.10751906814E+03  0.00000000000E+00 0.  1.
         14    1    4    4    0    0  0.11485101179E+02 -0.31066828930E+02 -0.86967746836E+01  0.34244551373E+02  0.00000000000E+00 0. -1.
         -5    1    5    5    0  502  0.11155274589E+02 -0.84556785893E+01 -0.73661515811E+02  0.75126876437E+02  0.47000000000E+01 0.  1.
         11    1    6    6    0    0  0.13778778930E+02  0.20469719950E+02  0.57778257859E+01  0.25342601572E+02  0.00000000000E+00 0. -1.
        -12    1    6    6    0    0  0.29407768992E+02 -0.68600496810E+02  0.45719230264E+02  0.87527670229E+02  0.00000000000E+00 0.  1.
</event>
<event>
12    1  0.8133495E-002  0.1880475E+03  0.7818608E-02  0.1160451E+00
         21   -1    0    0  503  502  0.00000000000E+00  0.00000000000E+00  0.73357969777E+03  0.73357969777E+03  0.00000000000E+00 0. -1.
         21   -1    0    0  501  503 -0.00000000000E+00 -0.00000000000E+00 -0.57589647022E+02  0.57589647022E+02  0.00000000000E+00 0. -1.
          6    2    1    2  501    0 -0.68712498173E+02  0.16112024568E+02  0.17553940158E+03  0.25655479064E+03  0.17327802616E+03 0.  0.
         24    2    3    3    0    0 -0.76204634691E+01  0.24041187788E+02  0.14938348456E+02  0.84479526295E+02  0.79231218182E+02 0.  0.
         -6    2    1    2    0  502  0.68712498173E+02 -0.16112024568E+02  0.50045064916E+03  0.53461455415E+03  0.17430107435E+03 0.  0.
        -24    2    5    5    0    0  0.52225791657E+02 -0.72244149075E+02  0.40778190358E+03  0.42492310826E+03  0.79541289007E+02 0.  0.
          5    1    3    3  501    0 -0.61092034704E+02 -0.79291632207E+01  0.16060105313E+03  0.17207526434E+03  0.47000000000E+01 0. -1.
        -11    1    4    4    0    0  0.14160658164E+02  0.48408114458E+02  0.10147657296E+02  0.51447494920E+02  0.00000000000E+00 0.  1.
         12    1    4    4    0    0 -0.21781121633E+02 -0.24366926670E+02  0.47906911601E+01  0.33032031374E+02  0.00000000000E+00 0. -1.
         -5    1    5    5    0  502  0.16486706517E+02  0.56132124507E+02  0.92668745581E+02  0.10969144589E+03  0.47000000000E+01 0.  1.
         13    1    6    6    0    0  0.41679409724E+01  0.13921145801E+02  0.19599647426E+02  0.24399102680E+02  0.00000000000E+00 0. -1.
        -14    1    6    6    0    0  0.48057850685E+02 -0.86165294876E+02  0.38818225616E+03  0.40052400558E+03  0.00000000000E+00 0.  1.
</event>
<event>
12    1  0.8133495E-002  0.1738346E+03  0.7818608E-02  0.1174575E+00
         21   -1    0    0  503  502  0.00000000000E+00  0.00000000000E+00  0.15605550139E+03  0.15605550139E+03  0.00000000000E+00 0. -1.
         21   -1    0    0  501  503 -0.00000000000E+00 -0.00000000000E+00 -0.32508102671E+03  0.32508102671E+03  0.00000000000E+00 0. -1.
          6    2    1    2  501    0  0.18272726678E+02  0.97566117604E+01 -0.23953678974E+03  0.29596679365E+03  0.17259601760E+03 0.  0.
         24    2    3    3    0    0 -0.46957132871E+02 -0.23487305969E+02 -0.16935686723E+03  0.19444140684E+03  0.79806555801E+02 0.  0.
         -6    2    1    2    0  502 -0.18272726678E+02 -0.97566117604E+01  0.70511264415E+02  0.18516973446E+03  0.16996149016E+03 0.  0.
        -24    2    5    5    0    0 -0.68569517325E+02 -0.47525309238E+01  0.79959213105E+02  0.13353484597E+03  0.81937256922E+02 0.  0.
          5    1    3    3  501    0  0.65229859549E+02  0.33243917729E+02 -0.70179922508E+02  0.10152538681E+03  0.47000000000E+01 0. -1.
        -13    1    4    4    0    0 -0.33623747836E+02 -0.34408582024E+02 -0.17051056044E+03  0.17716759907E+03  0.00000000000E+00 0.  1.
         14    1    4    4    0    0 -0.13333385035E+02  0.10921276055E+02  0.11536932157E+01  0.17273807779E+02  0.00000000000E+00 0. -1.
         -5    1    5    5    0  502  0.50296790647E+02 -0.50040808365E+01 -0.94479486899E+01  0.51634888485E+02  0.47000000000E+01 0.  1.
         11    1    6    6    0    0 -0.35244319068E+02  0.15115946926E+02 -0.63823354752E+01  0.38876575006E+02  0.00000000000E+00 0. -1.
        -12    1    6    6    0    0 -0.33325198257E+02 -0.19868477850E+02  0.86341548581E+02  0.94658270966E+02  0.00000000000E+00 0.  1.
</event>
<event>
12    1  0.8133495E-002  0.2943180E+03  0.7818608E-02  0.1088222E+00
         21   -1    0    0  501  502  0.00000000000E+00  0.00000000000E+00  0.21819257613E+03  0.21819257613E+03  0.00000000000E+00 0.  1.
         21   -1    0    0  502  503 -0.00000000000E+00 -0.00000000000E+00 -0.39803153826E+03  0.39803153826E+03  0.00000000000E+00 0. -1.
         -6    2    1    2    0  503  0.23678018605E+03 -0.27983733564E+02 -0.67201376988E+02  0.30108869594E+03  0.17114447670E+03 0.  0.
        -24    2    3    3    0    0  0.19458190753E+03 -0.12114159640E+02  0.97103511537E+01  0.21181360416E+03  0.82230410356E+02 0.  0.
          6    2    1    2  501    0 -0.23678018605E+03  0.27983733564E+02 -0.11263758514E+03  0.31513541844E+03  0.17255480439E+03 0.  0.
         24    2    5    5    0    0 -0.13285084660E+03 -0.75358500114E+01  0.35549551578E+01  0.15517997203E+03  0.79762456923E+02 0.  0.
          5    1    5    5  501    0 -0.10392933945E+03  0.35519583575E+02 -0.11619254030E+03  0.15995544641E+03  0.47000000000E+01 0. -1.
        -13    1    6    6    0    0 -0.51483383923E+02 -0.41023494065E+02 -0.84746588509E+01  0.66372326523E+02  0.00000000000E+00 0.  1.
         14    1    6    6    0    0 -0.81367462679E+02  0.33487644053E+02  0.12029614009E+02  0.88807645506E+02  0.00000000000E+00 0. -1.
         -5    1    3    3    0  503  0.42198278523E+02 -0.15869573924E+02 -0.76911728142E+02  0.89275091782E+02  0.47000000000E+01 0.  1.
         11    1    4    4    0    0  0.84337309507E+01 -0.23049995105E+02 -0.38828211349E+01  0.24849675894E+02  0.00000000000E+00 0. -1.
        -12    1    4    4    0    0  0.18614817658E+03  0.10935835465E+02  0.13593172289E+02  0.18696392827E+03  0.00000000000E+00 0.  1.
</event>
<event>
12    1  0.8133495E-002  0.2232069E+03  0.7818608E-02  0.1131971E+00
         21   -1    0    0  503  502  0.00000000000E+00  0.00000000000E+00  0.28449561084E+03  0.28449561084E+03  0.00000000000E+00 0.  1.
         21   -1    0    0  501  503 -0.00000000000E+00 -0.00000000000E+00 -0.62070740814E+03  0.62070740814E+03  0.00000000000E+00 0.  1.
          6    2    1    2  501    0 -0.13641949905E+03 -0.19904145303E+02 -0.55215194461E+03  0.59463662281E+03  0.17237890976E+03 0.  0.
         24    2    3    3    0    0 -0.20983829880E+01 -0.97373471627E+01 -0.15030716940E+03  0.17078896225E+03  0.80482329179E+02 0.  0.
         -6    2    1    2    0  502  0.13641949905E+03  0.19904145303E+02  0.21594014731E+03  0.31056639617E+03  0.17554168875E+03 0.  0.
        -24    2    5    5    0    0  0.57195228868E+02  0.41455720769E+02  0.35846561100E+02  0.11258471726E+03  0.80002947616E+02 0.  0.
          5    1    3    3  501    0 -0.13432111606E+03 -0.10166798141E+02 -0.40184477521E+03  0.42384766056E+03  0.47000000000E+01 0. -1.
        -13    1    4    4    0    0 -0.59421607789E+01  0.46714943165E+01 -0.15497773533E+03  0.15516194953E+03  0.00000000000E+00 0.  1.
         14    1    4    4    0    0  0.38437777909E+01 -0.14408841479E+02  0.46705659238E+01  0.15627012719E+02  0.00000000000E+00 0. -1.
         -5    1    5    5    0  502  0.79224270179E+02 -0.21551575466E+02  0.18009358621E+03  0.19798167891E+03  0.47000000000E+01 0.  1.
         11    1    6    6    0    0 -0.18170927440E+02  0.22669456007E+02  0.96872703147E+01  0.30625643599E+02  0.00000000000E+00 0. -1.
        -12    1    6    6    0    0  0.75366156308E+02  0.18786264762E+02  0.26159290786E+02  0.81959073657E+02  0.00000000000E+00 0.  1.
</event>
<event>
12    1  0.8133495E-002  0.1906047E+03  0.7818608E-02  0.1158423E+00
         21   -1    0    0  501  502  0.00000000000E+00  0.00000000000E+00  0.48369735599E+02  0.48369735599E+02  0.00000000000E+00 0. -1.
         21   -1    0    0  502  503 -0.00000000000E+00 -0.00000000000E+00 -0.86941494128E+03  0.86941494128E+03  0.00000000000E+00 0. -1.
         -6    2    1    2    0  503 -0.79449638696E+02  0.63202124531E+01 -0.58805361948E+03  0.61817247528E+03  0.17314144401E+03 0.  0.
        -24    2    3    3    0    0 -0.10560238400E+03  0.33211827013E+01 -0.57236398370E+03  0.58716900874E+03  0.77485619492E+02 0.  0.
          6    2    1    2  501    0  0.79449638696E+02 -0.63202124531E+01 -0.23299158620E+03  0.29961220160E+03  0.17067572157E+03 0.  0.
         24    2    5    5    0    0 -0.10326297032E+02  0.31202432914E+02 -0.12779886756E+03  0.15624112500E+03  0.83657123791E+02 0.  0.
          5    1    5    5  501    0  0.89775935728E+02 -0.37522645367E+02 -0.10519271864E+03  0.14337107660E+03  0.47000000000E+01 0. -1.
        -11    1    6    6    0    0  0.15704034090E+02  0.23431607420E+02 -0.12588693169E+03  0.12900843571E+03  0.00000000000E+00 0.  1.
         12    1    6    6    0    0 -0.26030331122E+02  0.77708254936E+01 -0.19119358671E+01  0.27232689290E+02  0.00000000000E+00 0. -1.
         -5    1    3    3    0  503  0.26152745305E+02  0.29990297519E+01 -0.15689635785E+02  0.31003466540E+02  0.47000000000E+01 0.  1.
         13    1    4    4    0    0 -0.98858573183E+02 -0.22931924948E+02 -0.39925461050E+03  0.41195040318E+03  0.00000000000E+00 0. -1.
        -14    1    4    4    0    0 -0.67438108181E+01  0.26253107650E+02 -0.17310937320E+03  0.17521860556E+03  0.00000000000E+00 0.  1.
</event>
<event>
12    1  0.8133495E-002  0.1906019E+03  0.7818608E-02  0.1157932E+00
         21   -1    0    0  501  502  0.00000000000E+00  0.00000000000E+00  0.23201139979E+04  0.23201139979E+04  0.00000000000E+00 0. -1.
         21   -1    0    0  502  503 -0.00000000000E+00 -0.00000000000E+00 -0.19654363902E+02  0.19654363902E+02  0.00000000000E+00 0. -1.
         -6    2    1    2    0  503 -0.51036901659E+02 -0.64043899351E+02  0.62229474622E+03  0.65081410604E+03  0.17205191970E+03 0.  0.
        -24    2    3    3    0    0 -0.94130272859E+02 -0.37804545809E+02  0.33539552781E+03  0.35947445230E+03  0.80262256575E+02 0.  0.
          6    2    1    2  501    0  0.51036901659E+02  0.64043899351E+02  0.16781648878E+04  0.16889542558E+04  0.17211246647E+03 0.  0.
         24    2    5    5    0    0 -0.12092810737E+02  0.81334965576E+02  0.13089254595E+04  0.13139286740E+04  0.79756436835E+02 0.  0.
          5    1    5    5  501    0  0.63129712395E+02 -0.17291066225E+02  0.36923942827E+03  0.37502558172E+03  0.47000000000E+01 0. -1.
        -13    1    6    6    0    0 -0.30627167920E+02  0.37316007420E+01  0.23049811049E+03  0.23255392321E+03  0.00000000000E+00 0.  1.
         14    1    6    6    0    0  0.18534357183E+02  0.77603364834E+02  0.10784273490E+04  0.10813747508E+04  0.00000000000E+00 0. -1.
         -5    1    3    3    0  503  0.43093371200E+02 -0.26239353542E+02  0.28689921841E+03  0.29133965374E+03  0.47000000000E+01 0.  1.
         13    1    4    4    0    0 -0.74147896856E+02 -0.13594364261E+02  0.11937282005E+03  0.14118281594E+03  0.00000000000E+00 0. -1.
        -14    1    4    4    0    0 -0.19982376002E+02 -0.24210181548E+02  0.21602270775E+03  0.21829163636E+03  0.00000000000E+00 0.  1.
</event>
<event>
12    1  0.8133495E-002  0.1945623E+03  0.7818608E-02  0.1154761E+00
         21   -1    0    0  503  502  0.00000000000E+00  0.00000000000E+00  0.83025441708E+02  0.83025441708E+02  0.00000000000E+00 0. -1.
         21   -1    0    0  501  503 -0.00000000000E+00 -0.00000000000E+00 -0.79142751874E+03  0.79142751874E+03  0.00000000000E+00 0.  1.
          6    2    1    2  501    0  0.80362369947E+02  0.32933220581E+02 -0.63961644003E+03  0.66808935751E+03  0.17231219267E+03 0.  0.
         24    2    3    3    0    0 -0.79667744809E+01 -0.17065061179E+02 -0.39567745963E+03  0.40383534696E+03  0.78534384740E+02 0.  0.
         -6    2    1    2    0  502 -0.80362369947E+02 -0.32933220581E+02 -0.68785637001E+02  0.20636360293E+03  0.17410274334E+03 0.  0.
        -24    2    5    5    0    0 -0.30847048939E+02  0.47608968666E+02 -0.50764336151E+02  0.11000142909E+03  0.79404925866E+02 0.  0.
          5    1    3    3  501    0  0.88329144428E+02  0.49998281760E+02 -0.24393898041E+03  0.26425401056E+03  0.47000000000E+01 0. -1.
        -11    1    4    4    0    0  0.35273157874E+01  0.29993281356E+02 -0.19909015952E+03  0.20136765008E+03  0.00000000000E+00 0.  1.
         12    1    4    4    0    0 -0.11494090268E+02 -0.47058342535E+02 -0.19658730011E+03  0.20246769688E+03  0.00000000000E+00 0. -1.
         -5    1    5    5    0  502 -0.49515321009E+02 -0.80542189247E+02 -0.18021300850E+02  0.96362173842E+02  0.47000000000E+01 0.  1.
         13    1    6    6    0    0  0.23034213191E+02  0.35488347819E+02 -0.23791184774E+02  0.48538832714E+02  0.00000000000E+00 0. -1.
        -14    1    6    6    0    0 -0.53881262130E+02  0.12120620847E+02 -0.26973151377E+02  0.61462596379E+02  0.00000000000E+00 0.  1.
</event>
<event>
12    1  0.8133495E-002  0.1800296E+03  0.7818608E-02  0.1168197E+00
         21   -1    0    0  501  502  0.00000000000E+00  0.00000000000E+00  0.49371774879E+02  0.49371774879E+02  0.00000000000E+00 0. -1.
         21   -1    0    0  502  503 -0.00000000000E+00 -0.00000000000E+00 -0.15087483303E+04  0.15087483303E+04  0.00000000000E+00 0. -1.
         -6    2    1    2    0  503  0.43314162510E+02 -0.34956777184E+02 -0.13158661127E+04  0.13278899580E+04  0.16938128863E+03 0.  0.
        -24    2    3    3    0    0  0.33800035486E+02 -0.33766554008E+02 -0.35479390856E+03  0.36675843375E+03  0.79689451051E+02 0.  0.
          6    2    1    2  501    0 -0.43314162510E+02  0.34956777184E+02 -0.14351044270E+03  0.23023014720E+03  0.17120917198E+03 0.  0.
         24    2    5    5    0    0  0.35066490780E+02  0.32179381357E+02 -0.39377900691E+02  0.99781241331E+02  0.78361378871E+02 0.  0.
          5    1    5    5  501    0 -0.78380653290E+02  0.27773958275E+01 -0.10413254201E+03  0.13044890587E+03  0.47000000000E+01 0. -1.
        -13    1    6    6    0    0  0.53885813790E+02  0.13636329487E+02 -0.41392191442E+01  0.55738348960E+02  0.00000000000E+00 0.  1.
         14    1    6    6    0    0 -0.18819323010E+02  0.18543051869E+02 -0.35238681547E+02  0.44042892370E+02  0.00000000000E+00 0. -1.
         -5    1    3    3    0  503  0.95141270240E+01 -0.11902231760E+01 -0.96107220417E+03  0.96113152424E+03  0.47000000000E+01 0.  1.
         13    1    4    4    0    0  0.13719617357E+02 -0.24349197115E+02 -0.33744405401E+03  0.33859946971E+03  0.00000000000E+00 0. -1.
        -14    1    4    4    0    0  0.20080418130E+02 -0.94173568930E+01 -0.17349854551E+02  0.28158964044E+02  0.00000000000E+00 0.  1.
</event>
<event>
12    1  0.8133495E-002  0.2016187E+03  0.7818608E-02  0.1148954E+00
         21   -1    0    0  501  502  0.00000000000E+00  0.00000000000E+00  0.86063125306E+03  0.86063125306E+03  0.00000000000E+00 0. -1.
         21   -1    0    0  502  503 -0.00000000000E+00 -0.00000000000E+00 -0.51204455075E+02  0.51204455075E+02  0.00000000000E+00 0. -1.
         -6    2    1    2    0  503  0.10261224754E+03 -0.77474792599E+01  0.27044557388E+03  0.33732910027E+03  0.17338055449E+03 0.  0.
        -24    2    3    3    0    0  0.11603003174E+03 -0.40589905730E+01  0.11905586036E+03  0.18522855050E+03  0.81583542231E+02 0.  0.
          6    2    1    2  501    0 -0.10261224754E+03  0.77474792599E+01  0.53898122411E+03  0.57450660787E+03  0.17019925313E+03 0.  0.
         24    2    5    5    0    0  0.98726138831E+01 -0.17862529546E+02  0.15385182558E+03  0.17244260773E+03  0.75163357157E+02 0.  0.
          5    1    5    5  501    0 -0.11248486142E+03  0.25610008806E+02  0.38512939852E+03  0.40206400014E+03  0.47000000000E+01 0. -1.
        -13    1    6    6    0    0 -0.31140911164E+02 -0.18059366783E+02  0.84869933443E+02  0.92188950961E+02  0.00000000000E+00 0.  1.
         14    1    6    6    0    0  0.41013525047E+02  0.19683723665E+00  0.68981892138E+02  0.80253656768E+02  0.00000000000E+00 0. -1.
         -5    1    3    3    0  503 -0.13417784199E+02 -0.36884886869E+01  0.15138971352E+03  0.15210054977E+03  0.47000000000E+01 0.  1.
         13    1    4    4    0    0  0.50160480188E+02 -0.34028398345E+02  0.22702344147E+02  0.64725590738E+02  0.00000000000E+00 0. -1.
        -14    1    4    4    0    0  0.65869551549E+02  0.29969407772E+02  0.96353516216E+02  0.12050295976E+03  0.00000000000E+00 0.  1.
</event>
<event>
12    1  0.8133495E-002  0.2215703E+03  0.7818608E-02  0.1133337E+00
         21   -1    0    0  501  502  0.00000000000E+00  0.00000000000E+00  0.58824170197E+03  0.58824170197E+03  0.00000000000E+00 0.  1.
         21   -1    0    0  502  503 -0.00000000000E+00 -0.00000000000E+00 -0.21862128636E+03  0.21862128636E+03  0.00000000000E+00 0.  1.
         -6    2    1    2    0  503 -0.58396491128E+02 -0.12440552560E+03 -0.13438836296E+03  0.25630123244E+03  0.16953821008E+03 0.  0.
        -24    2    3    3    0    0 -0.68787174087E+02 -0.10614165597E+03 -0.16247449362E+03  0.22091117788E+03  0.80037872197E+02 0.  0.
          6    2    1    2  501    0  0.58396491128E+02  0.12440552560E+03  0.50400877856E+03  0.55056175589E+03  0.17380021060E+03 0.  0.
         24    2    5    5    0    0  0.29048985430E+01  0.13416953735E+03  0.42063587707E+03  0.44982554852E+03  0.86014997719E+02 0.  0.
          5    1    5    5  501    0  0.55491592585E+02 -0.97640117455E+01  0.83372901491E+02  0.10073620737E+03  0.47000000000E+01 0. -1.
        -13    1    6    6    0    0  0.41759007822E+02  0.90674171973E+02  0.29179589040E+03  0.30839984088E+03  0.00000000000E+00 0.  1.
         14    1    6    6    0    0 -0.38854109279E+02  0.43495365372E+02  0.12883998667E+03  0.14142570764E+03  0.00000000000E+00 0. -1.
         -5    1    3    3    0  503  0.10390682960E+02 -0.18263869630E+02  0.28086130660E+02  0.35390054559E+02  0.47000000000E+01 0.  1.
         11    1    4    4    0    0  0.12922482814E+02 -0.90526470096E+01 -0.46123891282E+02  0.48747864845E+02  0.00000000000E+00 0. -1.
        -12    1    4    4    0    0 -0.81709656902E+02 -0.97089008961E+02 -0.11635060234E+03  0.17216331304E+03  0.00000000000E+00 0.  1.
</event>
<event>
12    1  0.8133495E-002  0.1722972E+03  0.7818608E-02  0.1176922E+00
         21   -1    0    0  503  502  0.00000000000E+00  0.00000000000E+00  0.70284176912E+03  0.70284176912E+03  0.00000000000E+00 0. -1.
         21   -1    0    0  501  503 -0.00000000000E+00 -0.00000000000E+00 -0.82393575997E+02  0.82393575997E+02  0.00000000000E+00 0. -1.
          6    2    1    2  501    0 -0.55028178386E+01 -0.19575645259E+02  0.29052018457E+02  0.16925177134E+03  0.16549518251E+03 0.  0.
         24    2    3    3    0    0  0.23533440780E+02  0.44760160751E+02  0.76267468768E+01  0.95337412035E+02  0.80459679593E+02 0.  0.
         -6    2    1    2    0  502  0.55028178386E+01  0.19575645259E+02  0.59139617467E+03  0.61598357378E+03  0.17109307660E+03 0.  0.
        -24    2    5    5    0    0  0.45289413688E+02  0.40118097515E+02  0.34642062002E+03  0.36690511640E+03  0.10464953763E+03 0.  0.
          5    1    3    3  501    0 -0.29036258618E+02 -0.64335806010E+02  0.21425271580E+02  0.73914359307E+02  0.47000000000E+01 0. -1.
        -11    1    4    4    0    0 -0.15162226151E+02 -0.76665600114E+01  0.22799153617E+02  0.28433618305E+02  0.00000000000E+00 0.  1.
         12    1    4    4    0    0  0.38695666931E+02  0.52426720763E+02 -0.15172406740E+02  0.66903793730E+02  0.00000000000E+00 0. -1.
         -5    1    5    5    0  502 -0.39786595849E+02 -0.20542452256E+02  0.24497555465E+03  0.24907845738E+03  0.47000000000E+01 0.  1.
         11    1    6    6    0    0  0.52920225071E+02  0.51066706175E+01  0.31435565995E+03  0.31881986960E+03  0.00000000000E+00 0. -1.
        -12    1    6    6    0    0 -0.76308113833E+01  0.35011426897E+02  0.32064960061E+02  0.48085246796E+02  0.00000000000E+00 0.  1.
</event>
<event>
12    1  0.8133495E-002  0.2232576E+03  0.7818608E-02  0.1131861E+00
         21   -1    0    0  501  502  0.00000000000E+00  0.00000000000E+00  0.48058781269E+03  0.48058781269E+03  0.00000000000E+00 0. -1.
         21   -1    0    0  502  503 -0.00000000000E+00 -0.00000000000E+00 -0.10986761770E+03  0.10986761770E+03  0.00000000000E+00 0.  1.
         -6    2    1    2    0  503 -0.35421239107E+02  0.13907659874E+03  0.11102228656E+03  0.24933891611E+03  0.17101749173E+03 0.  0.
        -24    2    3    3    0    0  0.33556340070E+02  0.52623852595E+02  0.14042967198E+02  0.10216873527E+03  0.79661456913E+02 0.  0.
          6    2    1    2  501    0  0.35421239107E+02 -0.13907659874E+03  0.25969790844E+03  0.34111651428E+03  0.16828698158E+03 0.  0.
         24    2    5    5    0    0  0.69935747407E+01 -0.14136999070E+03  0.13079456227E+03  0.20901218278E+03  0.80898026381E+02 0.  0.
          5    1    5    5  501    0  0.28427664367E+02  0.22933919595E+01  0.12890334617E+03  0.13210433150E+03  0.47000000000E+01 0. -1.
        -13    1    6    6    0    0 -0.32527900346E+02 -0.69478468168E+02  0.87082865176E+02  0.11605493202E+03  0.00000000000E+00 0.  1.
         14    1    6    6    0    0  0.39521475087E+02 -0.71891522531E+02  0.43711697092E+02  0.92957250753E+02  0.00000000000E+00 0. -1.
         -5    1    3    3    0  503 -0.68977579178E+02  0.86452746144E+02  0.96979319361E+02  0.14717018084E+03  0.47000000000E+01 0.  1.
         13    1    4    4    0    0 -0.97390612150E+01 -0.14137645765E+00 -0.22665163808E+02  0.24669393003E+02  0.00000000000E+00 0. -1.
        -14    1    4    4    0    0  0.43295401285E+02  0.52765229053E+02  0.36708131006E+02  0.77499342264E+02  0.00000000000E+00 0.  1.
</event>
<event>
12    1  0.8133495E-002  0.3403986E+03  0.7818608E-02  0.1066767E+00
         21   -1    0    0  501  502  0.00000000000E+00  0.00000000000E+00  0.32901260911E+03  0.32901260911E+03  0.00000000000E+00 0. -1.
         21   -1    0    0  502  503 -0.00000000000E+00 -0.00000000000E+00 -0.40558805932E+03  0.40558805932E+03  0.00000000000E+00 0.  1.
         -6    2    1    2    0  503  0.21202753605E+03  0.20304032784E+03 -0.17320709486E+03  0.38075195675E+03  0.16967705821E+03 0.  0.
        -24    2    3    3    0    0  0.10181546244E+03  0.48756447831E+02 -0.24038907666E+02  0.13945658823E+03  0.78273183917E+02 0.  0.
          6    2    1    2  501    0 -0.21202753605E+03 -0.20304032784E+03  0.96631644647E+02  0.35384871169E+03  0.17230840155E+03 0.  0.
         24    2    5    5    0    0 -0.43559979817E+02 -0.10228664539E+03  0.26372501927E+01  0.13615705310E+03  0.78560539419E+02 0.  0.
          5    1    5    5  501    0 -0.16846755624E+03 -0.10075368244E+03  0.93994394454E+02  0.21769165859E+03  0.47000000000E+01 0. -1.
        -11    1    6    6    0    0 -0.40502467573E+02 -0.38721911697E+02 -0.31144918155E+02  0.64108051381E+02  0.00000000000E+00 0.  1.
         12    1    6    6    0    0 -0.30575122438E+01 -0.63564733697E+02  0.33782168347E+02  0.72049001723E+02  0.00000000000E+00 0. -1.
         -5    1    3    3    0  503  0.11021207361E+03  0.15428388001E+03 -0.14916818719E+03  0.24129536852E+03  0.47000000000E+01 0.  1.
         13    1    4    4    0    0  0.67915839639E+02  0.68262739081E+02 -0.27636018881E+02  0.10018039908E+03  0.00000000000E+00 0. -1.
        -14    1    4    4    0    0  0.33899622804E+02 -0.19506291250E+02  0.35971112156E+01  0.39276189144E+02  0.00000000000E+00 0.  1.
</event>
<event>
12    1  0.8133495E-002  0.2137662E+03  0.7818608E-02  0.1139364E+00
         21   -1    0    0  503  502  0.00000000000E+00  0.00000000000E+00  0.61411419580E+03  0.61411419580E+03  0.00000000000E+00 0.  1.
         21   -1    0    0  501  503 -0.00000000000E+00 -0.00000000000E+00 -0.12794090004E+03  0.12794090004E+03  0.00000000000E+00 0. -1.
          6    2    1    2  501    0  0.50576106784E+02  0.11352491649E+03 -0.11057597801E+01  0.20994904435E+03  0.16920853784E+03 0.  0.
         24    2    3    3    0    0 -0.67512176027E+01  0.69657347606E+02 -0.54605787576E+02  0.11997611122E+03  0.80714002584E+02 0.  0.
         -6    2    1    2    0  502 -0.50576106784E+02 -0.11352491649E+03  0.48727905553E+03  0.53210605149E+03  0.17392562441E+03 0.  0.
        -24    2    5    5    0    0  0.53613199631E+01 -0.10876226285E+03  0.21311783980E+03  0.25221653616E+03  0.79598956633E+02 0.  0.
          5    1    3    3  501    0  0.57327324387E+02  0.43867568881E+02  0.53500027796E+02  0.89972933125E+02  0.47000000000E+01 0. -1.
        -13    1    4    4    0    0  0.28062737291E+02 -0.74241019196E+00 -0.11046893026E+02  0.30167900866E+02  0.00000000000E+00 0.  1.
         14    1    4    4    0    0 -0.34813954894E+02  0.70399757798E+02 -0.43558894550E+02  0.89808210359E+02  0.00000000000E+00 0. -1.
         -5    1    5    5    0  502 -0.55937426747E+02 -0.47626536398E+01  0.27416121573E+03  0.27988951533E+03  0.47000000000E+01 0.  1.
         11    1    6    6    0    0 -0.35594280109E+02 -0.59050086822E+02  0.91194640107E+02  0.11432553483E+03  0.00000000000E+00 0. -1.
        -12    1    6    6    0    0  0.40955600072E+02 -0.49712176025E+02  0.12192319970E+03  0.13789100133E+03  0.00000000000E+00 0.  1.
</event>
<event>
12    1  0.8133495E-002  0.1914315E+03  0.7818608E-02  0.1157179E+00
         21   -1    0    0  503  502  0.00000000000E+00  0.00000000000E+00  0.28684700689E+02  0.28684700689E+02  0.00000000000E+00 0. -1.
         21   -1    0    0  501  503 -0.00000000000E+00 -0.00000000000E+00 -0.16439191885E+04  0.16439191885E+04  0.00000000000E+00 0. -1.
          6    2    1    2  501    0 -0.80245293515E+02  0.27826414804E+02 -0.12024444716E+04  0.12175856353E+04  0.17154723951E+03 0.  0.
         24    2    3    3    0    0 -0.45109978112E+02  0.43191108517E+02 -0.37340064484E+03  0.38764207036E+03  0.83294364566E+02 0.  0.
         -6    2    1    2    0  502  0.80245293515E+02 -0.27826414804E+02 -0.41279001616E+03  0.45501825389E+03  0.17155872884E+03 0.  0.
        -24    2    5    5    0    0  0.89063164584E+02  0.29457216560E+02 -0.34178754703E+03  0.36324347579E+03  0.79543199008E+02 0.  0.
          5    1    3    3  501    0 -0.35135315403E+02 -0.15364693713E+02 -0.82904382679E+03  0.82994356491E+03  0.47000000000E+01 0. -1.
        -13    1    4    4    0    0 -0.56493538707E+02  0.60019770204E+02 -0.27151382658E+03  0.28374927446E+03  0.00000000000E+00 0.  1.
         14    1    4    4    0    0  0.11383560596E+02 -0.16828661686E+02 -0.10188681826E+03  0.10389279591E+03  0.00000000000E+00 0. -1.
         -5    1    5    5    0  502 -0.88178710688E+01 -0.57283631364E+02 -0.71002469131E+02  0.91774778099E+02  0.47000000000E+01 0.  1.
         13    1    6    6    0    0  0.31882846886E+02 -0.11830317922E+02 -0.36385289247E+02  0.49803229025E+02  0.00000000000E+00 0. -1.
        -14    1    6    6    0    0  0.57180317698E+02  0.41287534481E+02 -0.30540225778E+03  0.31344024677E+03  0.00000000000E+00 0.  1.
</event>
<event>
12    1  0.8133495E-002  0.1896372E+03  0.7818608E-02  0.1158906E+00
         21   -1    0    0  503  502  0.00000000000E+00  0.00000000000E+00  0.33375402332E+03  0.33375402332E+03  0.00000000000E+00 0. -1.
         21   -1    0    0  501  503 -0.00000000000E+00 -0.00000000000E+00 -0.11665974659E+03  0.11665974659E+03  0.00000000000E+00 0. -1.
          6    2    1    2  501    0 -0.63143923334E+02  0.38222527090E+02  0.45431884055E+02  0.19500344043E+03  0.17468305316E+03 0.  0.
         24    2    3    3    0    0 -0.88311133940E+01  0.79754259170E+02  0.51499536545E+02  0.12620175077E+03  0.82679799310E+02 0.  0.
         -6    2    1    2    0  502  0.63143923334E+02 -0.38222527090E+02  0.17166239267E+03  0.25541032948E+03  0.17412163195E+03 0.  0.
        -24    2    5    5    0    0  0.67930957624E+02 -0.39206494829E+01  0.18934120589E+03  0.21624191182E+03  0.79249515373E+02 0.  0.
          5    1    3    3  501    0 -0.54312809940E+02 -0.41531732080E+02 -0.60676524904E+01  0.68801689659E+02  0.47000000000E+01 0. -1.
        -11    1    4    4    0    0 -0.44141560845E+02  0.34527780941E+02  0.36553324736E+02  0.66908823034E+02  0.00000000000E+00 0.  1.
         12    1    4    4    0    0  0.35310447451E+02  0.45226478230E+02  0.14946211810E+02  0.59292927738E+02  0.00000000000E+00 0. -1.
         -5    1    5    5    0  502 -0.47870342894E+01 -0.34301877607E+02 -0.17678813213E+02  0.39168417651E+02  0.47000000000E+01 0.  1.
         13    1    6    6    0    0  0.44797286559E+02  0.30288891104E+02  0.61485231808E+02  0.81881912153E+02  0.00000000000E+00 0. -1.
        -14    1    6    6    0    0  0.23133671065E+02 -0.34209540587E+02  0.12785597408E+03  0.13435999967E+03  0.00000000000E+00 0.  1.
</event>
<event>
12    1  0.8133495E-002  0.2241187E+03  0.7818608E-02  0.1130977E+00
         21   -1    0    0  501  502  0.00000000000E+00  0.00000000000E+00  0.50349629703E+02  0.50349629703E+02  0.00000000000E+00 0.  1.
         21   -1    0    0  502  503 -0.00000000000E+00 -0.00000000000E+00 -0.99785169104E+03  0.99785169104E+03  0.00000000000E+00 0.  1.
         -6    2    1    2    0  503  0.81016773618E+02  0.11767431344E+03 -0.44252545853E+03  0.49572457510E+03  0.17176469737E+03 0.  0.
        -24    2    3    3    0    0  0.10048264221E+03  0.39186374312E+02 -0.33608641568E+03  0.36196869123E+03  0.80217961251E+02 0.  0.
          6    2    1    2  501    0 -0.81016773618E+02 -0.11767431344E+03 -0.50497660280E+03  0.55247674564E+03  0.17267953973E+03 0.  0.
         24    2    5    5    0    0 -0.52364234849E+02 -0.14639472211E+03 -0.33718220368E+03  0.37978372253E+03  0.79814846159E+02 0.  0.
          5    1    5    5  501    0 -0.28652538768E+02  0.28720408677E+02 -0.16779439913E+03  0.17269302311E+03  0.47000000000E+01 0. -1.
        -13    1    6    6    0    0 -0.55147401607E+02 -0.39918330864E+02 -0.13987594788E+03  0.15556345920E+03  0.00000000000E+00 0.  1.
         14    1    6    6    0    0  0.27831667573E+01 -0.10647639125E+03 -0.19730625580E+03  0.22422026333E+03  0.00000000000E+00 0. -1.
         -5    1    3    3    0  503 -0.19465868592E+02  0.78487939125E+02 -0.10643904285E+03  0.13375588388E+03  0.47000000000E+01 0.  1.
         11    1    4    4    0    0  0.67916502962E+01 -0.10575670648E+02 -0.12591570110E+03  0.12654143633E+03  0.00000000000E+00 0. -1.
        -12    1    4    4    0    0  0.93690991913E+02  0.49762044960E+02 -0.21017071458E+03  0.23542725490E+03  0.00000000000E+00 0.  1.
</event>
<event>
12    1  0.8133495E-002  0.2100458E+03  0.7818608E-02  0.1141602E+00
         21   -1    0    0  503  502  0.00000000000E+00  0.00000000000E+00  0.60041475950E+02  0.60041475950E+02  0.00000000000E+00 0. -1.
         21   -1    0    0  501  503 -0.00000000000E+00 -0.00000000000E+00 -0.82361373367E+03  0.82361373367E+03  0.00000000000E+00 0. -1.
          6    2    1    2  501    0 -0.27057479732E+02  0.11829517283E+03 -0.52819754944E+03  0.56842932695E+03  0.17144501562E+03 0.  0.
         24    2    3    3    0    0 -0.78910701881E+02  0.65216781272E+02 -0.26670128593E+03  0.29656822616E+03  0.79643012352E+02 0.  0.
         -6    2    1    2    0  502  0.27057479732E+02 -0.11829517283E+03 -0.23537470829E+03  0.31522588267E+03  0.17099780315E+03 0.  0.
        -24    2    5    5    0    0 -0.29873578065E+02 -0.12832091426E+03 -0.18637432149E+03  0.23929967680E+03  0.71904519338E+02 0.  0.
          5    1    3    3  501    0  0.51853222149E+02  0.53078391562E+02 -0.26149626350E+03  0.27186110079E+03  0.47000000000E+01 0. -1.
        -13    1    4    4    0    0 -0.27992684897E+02  0.23586850867E+01 -0.16116887010E+03  0.16359877289E+03  0.00000000000E+00 0.  1.
         14    1    4    4    0    0 -0.50918016983E+02  0.62858096185E+02 -0.10553241584E+03  0.13296945327E+03  0.00000000000E+00 0. -1.
         -5    1    5    5    0  502  0.56931057797E+02  0.10025741421E+02 -0.49000386793E+02  0.75926205877E+02  0.47000000000E+01 0.  1.
         13    1    6    6    0    0  0.74204369862E+01 -0.12074745954E+02  0.25136124492E+01  0.14393770266E+02  0.00000000000E+00 0. -1.
        -14    1    6    6    0    0 -0.37294015051E+02 -0.11624616830E+03 -0.18888793394E+03  0.22490590653E+03  0.00000000000E+00 0.  1.
</event>
<event>
12    1  0.8133495E-002  0.1741053E+03  0.7818608E-02  0.1174131E+00
         21   -1    0    0  501  502  0.00000000000E+00  0.00000000000E+00  0.41266432543E+03  0.41266432543E+03  0.00000000000E+00 0.  1.
         21   -1    0    0  502  503 -0.00000000000E+00 -0.00000000000E+00 -0.73618255116E+02  0.73618255116E+02  0.00000000000E+00 0.  1.
         -6    2    1    2    0  503 -0.45206643885E+01  0.35204116960E+02  0.19671658514E+03  0.26140409523E+03  0.16844856745E+03 0.  0.
        -24    2    3    3    0    0  0.46828226984E+02  0.19263989203E+02  0.51714892362E+02  0.10668377586E+03  0.78377380774E+02 0.  0.
          6    2    1    2  501    0  0.45206643885E+01 -0.35204116960E+02  0.14232948518E+03  0.22487848532E+03  0.17044906732E+03 0.  0.
         24    2    5    5    0    0  0.22652840698E+01 -0.34561053209E+02  0.17364110760E+03  0.19312934407E+03  0.77124000046E+02 0.  0.
          5    1    5    5  501    0  0.22553803187E+01 -0.64306375017E+00 -0.31311622420E+02  0.31749141247E+02  0.47000000000E+01 0. -1.
        -11    1    6    6    0    0  0.29995330461E+00 -0.55601338158E+01  0.16155243779E+03  0.16164836905E+03  0.00000000000E+00 0.  1.
         12    1    6    6    0    0  0.19653307652E+01 -0.29000919394E+02  0.12088669806E+02  0.31480975022E+02  0.00000000000E+00 0. -1.
         -5    1    3    3    0  503 -0.51348891372E+02  0.15940127756E+02  0.14500169277E+03  0.15472031937E+03  0.47000000000E+01 0.  1.
         11    1    4    4    0    0  0.34937403468E+02 -0.21105155436E+02  0.50027164857E+02  0.64565989272E+02  0.00000000000E+00 0. -1.
        -12    1    4    4    0    0  0.11890823515E+02  0.40369144640E+02  0.16877275056E+01  0.42117786587E+02  0.00000000000E+00 0.  1.
</event>
<event>
12    1  0.8133495E-002  0.2162996E+03  0.7818608E-02  0.1137554E+00
         21   -1    0    0  503  502  0.00000000000E+00  0.00000000000E+00  0.12900478387E+04  0.12900478387E+04  0.00000000000E+00 0.  1.
         21   -1    0    0  501  503 -0.00000000000E+00 -0.00000000000E+00 -0.35947215956E+02  0.35947215956E+02  0.00000000000E+00 0.  1.
          6    2    1    2  501    0 -0.24056842795E+02  0.12773332541E+03  0.56003497186E+03  0.60035379178E+03  0.17289005610E+03 0.  0.
         24    2    3    3    0    0 -0.28793212091E+02  0.13472921932E+02  0.13307451912E+03  0.15831850903E+03  0.79657730161E+02 0.  0.
         -6    2    1    2    0  502  0.24056842795E+02 -0.12773332541E+03  0.69406565092E+03  0.72564126291E+03  0.16713342137E+03 0.  0.
        -24    2    5    5    0    0  0.14705208355E+01 -0.15787811199E+03  0.58730090555E+03  0.61232907931E+03  0.71392485800E+02 0.  0.
          5    1    3    3  501    0  0.47363692965E+01  0.11426040348E+03  0.42696045274E+03  0.44203528276E+03  0.47000000000E+01 0. -1.
        -11    1    4    4    0    0 -0.10145999248E+02  0.46598574990E+02  0.77048820709E+02  0.90613957338E+02  0.00000000000E+00 0.  1.
         12    1    4    4    0    0 -0.18647212843E+02 -0.33125653057E+02  0.56025698411E+02  0.67704551691E+02  0.00000000000E+00 0. -1.
         -5    1    5    5    0  502  0.22586321959E+02  0.30144786581E+02  0.10676474537E+03  0.11331218359E+03  0.47000000000E+01 0.  1.
         11    1    6    6    0    0 -0.15721416238E+02 -0.85915993760E+02  0.20334422859E+03  0.22130882543E+03  0.00000000000E+00 0. -1.
        -12    1    6    6    0    0  0.17191937074E+02 -0.71962118234E+02  0.38395667697E+03  0.39102025388E+03  0.00000000000E+00 0.  1.
</event>
<event>
12    1  0.8133495E-002  0.1800755E+03  0.7818608E-02  0.1167732E+00
         21   -1    0    0  501  502  0.00000000000E+00  0.00000000000E+00  0.35421785548E+03  0.35421785548E+03  0.00000000000E+00 0.  1.
         21   -1    0    0  502  503 -0.00000000000E+00 -0.00000000000E+00 -0.16726341704E+03  0.16726341704E+03  0.00000000000E+00 0.  1.
         -6    2    1    2    0  503 -0.26341292452E+02  0.44640039145E+02 -0.81960556605E+02  0.19784189520E+03  0.17244502276E+03 0.  0.
        -24    2    3    3    0    0  0.37534697296E+02  0.27798624927E+02 -0.92378345851E+02  0.13080164139E+03  0.79960575025E+02 0.  0.
          6    2    1    2  501    0  0.26341292452E+02 -0.44640039145E+02  0.26891499505E+03  0.32363937731E+03  0.17245455982E+03 0.  0.
         24    2    5    5    0    0 -0.29360188930E+02 -0.39731611990E+02  0.81747888577E+02  0.12824141563E+03  0.85571734294E+02 0.  0.
          5    1    5    5  501    0  0.55701481382E+02 -0.49084271559E+01  0.18716710647E+03  0.19539796168E+03  0.47000000000E+01 0. -1.
        -13    1    6    6    0    0 -0.13747105330E+01 -0.18990166038E+01  0.81145306897E+02  0.81179165582E+02  0.00000000000E+00 0.  1.
         14    1    6    6    0    0 -0.27985478397E+02 -0.37832595386E+02  0.60258167980E+00  0.47062250046E+02  0.00000000000E+00 0. -1.
         -5    1    3    3    0  503 -0.63875989747E+02  0.16841414218E+02  0.10417789247E+02  0.67040253817E+02  0.47000000000E+01 0.  1.
         11    1    4    4    0    0 -0.18105082836E+02 -0.58655903285E+01 -0.15523100093E+01  0.19094733325E+02  0.00000000000E+00 0. -1.
        -12    1    4    4    0    0  0.55639780132E+02  0.33664215256E+02 -0.90826035842E+02  0.11170690806E+03  0.00000000000E+00 0.  1.
</event>
<event>
12    1  0.8133495E-002  0.2637717E+03  0.7818608E-02  0.1105171E+00
         21   -1    0    0  503  502  0.00000000000E+00  0.00000000000E+00  0.97829535864E+02  0.97829535864E+02  0.00000000000E+00 0.  1.
         21   -1    0    0  501  503 -0.00000000000E+00 -0.00000000000E+00 -0.98376192722E+03  0.98376192722E+03  0.00000000000E+00 0.  1.
          6    2    1    2  501    0  0.19664572063E+03  0.36313147629E+02 -0.72909217125E+03  0.77471302286E+03  0.16916468155E+03 0.  0.
         24    2    3    3    0    0  0.10950282576E+03  0.84685303639E+02 -0.48431771910E+03  0.51038297911E+03  0.82247570386E+02 0.  0.
         -6    2    1    2    0  502 -0.19664572063E+03 -0.36313147629E+02 -0.15684022011E+03  0.30687844022E+03  0.17200970408E+03 0.  0.
        -24    2    5    5    0    0 -0.46489429843E+02 -0.51011371982E+02 -0.29702147589E+02  0.10952310347E+03  0.79684788156E+02 0.  0.
          5    1    3    3  501    0  0.87142894867E+02 -0.48372156010E+02 -0.24477445215E+03  0.26433004375E+03  0.47000000000E+01 0. -1.
        -11    1    4    4    0    0  0.49695507205E+02 -0.82534961971E+01 -0.14251092239E+03  0.15115266004E+03  0.00000000000E+00 0.  1.
         12    1    4    4    0    0  0.59807318553E+02  0.92938799837E+02 -0.34180679671E+03  0.35923031908E+03  0.00000000000E+00 0. -1.
         -5    1    5    5    0  502 -0.15015629078E+03  0.14698224353E+02 -0.12713807252E+03  0.19735533675E+03  0.47000000000E+01 0.  1.
         11    1    6    6    0    0  0.21260047138E+02 -0.17404778736E+01 -0.26657888738E+01  0.21497099754E+02  0.00000000000E+00 0. -1.
        -12    1    6    6    0    0 -0.67749476981E+02 -0.49270894109E+02 -0.27036358715E+02  0.88026003715E+02  0.00000000000E+00 0.  1.
</event>
<event>
12    1  0.8133495E-002  0.1819834E+03  0.7818608E-02  0.1166495E+00
         21   -1    0    0  503  502  0.00000000000E+00  0.00000000000E+00  0.72912062327E+02  0.72912062327E+02  0.00000000000E+00 0.  1.
         21   -1    0    0  501  503 -0.00000000000E+00 -0.00000000000E+00 -0.45040243498E+03  0.45040243498E+03  0.00000000000E+00 0.  1.
          6    2    1    2  501    0  0.22250997488E+02  0.48349223110E+02 -0.20904359557E+03  0.27715911475E+03  0.17402642264E+03 0.  0.
         24    2    3    3    0    0  0.11129622296E+02  0.32494707348E+02 -0.23176527157E+03  0.24693635485E+03  0.77991331194E+02 0.  0.
         -6    2    1    2    0  502 -0.22250997488E+02 -0.48349223110E+02 -0.16844677708E+03  0.24615538255E+03  0.17142170628E+03 0.  0.
        -24    2    5    5    0    0 -0.83519711351E+02 -0.24267859154E+02 -0.76583050298E+02  0.13304127341E+03  0.65349412127E+02 0.  0.
          5    1    3    3  501    0  0.11121375193E+02  0.15854515762E+02  0.22721676000E+02  0.30222759908E+02  0.47000000000E+01 0. -1.
        -13    1    4    4    0    0  0.94029094556E+01  0.54347554291E+02 -0.10825369630E+03  0.12149458476E+03  0.00000000000E+00 0.  1.
         14    1    4    4    0    0  0.17267128399E+01 -0.21852846943E+02 -0.12351157527E+03  0.12544177008E+03  0.00000000000E+00 0. -1.
         -5    1    5    5    0  502  0.61268713863E+02 -0.24081363956E+02 -0.91863726785E+02  0.11311410914E+03  0.47000000000E+01 0.  1.
         13    1    6    6    0    0 -0.63853529764E+02 -0.43283286338E+02 -0.38673788604E+02  0.86292398648E+02  0.00000000000E+00 0. -1.
        -14    1    6    6    0    0 -0.19666181587E+02  0.19015427184E+02 -0.37909261694E+02  0.46748874761E+02  0.00000000000E+00 0.  1.
</event>
<event>
12    1  0.8133495E-002  0.1914269E+03  0.7818608E-02  0.1157657E+00
         21   -1    0    0  503  502  0.00000000000E+00  0.00000000000E+00  0.15528098497E+03  0.15528098497E+03  0.00000000000E+00 0.  1.
         21   -1    0    0  501  503 -0.00000000000E+00 -0.00000000000E+00 -0.26169755225E+03  0.26169755225E+03  0.00000000000E+00 0.  1.
          6    2    1    2  501    0 -0.67717863538E+02 -0.42158065459E+02 -0.12152708459E+03  0.22495617842E+03  0.17167829914E+03 0.  0.
         24    2    3    3    0    0 -0.30911943626E+02 -0.71838758097E+02 -0.13384665678E+03  0.17586971272E+03  0.83059453990E+02 0.  0.
         -6    2    1    2    0  502  0.67717863538E+02  0.42158065459E+02  0.15110517305E+02  0.19202235881E+03  0.17401507700E+03 0.  0.
        -24    2    5    5    0    0  0.53968178144E+02 -0.36555703216E+02 -0.17032070627E+02  0.10576607100E+03  0.81532120388E+02 0.  0.
          5    1    3    3  501    0 -0.36805919913E+02  0.29680692637E+02  0.12319572190E+02  0.49086465701E+02  0.47000000000E+01 0. -1.
        -13    1    4    4    0    0 -0.40149216431E+02 -0.11107574753E+02 -0.19344244995E+02  0.45929702931E+02  0.00000000000E+00 0.  1.
         14    1    4    4    0    0  0.92372728052E+01 -0.60731183344E+02 -0.11450241178E+03  0.12994000979E+03  0.00000000000E+00 0. -1.
         -5    1    5    5    0  502  0.13749685394E+02  0.78713768675E+02  0.32142587932E+02  0.86256287808E+02  0.47000000000E+01 0.  1.
         13    1    6    6    0    0  0.21201815939E+02  0.31153194393E+01 -0.43064937653E+02  0.48102090073E+02  0.00000000000E+00 0. -1.
        -14    1    6    6    0    0  0.32766362205E+02 -0.39671022655E+02  0.26032867026E+02  0.57663980926E+02  0.00000000000E+00 0.  1.
</event>
<event>
12    1  0.8133495E-002  0.1904354E+03  0.7818608E-02  0.1158844E+00
         21   -1    0    0  501  502  0.00000000000E+00  0.00000000000E+00  0.78665396728E+02  0.78665396728E+02  0.00000000000E+00 0. -1.
         21   -1    0    0  502  503 -0.00000000000E+00 -0.00000000000E+00 -0.47534156580E+03  0.47534156580E+03  0.00000000000E+00 0. -1.
         -6    2    1    2    0  503 -0.15858873665E+02  0.78649955437E+02 -0.13628420320E+03  0.23140873716E+03  0.16893578729E+03 0.  0.
        -24    2    3    3    0    0 -0.37251985124E+02  0.11374799910E+03 -0.93213816236E+02  0.17168699807E+03  0.80382162659E+02 0.  0.
          6    2    1    2  501    0  0.15858873665E+02 -0.78649955437E+02 -0.26039196586E+03  0.32259822537E+03  0.17270877151E+03 0.  0.
         24    2    5    5    0    0 -0.46581342350E+02 -0.52394490998E+02 -0.81764048990E+02  0.13150099180E+03  0.75446318635E+02 0.  0.
          5    1    5    5  501    0  0.62440216015E+02 -0.26255464439E+02 -0.17862791687E+03  0.19109723356E+03  0.47000000000E+01 0. -1.
        -13    1    6    6    0    0 -0.51169180855E+02 -0.16744439632E+02 -0.78798073808E+02  0.95434782778E+02  0.00000000000E+00 0.  1.
         14    1    6    6    0    0  0.45878385054E+01 -0.35650051367E+02 -0.29659751823E+01  0.36066209024E+02  0.00000000000E+00 0. -1.
         -5    1    3    3    0  503  0.21393111460E+02 -0.35098043659E+02 -0.43070386966E+02  0.59721739091E+02  0.47000000000E+01 0.  1.
         11    1    4    4    0    0  0.24468291914E+02  0.40013591334E+02 -0.20770641155E+02  0.51295266201E+02  0.00000000000E+00 0. -1.
        -12    1    4    4    0    0 -0.61720277039E+02  0.73734407762E+02 -0.72443175081E+02  0.12039173187E+03  0.00000000000E+00 0.  1.
</event>
<event>
12    1  0.8133495E-002  0.2136089E+03  0.7818608E-02  0.1138843E+00
         21   -1    0    0  501  502  0.00000000000E+00  0.00000000000E+00  0.27607510337E+03  0.27607510337E+03  0.00000000000E+00 0. -1.
         21   -1    0    0  502  503 -0.00000000000E+00 -0.00000000000E+00 -0.55855889649E+03  0.55855889649E+03  0.00000000000E+00 0. -1.
         -6    2    1    2    0  503  0.79013657640E+02 -0.10210738806E+03 -0.49154681099E+03  0.53574251132E+03  0.16950721003E+03 0.  0.
        -24    2    3    3    0    0  0.48535767932E+02 -0.11901206366E+03 -0.47164181264E+03  0.49533250293E+03  0.79929324856E+02 0.  0.
          6    2    1    2  501    0 -0.79013657640E+02  0.10210738806E+03  0.20906301787E+03  0.29889148854E+03  0.17017549674E+03 0.  0.
         24    2    5    5    0    0 -0.73897366113E+02  0.10070317975E+03  0.77675785241E+02  0.16731321093E+03  0.79738521485E+02 0.  0.
          5    1    5    5  501    0 -0.51162915265E+01  0.14042083074E+01  0.13138723263E+03  0.13157827760E+03  0.47000000000E+01 0. -1.
        -13    1    6    6    0    0 -0.74690226461E+02  0.38270880926E+02  0.57360874993E+02  0.10165412060E+03  0.00000000000E+00 0.  1.
         14    1    6    6    0    0  0.79286034740E+00  0.62432298829E+02  0.20314910248E+02  0.65659090330E+02  0.00000000000E+00 0. -1.
         -5    1    3    3    0  503  0.30477889708E+02  0.16904675598E+02 -0.19904998351E+02  0.40410008383E+02  0.47000000000E+01 0.  1.
         13    1    4    4    0    0  0.87967349209E+01 -0.76235097883E+00 -0.15130526304E+03  0.15156268125E+03  0.00000000000E+00 0. -1.
        -14    1    4    4    0    0  0.39739033011E+02 -0.11824971268E+03 -0.32033654960E+03  0.34376982168E+03  0.00000000000E+00 0.  1.
</event>
<event>
12    1  0.8133495E-002  0.1736732E+03  0.7818608E-02  0.1174130E+00
         21   -1    0    0  503  502  0.00000000000E+00  0.00000000000E+00  0.20193627129E+03  0.20193627129E+03  0.00000000000E+00 0. -1.
         21   -1    0    0  501  503 -0.00000000000E+00 -0.00000000000E+00 -0.31333374365E+03  0.31333374365E+03  0.00000000000E+00 0. -1.
          6    2    1    2  501    0  0.22362669318E+02 -0.77598005688E+01 -0.24216722481E+03  0.29786923636E+03  0.17181622076E+03 0.  0.
         24    2    3    3    0    0 -0.29981299772E+01  0.56264836381E+02 -0.17855287151E+03  0.20400124276E+03  0.80997892122E+02 0.  0.
         -6    2    1    2    0  502 -0.22362669318E+02  0.77598005688E+01  0.13076975245E+03  0.21740077858E+03  0.17205251200E+03 0.  0.
        -24    2    5    5    0    0 -0.37538603935E+02 -0.49382353969E+02  0.42086786839E+02  0.11071294794E+03  0.81475735934E+02 0.  0.
          5    1    3    3  501    0  0.25360799295E+02 -0.64024636949E+02 -0.63614353300E+02  0.93867993604E+02  0.47000000000E+01 0. -1.
        -13    1    4    4    0    0 -0.17291385696E+02  0.19711314602E+02 -0.15709821341E+03  0.15927139291E+03  0.00000000000E+00 0.  1.
         14    1    4    4    0    0  0.14293255719E+02  0.36553521778E+02 -0.21454658091E+02  0.44729849846E+02  0.00000000000E+00 0. -1.
         -5    1    5    5    0  502  0.15175934617E+02  0.57142154537E+02  0.88682965612E+02  0.10668783064E+03  0.47000000000E+01 0.  1.
         13    1    6    6    0    0  0.20177977996E+02 -0.18759850461E+02  0.35655670364E+02  0.45060066738E+02  0.00000000000E+00 0. -1.
        -14    1    6    6    0    0 -0.57716581931E+02 -0.30622503507E+02  0.64311164744E+01  0.65652881201E+02  0.00000000000E+00 0.  1.
</event>
<event>
12    1  0.8133495E-002  0.2084437E+03  0.7818608E-02  0.1143257E+00
         21   -1    0    0  503  502  0.00000000000E+00  0.00000000000E+00  0.78979444246E+03  0.78979444246E+03  0.00000000000E+00 0. -1.
         21   -1    0    0  501  503 -0.00000000000E+00 -0.00000000000E+00 -0.76005088057E+02  0.76005088057E+02  0.00000000000E+00 0.  1.
          6    2    1    2  501    0  0.21319159230E+02  0.11522595565E+03  0.12758979465E+03  0.24439298922E+03  0.17238691968E+03 0.  0.
         24    2    3    3    0    0  0.65376298115E+02  0.12133867785E+03  0.78928679081E+02  0.17829918446E+03  0.81016835904E+02 0.  0.
         -6    2    1    2    0  502 -0.21319159230E+02 -0.11522595565E+03  0.58619955975E+03  0.62140654129E+03  0.16966036161E+03 0.  0.
        -24    2    5    5    0    0 -0.64025926192E+02 -0.24284063496E+02  0.28794304456E+03  0.30664737217E+03  0.80202113328E+02 0.  0.
          5    1    3    3  501    0 -0.44057138885E+02 -0.61127222024E+01  0.48661115567E+02  0.66093804760E+02  0.47000000000E+01 0. -1.
        -13    1    4    4    0    0 -0.52932178790E+01  0.75405606388E+02  0.36988804720E+02  0.84155779985E+02  0.00000000000E+00 0.  1.
         14    1    4    4    0    0  0.70669515994E+02  0.45933071465E+02  0.41939874361E+02  0.94143404477E+02  0.00000000000E+00 0. -1.
         -5    1    5    5    0  502  0.42706766962E+02 -0.90941892154E+02  0.29825651520E+03  0.31475916913E+03  0.47000000000E+01 0.  1.
         11    1    6    6    0    0 -0.21989906100E+01  0.56796071175E+01  0.17031760284E+03  0.17042646313E+03  0.00000000000E+00 0. -1.
        -12    1    6    6    0    0 -0.61826935582E+02 -0.29963670614E+02  0.11762544172E+03  0.13622090904E+03  0.00000000000E+00 0.  1.
</event>
<event>
12    1  0.8133495E-002  0.2024882E+03  0.7818608E-02  0.1147812E+00
         21   -1    0    0  503  502  0.00000000000E+00  0.00000000000E+00  0.11246918592E+04  0.11246918592E+04  0.00000000000E+00 0.  1.
         21   -1    0    0  501  503 -0.00000000000E+00 -0.00000000000E+00 -0.38508775228E+02  0.38508775228E+02  0.00000000000E+00 0.  1.
          6    2    1    2  501    0 -0.85569997501E+02 -0.63579328788E+02  0.40352561360E+03  0.45114536695E+03  0.17127365755E+03 0.  0.
         24    2    3    3    0    0 -0.12102410007E+03 -0.67883249184E+02  0.28436872926E+03  0.32666255607E+03  0.81165775049E+02 0.  0.
         -6    2    1    2    0  502  0.85569997501E+02  0.63579328788E+02  0.68265747035E+03  0.71205526745E+03  0.17215378753E+03 0.  0.
        -24    2    5    5    0    0  0.39109613599E+02  0.22680422452E+02  0.12253377804E+03  0.14850231653E+03  0.70671407332E+02 0.  0.
          5    1    3    3  501    0  0.35454102571E+02  0.43039203967E+01  0.11915688434E+03  0.12448281088E+03  0.47000000000E+01 0. -1.
        -11    1    4    4    0    0 -0.24650041688E+02 -0.53128658260E+01  0.65997474933E+01  0.26065451569E+02  0.00000000000E+00 0.  1.
         12    1    4    4    0    0 -0.96374058384E+02 -0.62570383358E+02  0.27776898177E+03  0.30059710450E+03  0.00000000000E+00 0. -1.
         -5    1    5    5    0  502  0.46460383902E+02  0.40898906336E+02  0.56012369231E+03  0.56355295092E+03  0.47000000000E+01 0.  1.
         11    1    6    6    0    0 -0.95281087108E+01 -0.17298479935E+01 -0.42176143617E+01  0.10562457128E+02  0.00000000000E+00 0. -1.
        -12    1    6    6    0    0  0.48637722310E+02  0.24410270445E+02  0.12675139240E+03  0.13793985940E+03  0.00000000000E+00 0.  1.
</event>
<event>
12    1  0.8133495E-002  0.1877806E+03  0.7818608E-02  0.1160728E+00
         21   -1    0    0  501  502  0.00000000000E+00  0.00000000000E+00  0.51924758716E+02  0.51924758716E+02  0.00000000000E+00 0.  1.
         21   -1    0    0  502  503 -0.00000000000E+00 -0.00000000000E+00 -0.68235743669E+03  0.68235743669E+03  0.00000000000E+00 0.  1.
         -6    2    1    2    0  503  0.75711480343E+02 -0.13288108367E+01 -0.35201698534E+03  0.39845956269E+03  0.17064604050E+03 0.  0.
        -24    2    3    3    0    0  0.47109418090E+01 -0.52419117641E+02 -0.13986114920E+03  0.16893073067E+03  0.78781303881E+02 0.  0.
          6    2    1    2  501    0 -0.75711480343E+02  0.13288108367E+01 -0.27841569263E+03  0.33582263271E+03  0.17183581916E+03 0.  0.
         24    2    5    5    0    0 -0.17608450877E+02 -0.12709747451E+02 -0.25784103923E+03  0.27243139109E+03  0.85236530417E+02 0.  0.
          5    1    5    5  501    0 -0.58103029466E+02  0.14038558287E+02 -0.20574653402E+02  0.63391241623E+02  0.47000000000E+01 0. -1.
        -13    1    6    6    0    0 -0.47321206394E+02 -0.21528794453E+02 -0.20181597038E+03  0.20840458600E+03  0.00000000000E+00 0.  1.
         14    1    6    6    0    0  0.29712755517E+02  0.88190470020E+01 -0.56025068847E+02  0.64026805088E+02  0.00000000000E+00 0. -1.
         -5    1    3    3    0  503  0.71000538534E+02  0.51090306805E+02 -0.21215583614E+03  0.22952883203E+03  0.47000000000E+01 0.  1.
         11    1    4    4    0    0  0.13856495807E+02 -0.64871309576E+02 -0.13832054689E+03  0.15340424693E+03  0.00000000000E+00 0. -1.
        -12    1    4    4    0    0 -0.91455539984E+01  0.12452191935E+02 -0.15406023074E+01  0.15526483742E+02  0.00000000000E+00 0.  1.
</event>
<event>
12    1  0.8133495E-002  0.2028569E+03  0.7818608E-02  0.1147407E+00
         21   -1    0    0  501  502  0.00000000000E+00  0.00000000000E+00  0.65276490326E+02  0.65276490326E+02  0.00000000000E+00 0.  1.
         21   -1    0    0  502  503 -0.00000000000E+00 -0.00000000000E+00 -0.66128778751E+03  0.66128778751E+03  0.00000000000E+00 0.  1.
         -6    2    1    2    0  503  0.86537343710E+02 -0.64566837035E+02 -0.37776568365E+03  0.42878648257E+03  0.17173627336E+03 0.  0.
        -24    2    3    3    0    0  0.80595933471E+02 -0.35979191687E+02 -0.38080209215E+03  0.39905663900E+03  0.80285496932E+02 0.  0.
          6    2    1    2  501    0 -0.86537343710E+02  0.64566837035E+02 -0.21824561353E+03  0.29777779527E+03  0.17141434954E+03 0.  0.
         24    2    5    5    0    0 -0.37466706714E+02  0.92785603655E+02 -0.20142454859E+03  0.23853875045E+03  0.79473041558E+02 0.  0.
          5    1    5    5  501    0 -0.49070636996E+02 -0.28218766620E+02 -0.16821064940E+02  0.59239044814E+02  0.47000000000E+01 0. -1.
        -13    1    6    6    0    0  0.24277114006E+02  0.32380667054E+02 -0.51346707774E+02  0.65378668253E+02  0.00000000000E+00 0.  1.
         14    1    6    6    0    0 -0.61743820719E+02  0.60404936601E+02 -0.15007784082E+03  0.17316008220E+03  0.00000000000E+00 0. -1.
         -5    1    3    3    0  503  0.59414102389E+01 -0.28587645348E+02  0.30364084967E+01  0.29729843571E+02  0.47000000000E+01 0.  1.
         13    1    4    4    0    0  0.66075168271E+02 -0.59512758211E+02 -0.32239373894E+03  0.33443298157E+03  0.00000000000E+00 0. -1.
        -14    1    4    4    0    0  0.14520765200E+02  0.23533566524E+02 -0.58408353206E+02  0.64623657429E+02  0.00000000000E+00 0.  1.
</event>
<event>
12    1  0.8133495E-002  0.1831416E+03  0.7818608E-02  0.1165244E+00
         21   -1    0    0  501  502  0.00000000000E+00  0.00000000000E+00  0.86410785847E+03  0.86410785847E+03  0.00000000000E+00 0. -1.
         21   -1    0    0  502  503 -0.00000000000E+00 -0.00000000000E+00 -0.57253580177E+02  0.57253580177E+02  0.00000000000E+00 0. -1.
         -6    2    1    2    0  503  0.45076872914E+02  0.41439747288E+02  0.14059239539E+03  0.23088322594E+03  0.17260262239E+03 0.  0.
        -24    2    3    3    0    0  0.92602212159E+02  0.26741488877E+01  0.81596311708E+02  0.14565378632E+03  0.77296485138E+02 0.  0.
          6    2    1    2  501    0 -0.45076872914E+02 -0.41439747288E+02  0.66626188290E+03  0.69047821270E+03  0.17060506580E+03 0.  0.
         24    2    5    5    0    0 -0.24186769253E+01 -0.45161776816E+02  0.62152965373E+03  0.62837638088E+03  0.80699005552E+02 0.  0.
          5    1    5    5  501    0 -0.42658195989E+02  0.37220295281E+01  0.44732229171E+02  0.62101831820E+02  0.47000000000E+01 0. -1.
        -13    1    6    6    0    0  0.83909665081E+01  0.17066183629E+02  0.52241525904E+02  0.55595323287E+02  0.00000000000E+00 0.  1.
         14    1    6    6    0    0 -0.10809643433E+02 -0.62227960445E+02  0.56928812783E+03  0.57278105759E+03  0.00000000000E+00 0. -1.
         -5    1    3    3    0  503 -0.47525339245E+02  0.38765598400E+02  0.58996083681E+02  0.85229439629E+02  0.47000000000E+01 0.  1.
         11    1    4    4    0    0  0.86403785469E+02 -0.26739108225E+02  0.58084240505E+02  0.10749126963E+03  0.00000000000E+00 0. -1.
        -12    1    4    4    0    0  0.61984266901E+01  0.29413257112E+02  0.23512071204E+02  0.38162516684E+02  0.00000000000E+00 0.  1.
</event>
<event>
12    1  0.8133495E-002  0.2592344E+03  0.7818608E-02  0.1108113E+00
         21   -1    0    0  503  502  0.00000000000E+00  0.00000000000E+00  0.23776266402E+03  0.23776266402E+03  0.00000000000E+00 0.  1.
         21   -1    0    0  501  503 -0.00000000000E+00 -0.00000000000E+00 -0.30105561727E+03  0.30105561727E+03  0.00000000000E+00 0.  1.
          6    2    1    2  501    0  0.18543040549E+03  0.38206340488E+02 -0.10436817492E+03  0.27634991676E+03  0.17214064256E+03 0.  0.
         24    2    3    3    0    0  0.13302613651E+03 -0.18445592698E+02 -0.12341516751E+02  0.15615572075E+03  0.78715330148E+02 0.  0.
         -6    2    1    2    0  502 -0.18543040549E+03 -0.38206340488E+02  0.41075221671E+02  0.26246836454E+03  0.17708277391E+03 0.  0.
        -24    2    5    5    0    0 -0.84869776549E+02 -0.79471359187E+02  0.58077104058E+02  0.15234844870E+03  0.79489143296E+02 0.  0.
          5    1    3    3  501    0  0.52404268976E+02  0.56651933186E+02 -0.92026658169E+02  0.12019419601E+03  0.47000000000E+01 0. -1.
        -13    1    4    4    0    0  0.59865174555E+02 -0.44301920566E+02 -0.22733689269E+02  0.77867322530E+02  0.00000000000E+00 0.  1.
         14    1    4    4    0    0  0.73160961958E+02  0.25856327868E+02  0.10392172518E+02  0.78288398215E+02  0.00000000000E+00 0. -1.
         -5    1    5    5    0  502 -0.10056062894E+03  0.41265018699E+02 -0.17001882387E+02  0.11011991584E+03  0.47000000000E+01 0.  1.
         13    1    6    6    0    0 -0.31080082618E+02 -0.32379635054E+02 -0.17630330782E+02  0.48220751396E+02  0.00000000000E+00 0. -1.
        -14    1    6    6    0    0 -0.53789693931E+02 -0.47091724133E+02  0.75707434840E+02  0.10412769730E+03  0.00000000000E+00 0.  1.
</event>
<event>
12    1  0.8133495E-002  0.2263434E+03  0.7818608E-02  0.1129289E+00
         21   -1    0    0  503  502  0.00000000000E+00  0.00000000000E+00  0.38416272836E+03  0.38416272836E+03  0.00000000000E+00 0. -1.
         21   -1    0    0  501  503 -0.00000000000E+00 -0.00000000000E+00 -0.14211587144E+03  0.14211587144E+03  0.00000000000E+00 0. -1.
          6    2    1    2  501    0 -0.77637882054E+02  0.12460685950E+03  0.18686511117E+03  0.29330573423E+03  0.17191618248E+03 0.  0.
         24    2    3    3    0    0  0.14211572239E+02  0.16973102621E+02  0.54167055335E+02  0.99263955495E+02  0.80182342064E+02 0.  0.
         -6    2    1    2    0  502  0.77637882054E+02 -0.12460685950E+03  0.55181745744E+02  0.23297286557E+03  0.17226961677E+03 0.  0.
        -24    2    5    5    0    0  0.11759281589E+03 -0.10694060037E+03  0.29974126889E+02  0.18231709099E+03  0.84123189595E+02 0.  0.
          5    1    3    3  501    0 -0.91849454292E+02  0.10763375688E+03  0.13269805583E+03  0.19404177874E+03  0.47000000000E+01 0. -1.
        -13    1    4    4    0    0  0.18805191400E+02 -0.21883189264E+02  0.52733299560E+02  0.60110814987E+02  0.00000000000E+00 0.  1.
         14    1    4    4    0    0 -0.45936191613E+01  0.38856291885E+02  0.14337557757E+01  0.39153140509E+02  0.00000000000E+00 0. -1.
         -5    1    5    5    0  502 -0.39954933837E+02 -0.17666259130E+02  0.25207618855E+02  0.50655774576E+02  0.47000000000E+01 0.  1.
         13    1    6    6    0    0  0.61784350746E+02 -0.77375444127E+02 -0.20925238432E+02  0.10120341375E+03  0.00000000000E+00 0. -1.
        -14    1    6    6    0    0  0.55808465145E+02 -0.29565156242E+02  0.50899365321E+02  0.81113677241E+02  0.00000000000E+00 0.  1.
</event>
<event>
12    1  0.8133495E-002  0.1887980E+03  0.7818608E-02  0.1159660E+00
         21   -1    0    0  501  502  0.00000000000E+00  0.00000000000E+00  0.84906470720E+03  0.84906470720E+03  0.00000000000E+00 0.  1.
         21   -1    0    0  502  503 -0.00000000000E+00 -0.00000000000E+00 -0.55190664410E+02  0.55190664410E+02  0.00000000000E+00 0.  1.
         -6    2    1    2    0  503 -0.48022440302E+02  0.57719063617E+02  0.17446375072E+03  0.25671094800E+03  0.17269992886E+03 0.  0.
        -24    2    3    3    0    0 -0.64682160085E+02 -0.36610542120E+01  0.51516814752E+02  0.11820786431E+03  0.84391538855E+02 0.  0.
          6    2    1    2  501    0  0.48022440302E+02 -0.57719063617E+02  0.61941029207E+03  0.64754442362E+03  0.17322536060E+03 0.  0.
         24    2    5    5    0    0  0.57120670279E+02 -0.94908912199E+02  0.56158062150E+03  0.57803022777E+03  0.80471592371E+02 0.  0.
          5    1    5    5  501    0 -0.90982299769E+01  0.37189848582E+02  0.57829670571E+02  0.69514195850E+02  0.47000000000E+01 0. -1.
        -11    1    6    6    0    0  0.75430926033E+02 -0.70444846218E+02  0.37412221687E+03  0.38809758324E+03  0.00000000000E+00 0.  1.
         12    1    6    6    0    0 -0.18310255754E+02 -0.24464065981E+02  0.18745840464E+03  0.18993264453E+03  0.00000000000E+00 0. -1.
         -5    1    3    3    0  503  0.16659719783E+02  0.61380117829E+02  0.12294693597E+03  0.13850308369E+03  0.47000000000E+01 0.  1.
         11    1    4    4    0    0  0.41108050326E+01 -0.14271735155E+02 -0.15582084200E+02  0.21526320874E+02  0.00000000000E+00 0. -1.
        -12    1    4    4    0    0 -0.68792965117E+02  0.10610680943E+02  0.67098898952E+02  0.96681543431E+02  0.00000000000E+00 0.  1.
</event>
<event>
12    1  0.8133495E-002  0.1796521E+03  0.7818608E-02  0.1168268E+00
         21   -1    0    0  503  502  0.00000000000E+00  0.00000000000E+00  0.43776830965E+02  0.43776830965E+02  0.00000000000E+00 0. -1.
         21   -1    0    0  501  503 -0.00000000000E+00 -0.00000000000E+00 -0.86465024065E+03  0.86465024065E+03  0.00000000000E+00 0. -1.
          6    2    1    2  501    0 -0.11817216922E+01 -0.48897991886E+02 -0.58676101539E+03  0.61364758822E+03  0.17286544846E+03 0.  0.
         24    2    3    3    0    0 -0.81958329303E+01 -0.29307464579E+02 -0.58580800602E+03  0.59229378895E+03  0.81943964706E+02 0.  0.
         -6    2    1    2    0  502  0.11817216922E+01  0.48897991886E+02 -0.23411239429E+03  0.29477948339E+03  0.17231924034E+03 0.  0.
        -24    2    5    5    0    0 -0.32669427319E+02 -0.24618200550E+02 -0.94847187865E+02  0.13363539085E+03  0.84788450643E+02 0.  0.
          5    1    3    3  501    0  0.70141112381E+01 -0.19590527307E+02 -0.95300937400E+00  0.21353799276E+02  0.47000000000E+01 0. -1.
        -11    1    4    4    0    0 -0.44622960005E+02 -0.98513622279E+01 -0.27870604425E+03  0.28242754292E+03  0.00000000000E+00 0.  1.
         12    1    4    4    0    0  0.36427127074E+02 -0.19456102351E+02 -0.30710196177E+03  0.30986624603E+03  0.00000000000E+00 0. -1.
         -5    1    5    5    0  502  0.33851149011E+02  0.73516192436E+02 -0.13926520642E+03  0.16114409254E+03  0.47000000000E+01 0.  1.
         13    1    6    6    0    0  0.16253541308E+02  0.72305320993E+01 -0.66314592331E+02  0.68659182602E+02  0.00000000000E+00 0. -1.
        -14    1    6    6    0    0 -0.48922968627E+02 -0.31848732649E+02 -0.28532595534E+02  0.64976208250E+02  0.00000000000E+00 0.  1.
</event>
<event>
12    1  0.8133495E-002  0.2045028E+03  0.7818608E-02  0.1146022E+00
         21   -1    0    0  501  502  0.00000000000E+00  0.00000000000E+00  0.11425550649E+04  0.11425550649E+04  0.00000000000E+00 0.  1.
         21   -1    0    0  502  503 -0.00000000000E+00 -0.00000000000E+00 -0.61851263432E+02  0.61851263432E+02  0.00000000000E+00 0.  1.
         -6    2    1    2    0  503  0.46037139686E+02  0.10377440503E+03  0.15530835601E+03  0.25668372945E+03  0.16993324027E+03 0.  0.
        -24    2    3    3    0    0  0.56724778591E+02  0.73892073587E+02  0.17906373144E+03  0.21676396969E+03  0.79025689462E+02 0.  0.
          6    2    1    2  501    0 -0.46037139686E+02 -0.10377440503E+03  0.92539544546E+03  0.94772259888E+03  0.17009658605E+03 0.  0.
         24    2    5    5    0    0 -0.16000211078E+02 -0.32049919018E+02  0.76117632122E+03  0.76596278556E+03  0.77629844848E+02 0.  0.
          5    1    5    5  501    0 -0.30036928608E+02 -0.71724486009E+02  0.16421912424E+03  0.18175981332E+03  0.47000000000E+01 0. -1.
        -11    1    6    6    0    0 -0.44795451275E+02 -0.74357214591E+01  0.49933200808E+03  0.50139243782E+03  0.00000000000E+00 0.  1.
         12    1    6    6    0    0  0.28795240197E+02 -0.24614197559E+02  0.26184431314E+03  0.26457034774E+03  0.00000000000E+00 0. -1.
         -5    1    3    3    0  503 -0.10687638905E+02  0.29882331439E+02 -0.23755375427E+02  0.39919759760E+02  0.47000000000E+01 0.  1.
         11    1    4    4    0    0  0.15415492803E+02  0.21311888945E+02  0.13297761815E+03  0.13555397802E+03  0.00000000000E+00 0. -1.
        -12    1    4    4    0    0  0.41309285788E+02  0.52580184643E+02  0.46086113293E+02  0.81209991675E+02  0.00000000000E+00 0.  1.
</event>
<event>
12    1  0.8133495E-002  0.1890830E+03  0.7818608E-02  0.1159471E+00
         21   -1    0    0  503  502  0.00000000000E+00  0.00000000000E+00  0.92501728274E+03  0.92501728274E+03  0.00000000000E+00 0.  1.
         21   -1    0    0  501  503 -0.00000000000E+00 -0.00000000000E+00 -0.83296118010E+02  0.83296118010E+02  0.00000000000E+00 0. -1.
          6    2    1    2  501    0 -0.76971563644E+02 -0.18349429151E+02  0.51502414032E+02  0.19597162684E+03  0.17172960349E+03 0.  0.
         24    2    3    3    0    0 -0.42903628335E+02  0.45522201998E+02  0.66123453403E+02  0.12197112499E+03  0.81188989664E+02 0.  0.
         -6    2    1    2    0  502  0.76971563644E+02  0.18349429151E+02  0.79021875070E+03  0.81234177391E+03  0.17085713483E+03 0.  0.
        -24    2    5    5    0    0 -0.19201413709E+01  0.47359803357E+02  0.27791261026E+03  0.29316437219E+03  0.80394603419E+02 0.  0.
          5    1    3    3  501    0 -0.34067935309E+02 -0.63871631149E+02 -0.14621039371E+02  0.74000501851E+02  0.47000000000E+01 0. -1.
        -11    1    4    4    0    0 -0.34590588348E+02  0.41256798337E+01 -0.88351907518E+01  0.35938706598E+02  0.00000000000E+00 0.  1.
         12    1    4    4    0    0 -0.83130399877E+01  0.41396522164E+02  0.74958644154E+02  0.86032418393E+02  0.00000000000E+00 0. -1.
         -5    1    5    5    0  502  0.78891705015E+02 -0.29010374205E+02  0.51230614044E+03  0.51917740173E+03  0.47000000000E+01 0.  1.
         11    1    6    6    0    0  0.15945461808E+02  0.16869212030E+02  0.24080608266E+03  0.24192229644E+03  0.00000000000E+00 0. -1.
        -12    1    6    6    0    0 -0.17865603179E+02  0.30490591327E+02  0.37106527605E+02  0.51242075751E+02  0.00000000000E+00 0.  1.
</event>
<event>
12    1  0.8133495E-002  0.1970046E+03  0.7818608E-02  0.1152456E+00
         21   -1    0    0  503  502  0.00000000000E+00  0.00000000000E+00  0.16392417601E+04  0.16392417601E+04  0.00000000000E+00 0. -1.
         21   -1    0    0  501  503 -0.00000000000E+00 -0.00000000000E+00 -0.23584426185E+02  0.23584426185E+02  0.00000000000E+00 0. -1.
          6    2    1    2  501    0 -0.27819848641E+02 -0.92106513128E+02  0.80926500957E+03  0.83289894704E+03  0.17191057709E+03 0.  0.
         24    2    3    3    0    0 -0.69175767743E+02 -0.10499442738E+03  0.69084322128E+03  0.70671566637E+03  0.79834579418E+02 0.  0.
         -6    2    1    2    0  502  0.27819848641E+02  0.92106513128E+02  0.80639232429E+03  0.82992723920E+03  0.17103534122E+03 0.  0.
        -24    2    5    5    0    0  0.57177887308E+02  0.11299238893E+03  0.51446441762E+03  0.53574684057E+03  0.79463510068E+02 0.  0.
          5    1    3    3  501    0  0.41355919103E+02  0.12887914254E+02  0.11842178829E+03  0.12618328067E+03  0.47000000000E+01 0. -1.
        -13    1    4    4    0    0 -0.41139861688E+02 -0.64676096640E+01  0.29072017670E+03  0.29368782633E+03  0.00000000000E+00 0.  1.
         14    1    4    4    0    0 -0.28035906055E+02 -0.98526817719E+02  0.40012304459E+03  0.41302784004E+03  0.00000000000E+00 0. -1.
         -5    1    5    5    0  502 -0.29358038667E+02 -0.20885875802E+02  0.29192790667E+03  0.29418039863E+03  0.47000000000E+01 0.  1.
         11    1    6    6    0    0  0.14772661271E+01  0.74480168937E+02  0.18578291225E+03  0.20016185542E+03  0.00000000000E+00 0. -1.
        -12    1    6    6    0    0  0.55700621181E+02  0.38512219994E+02  0.32868150537E+03  0.33558498516E+03  0.00000000000E+00 0.  1.
</event>
<event>
12    1  0.8133495E-002  0.2118349E+03  0.7818608E-02  0.1141081E+00
         21   -1    0    0  503  502  0.00000000000E+00  0.00000000000E+00  0.41491149733E+02  0.41491149733E+02  0.00000000000E+00 0.  1.
         21   -1    0    0  501  503 -0.00000000000E+00 -0.00000000000E+00 -0.14288331186E+04  0.14288331186E+04  0.00000000000E+00 0. -1.
          6    2    1    2  501    0 -0.10801558951E+03  0.44280527403E+02 -0.10627746266E+04  0.10827446252E+04  0.17093239503E+03 0.  0.
         24    2    3    3    0    0 -0.10976725874E+03  0.27655050461E+02 -0.47259306323E+03  0.49230763226E+03  0.78796881076E+02 0.  0.
         -6    2    1    2    0  502  0.10801558951E+03 -0.44280527403E+02 -0.32456734230E+03  0.38757964321E+03  0.17676506289E+03 0.  0.
        -24    2    5    5    0    0  0.11841629093E+03 -0.76309794539E+02 -0.31207187777E+03  0.35135430433E+03  0.78837729366E+02 0.  0.
          5    1    3    3  501    0  0.17516692259E+01  0.16625476941E+02 -0.59018156337E+03  0.59043699289E+03  0.47000000000E+01 0. -1.
        -11    1    4    4    0    0 -0.96801151153E+02 -0.86991778049E+01 -0.37417671132E+03  0.38659326152E+03  0.00000000000E+00 0.  1.
         12    1    4    4    0    0 -0.12966107583E+02  0.36354228266E+02 -0.98416351910E+02  0.10571437074E+03  0.00000000000E+00 0. -1.
         -5    1    5    5    0  502 -0.10400701423E+02  0.32029267137E+02 -0.12495464524E+02  0.36225338882E+02  0.47000000000E+01 0.  1.
         13    1    6    6    0    0  0.12848837128E+02  0.16388184548E+02 -0.35918464887E+02  0.41518686494E+02  0.00000000000E+00 0. -1.
        -14    1    6    6    0    0  0.10556745381E+03 -0.92697979087E+02 -0.27615341289E+03  0.30983561783E+03  0.00000000000E+00 0.  1.
</event>
<event>
12    1  0.8133495E-002  0.2026284E+03  0.7818608E-02  0.1148205E+00
         21   -1    0    0  501  502  0.00000000000E+00  0.00000000000E+00  0.11507537772E+04  0.11507537772E+04  0.00000000000E+00 0. -1.
         21   -1    0    0  502  503 -0.00000000000E+00 -0.00000000000E+00 -0.66102787821E+02  0.66102787821E+02  0.00000000000E+00 0.  1.
         -6    2    1    2    0  503  0.94361262845E+02 -0.47081722664E+02  0.12352526431E+03  0.23460358101E+03  0.16929150234E+03 0.  0.
        -24    2    3    3    0    0  0.25180585813E+02  0.58330818639E+01  0.12205558163E+03  0.14736716327E+03  0.78431046515E+02 0.  0.
          6    2    1    2  501    0 -0.94361262845E+02  0.47081722664E+02  0.96112572509E+03  0.98225298404E+03  0.17302464761E+03 0.  0.
         24    2    5    5    0    0 -0.12833757797E+03  0.12853374034E+02  0.66232684566E+03  0.67955043997E+03  0.80474883220E+02 0.  0.
          5    1    5    5  501    0  0.33976315123E+02  0.34228348630E+02  0.29879887943E+03  0.30270254407E+03  0.47000000000E+01 0. -1.
        -13    1    6    6    0    0 -0.65260705247E+02 -0.30202738765E+02  0.39660066297E+03  0.40306730324E+03  0.00000000000E+00 0.  1.
         14    1    6    6    0    0 -0.63076872721E+02  0.43056112799E+02  0.26572618270E+03  0.27648313672E+03  0.00000000000E+00 0. -1.
         -5    1    3    3    0  503  0.69180677032E+02 -0.52914804528E+02  0.14696826836E+01  0.87236417740E+02  0.47000000000E+01 0.  1.
         11    1    4    4    0    0  0.76388722506E+01 -0.24342644642E+02  0.60448242200E+01  0.26219393916E+02  0.00000000000E+00 0. -1.
        -12    1    4    4    0    0  0.17541713563E+02  0.30175726506E+02  0.11601075741E+03  0.12114776935E+03  0.00000000000E+00 0.  1.
</event>
<event>
12    1  0.8133495E-002  0.2017565E+03  0.7818608E-02  0.1148427E+00
         21   -1    0    0  503  502  0.00000000000E+00  0.00000000000E+00  0.10976862320E+03  0.10976862320E+03  0.00000000000E+00 0.  1.
         21   -1    0    0  501  503 -0.00000000000E+00 -0.00000000000E+00 -0.50745073768E+03  0.50745073768E+03  0.00000000000E+00 0.  1.
          6    2    1    2  501    0 -0.20125428937E+02  0.10250164879E+03 -0.35952188217E+03  0.41188571324E+03  0.17170391992E+03 0.  0.
         24    2    3    3    0    0 -0.88857131587E+01  0.53471690323E+00 -0.76024803444E+02  0.11036246363E+03  0.79503841535E+02 0.  0.
         -6    2    1    2    0  502  0.20125428937E+02 -0.10250164879E+03 -0.38160232308E+02  0.20533364765E+03  0.17260962497E+03 0.  0.
        -24    2    5    5    0    0  0.17271739279E+02  0.15740636434E+02 -0.21961360770E+01  0.81620722786E+02  0.78173133245E+02 0.  0.
          5    1    3    3  501    0 -0.11239715779E+02  0.10196693189E+03 -0.28349707872E+03  0.30152324961E+03  0.47000000000E+01 0. -1.
        -13    1    4    4    0    0 -0.20533469256E+02  0.35464255146E+02 -0.52770257230E+02  0.66813447755E+02  0.00000000000E+00 0.  1.
         14    1    4    4    0    0  0.11647756097E+02 -0.34929538243E+02 -0.23254546214E+02  0.43549015874E+02  0.00000000000E+00 0. -1.
         -5    1    5    5    0  502  0.28536896579E+01 -0.11824228522E+03 -0.35964096231E+02  0.12371292486E+03  0.47000000000E+01 0.  1.
         11    1    6    6    0    0  0.15411785616E+02  0.17063340951E+02 -0.38716337699E+02  0.45029274313E+02  0.00000000000E+00 0. -1.
        -12    1    6    6    0    0  0.18599536630E+01 -0.13227045165E+01  0.36520201622E+02  0.36591448473E+02  0.00000000000E+00 0.  1.
</event>
<event>
12    1  0.8133495E-002  0.2493351E+03  0.7818608E-02  0.1113816E+00
         21   -1    0    0  503  502  0.00000000000E+00  0.00000000000E+00  0.21898404177E+03  0.21898404177E+03  0.00000000000E+00 0.  1.
         21   -1    0    0  501  503 -0.00000000000E+00 -0.00000000000E+00 -0.31270215406E+03  0.31270215406E+03  0.00000000000E+00 0. -1.
          6    2    1    2  501    0  0.17997454533E+03  0.86968005575E+01 -0.12840024280E+03  0.27995057115E+03  0.17152034465E+03 0.  0.
         24    2    3    3    0    0  0.19448599272E+03 -0.25770045563E+02 -0.11104378749E+03  0.23845500358E+03  0.77724959836E+02 0.  0.
         -6    2    1    2    0  502 -0.17997454533E+03 -0.86968005575E+01  0.34682130511E+02  0.25173562468E+03  0.17234124071E+03 0.  0.
        -24    2    5    5    0    0 -0.13173936048E+03  0.42389311087E+02  0.68407347096E+02  0.17365935368E+03  0.79535483829E+02 0.  0.
          5    1    3    3  501    0 -0.14511447385E+02  0.34466846120E+02 -0.17356455311E+02  0.41495567566E+02  0.47000000000E+01 0. -1.
        -11    1    4    4    0    0  0.14686583488E+03 -0.36928708448E+02 -0.11385669131E+03  0.18946411037E+03  0.00000000000E+00 0.  1.
         12    1    4    4    0    0  0.47620157840E+02  0.11158662885E+02  0.28129038168E+01  0.48990893214E+02  0.00000000000E+00 0. -1.
         -5    1    5    5    0  502 -0.48235184852E+02 -0.51086111644E+02 -0.33725216585E+02  0.78076271007E+02  0.47000000000E+01 0.  1.
         13    1    6    6    0    0 -0.21876724125E+02 -0.22990427810E+02  0.15122713859E+02  0.35154619949E+02  0.00000000000E+00 0. -1.
        -14    1    6    6    0    0 -0.10986263636E+03  0.65379738897E+02  0.53284633237E+02  0.13850473373E+03  0.00000000000E+00 0.  1.
</event>
<event>
12    1  0.8133495E-002  0.1739313E+03  0.7818608E-02  0.1174130E+00
         21   -1    0    0  503  502  0.00000000000E+00  0.00000000000E+00  0.22019810154E+03  0.22019810154E+03  0.00000000000E+00 0. -1.
         21   -1    0    0  501  503 -0.00000000000E+00 -0.00000000000E+00 -0.14014494957E+03  0.14014494957E+03  0.00000000000E+00 0. -1.
          6    2    1    2  501    0  0.25403100142E+02  0.38572811802E+01  0.10389353449E+02  0.17297942202E+03  0.17074467975E+03 0.  0.
         24    2    3    3    0    0  0.19176222007E+02  0.67667426176E+02  0.22834849659E+02  0.10750050182E+03  0.78027684036E+02 0.  0.
         -6    2    1    2    0  502 -0.25403100142E+02 -0.38572811802E+01  0.69663798529E+02  0.18736362909E+03  0.17202293034E+03 0.  0.
        -24    2    5    5    0    0  0.99501117175E+01  0.56288191549E+02  0.16785053483E+02  0.99696194104E+02  0.79938900839E+02 0.  0.
          5    1    3    3  501    0  0.62268781348E+01 -0.63810144996E+02 -0.12445496209E+02  0.65478920208E+02  0.47000000000E+01 0. -1.
        -11    1    4    4    0    0  0.39897928449E+01  0.24810105833E+02  0.48980761612E+02  0.55050656731E+02  0.00000000000E+00 0.  1.
         12    1    4    4    0    0  0.15186429162E+02  0.42857320343E+02 -0.26145911953E+02  0.52449845086E+02  0.00000000000E+00 0. -1.
         -5    1    5    5    0  502 -0.35353211859E+02 -0.60145472729E+02  0.52878745046E+02  0.87667434981E+02  0.47000000000E+01 0.  1.
         13    1    6    6    0    0  0.25707303100E+02 -0.20391665102E+00  0.30070379884E+02  0.39561784098E+02  0.00000000000E+00 0. -1.
        -14    1    6    6    0    0 -0.15757191383E+02  0.56492108200E+02 -0.13285326401E+02  0.60134410005E+02  0.00000000000E+00 0.  1.
</event>
<event>
12    1  0.8133495E-002  0.2340698E+03  0.7818608E-02  0.1124061E+00
         21   -1    0    0  501  502  0.00000000000E+00  0.00000000000E+00  0.68803840918E+03  0.68803840918E+03  0.00000000000E+00 0. -1.
         21   -1    0    0  502  503 -0.00000000000E+00 -0.00000000000E+00 -0.23730156890E+03  0.23730156890E+03  0.00000000000E+00 0. -1.
         -6    2    1    2    0  503  0.15647573601E+03 -0.28722878530E+02 -0.15259912225E+03  0.27819011146E+03  0.16968672986E+03 0.  0.
        -24    2    3    3    0    0  0.22131368286E+02 -0.54192244761E+01 -0.12870772524E+02  0.82901680803E+02  0.78662992814E+02 0.  0.
          6    2    1    2  501    0 -0.15647573601E+03  0.28722878530E+02  0.60333596253E+03  0.64714986662E+03  0.17169451498E+03 0.  0.
         24    2    5    5    0    0 -0.83415730609E+02  0.61596138279E+02  0.49227790647E+03  0.51013016945E+03  0.84516177292E+02 0.  0.
          5    1    5    5  501    0 -0.73060005404E+02 -0.32873259750E+02  0.11105805606E+03  0.13701969717E+03  0.47000000000E+01 0. -1.
        -11    1    6    6    0    0 -0.29756545050E+02  0.82567110119E+01  0.35171399644E+02  0.46804407944E+02  0.00000000000E+00 0.  1.
         12    1    6    6    0    0 -0.53659185559E+02  0.53339427268E+02  0.45710650683E+03  0.46332576151E+03  0.00000000000E+00 0. -1.
         -5    1    3    3    0  503  0.13434436773E+03 -0.23303654053E+02 -0.13972834972E+03  0.19528843066E+03  0.47000000000E+01 0.  1.
         11    1    4    4    0    0  0.19586653765E+02 -0.40139956506E+02 -0.17113662303E+02  0.47830226337E+02  0.00000000000E+00 0. -1.
        -12    1    4    4    0    0  0.25447145215E+01  0.34720732030E+02  0.42428897789E+01  0.35071454466E+02  0.00000000000E+00 0.  1.
</event>
<event>
12    1  0.8133495E-002  0.1740406E+03  0.7818608E-02  0.1174160E+00
         21   -1    0    0  501  502  0.00000000000E+00  0.00000000000E+00  0.10085842781E+04  0.10085842781E+04  0.00000000000E+00 0.  1.
         21   -1    0    0  502  503 -0.00000000000E+00 -0.00000000000E+00 -0.29975415041E+02  0.29975415041E+02  0.00000000000E+00 0.  1.
         -6    2    1    2    0  503  0.23275813088E+02 -0.81616060532E+01  0.53979919484E+03  0.56716249946E+03  0.17228393644E+03 0.  0.
        -24    2    3    3    0    0  0.15669178360E+02 -0.57309003992E+02  0.47562664059E+03  0.48583886000E+03  0.79302279660E+02 0.  0.
          6    2    1    2  501    0 -0.23275813088E+02  0.81616060532E+01  0.43880966821E+03  0.47139719367E+03  0.17044944704E+03 0.  0.
         24    2    5    5    0    0  0.42482530530E+02  0.12116655947E+02  0.34410677664E+03  0.35593927992E+03  0.79572096315E+02 0.  0.
          5    1    5    5  501    0 -0.65758343618E+02 -0.39550498941E+01  0.94702891575E+02  0.11545791375E+03  0.47000000000E+01 0. -1.
        -13    1    6    6    0    0 -0.21035139189E+02  0.14259801685E+02  0.67502772869E+02  0.72127965241E+02  0.00000000000E+00 0.  1.
         14    1    6    6    0    0  0.63517669719E+02 -0.21431457379E+01  0.27660400377E+03  0.28381131468E+03  0.00000000000E+00 0. -1.
         -5    1    3    3    0  503  0.76066347287E+01  0.49147397939E+02  0.64172554250E+02  0.81323639460E+02  0.47000000000E+01 0.  1.
         11    1    4    4    0    0 -0.28274763644E+02 -0.27884713757E+01  0.11335000136E+03  0.11685658150E+03  0.00000000000E+00 0. -1.
        -12    1    4    4    0    0  0.43943942003E+02 -0.54520532616E+02  0.36227663923E+03  0.36898227850E+03  0.00000000000E+00 0.  1.
</event>
<event>
12    1  0.8133495E-002  0.1794664E+03  0.7818608E-02  0.1168432E+00
         21   -1    0    0  501  502  0.00000000000E+00  0.00000000000E+00  0.29648223032E+02  0.29648223032E+02  0.00000000000E+00 0.  1.
         21   -1    0    0  502  503 -0.00000000000E+00 -0.00000000000E+00 -0.11059390109E+04  0.11059390109E+04  0.00000000000E+00 0.  1.
         -6    2    1    2    0  503  0.45968383679E+02  0.11201219048E+02 -0.45808751699E+03  0.49198815791E+03  0.17311734370E+03 0.  0.
        -24    2    3    3    0    0 -0.58853296652E+01  0.59844175976E+02 -0.34023209167E+03  0.35426765790E+03  0.78305393954E+02 0.  0.
          6    2    1    2  501    0 -0.45968383679E+02 -0.11201219048E+02 -0.61820327089E+03  0.64359907604E+03  0.17264393106E+03 0.  0.
         24    2    5    5    0    0 -0.18404086099E+02 -0.20987091461E+02 -0.16746285660E+03  0.19188615296E+03  0.89427730403E+02 0.  0.
          5    1    5    5  501    0 -0.27564297580E+02  0.97858724133E+01 -0.45074041428E+03  0.45171292307E+03  0.47000000000E+01 0. -1.
        -11    1    6    6    0    0 -0.43918380787E+02  0.17041496434E+02 -0.72546777553E+02  0.86500125462E+02  0.00000000000E+00 0.  1.
         12    1    6    6    0    0  0.25514294688E+02 -0.38028587895E+02 -0.94916079049E+02  0.10538602750E+03  0.00000000000E+00 0. -1.
         -5    1    3    3    0  503  0.51853713345E+02 -0.48642956928E+02 -0.11785542532E+03  0.13772050001E+03  0.47000000000E+01 0.  1.
         11    1    4    4    0    0  0.48333801576E+01  0.58073259037E+02 -0.33823914600E+03  0.34322235484E+03  0.00000000000E+00 0. -1.
        -12    1    4    4    0    0 -0.10718709823E+02  0.17709169388E+01 -0.19929456778E+01  0.11045303054E+02  0.00000000000E+00 0.  1.
</event>
<event>
12    1  0.8133495E-002  0.3646194E+03  0.7818608E-02  0.1056889E+00
         21   -1    0    0  501  502  0.00000000000E+00  0.00000000000E+00  0.30741838158E+03  0.30741838158E+03  0.00000000000E+00 0.  1.
         21   -1    0    0  502  503 -0.00000000000E+00 -0.00000000000E+00 -0.11924581252E+04  0.11924581252E+04  0.00000000000E+00 0. -1.
         -6    2    1    2    0  503 -0.11545783100E+03  0.29965872424E+03 -0.10415209465E+04  0.11030973693E+04  0.17009427525E+03 0.  0.
        -24    2    3    3    0    0 -0.11902140830E+03  0.20628072590E+03 -0.89237452671E+03  0.92703234102E+03  0.79616781362E+02 0.  0.
          6    2    1    2  501    0  0.11545783100E+03 -0.29965872424E+03  0.15648120286E+03  0.39677913747E+03  0.17268889754E+03 0.  0.
         24    2    5    5    0    0  0.17979943613E+02 -0.93208347177E+02  0.78284067343E+01  0.12430264213E+03  0.79867318303E+02 0.  0.
          5    1    5    5  501    0  0.97477887385E+02 -0.20645037706E+03  0.14865279613E+03  0.27247649534E+03  0.47000000000E+01 0. -1.
        -11    1    6    6    0    0 -0.66802057565E+01 -0.15483895520E+02  0.34589187291E+02  0.38481008912E+02  0.00000000000E+00 0.  1.
         12    1    6    6    0    0  0.24660149369E+02 -0.77724451657E+02 -0.26760780557E+02  0.85821633219E+02  0.00000000000E+00 0. -1.
         -5    1    3    3    0  503  0.35635772992E+01  0.93377998338E+02 -0.14914641981E+03  0.17606502833E+03  0.47000000000E+01 0.  1.
         11    1    4    4    0    0 -0.81750665994E+02  0.17982579312E+03 -0.61581157027E+03  0.64671815912E+03  0.00000000000E+00 0. -1.
        -12    1    4    4    0    0 -0.37270742303E+02  0.26454932780E+02 -0.27656295644E+03  0.28031418190E+03  0.00000000000E+00 0.  1.
</event>
<event>
12    1  0.8133495E-002  0.2320116E+03  0.7818608E-02  0.1125413E+00
         21   -1    0    0  503  502  0.00000000000E+00  0.00000000000E+00  0.52692371228E+02  0.52692371228E+02  0.00000000000E+00 0. -1.
         21   -1    0    0  501  503 -0.00000000000E+00 -0.00000000000E+00 -0.11663700215E+04  0.11663700215E+04  0.00000000000E+00 0. -1.
          6    2    1    2  501    0  0.20400572969E+02 -0.15302654981E+03 -0.33762528040E+03  0.40907062139E+03  0.17179823921E+03 0.  0.
         24    2    3    3    0    0  0.28563449707E+01 -0.52770241382E+02 -0.27300723210E+03  0.28841943209E+03  0.76550394790E+02 0.  0.
         -6    2    1    2    0  502 -0.20400572969E+02  0.15302654981E+03 -0.77605236990E+03  0.80999177137E+03  0.17319376585E+03 0.  0.
        -24    2    5    5    0    0  0.28569863104E+02  0.15485038203E+03 -0.67156582710E+03  0.69448870821E+03  0.80740496668E+02 0.  0.
          5    1    3    3  501    0  0.17544227998E+02 -0.10025630842E+03 -0.64618048297E+02  0.12065118930E+03  0.47000000000E+01 0. -1.
        -11    1    4    4    0    0  0.16227423003E+02 -0.54930682690E+02 -0.26788309875E+03  0.27393806554E+03  0.00000000000E+00 0.  1.
         12    1    4    4    0    0 -0.13371078032E+02  0.21604413088E+01 -0.51241333570E+01  0.14481366546E+02  0.00000000000E+00 0. -1.
         -5    1    5    5    0  502 -0.48970436073E+02 -0.18238322243E+01 -0.10448654280E+03  0.11550306316E+03  0.47000000000E+01 0.  1.
         11    1    6    6    0    0 -0.14955196716E+02  0.36713771243E+02 -0.28979939310E+03  0.29249828572E+03  0.00000000000E+00 0. -1.
        -12    1    6    6    0    0  0.43525059821E+02  0.11813661079E+03 -0.38176643401E+03  0.40199042249E+03  0.00000000000E+00 0.  1.
</event>
<event>
12    1  0.8133495E-002  0.1903526E+03  0.7818608E-02  0.1158178E+00
         21   -1    0    0  503  502  0.00000000000E+00  0.00000000000E+00  0.29664791671E+02  0.29664791671E+02  0.00000000000E+00 0. -1.
         21   -1    0    0  501  503 -0.00000000000E+00 -0.00000000000E+00 -0.13921620655E+04  0.13921620655E+04  0.00000000000E+00 0. -1.
          6    2    1    2  501    0  0.77988982790E+02  0.28859377184E+02 -0.93114833348E+03  0.95040586921E+03  0.17122777873E+03 0.  0.
         24    2    3    3    0    0  0.71704232397E+02  0.10563205369E+02 -0.29088409679E+03  0.30983219603E+03  0.78290188926E+02 0.  0.
         -6    2    1    2    0  502 -0.77988982790E+02 -0.28859377184E+02 -0.43134894034E+03  0.47142098795E+03  0.17105757643E+03 0.  0.
        -24    2    5    5    0    0  0.99588685198E+01 -0.41373258550E+02 -0.13192148971E+03  0.15905852227E+03  0.78009028143E+02 0.  0.
          5    1    3    3  501    0  0.62847503928E+01  0.18296171816E+02 -0.64026423669E+03  0.64057367318E+03  0.47000000000E+01 0. -1.
        -13    1    4    4    0    0  0.17508961032E+02  0.33024315948E+02 -0.18541505717E+03  0.18914521561E+03  0.00000000000E+00 0.  1.
         14    1    4    4    0    0  0.54195271365E+02 -0.22461110579E+02 -0.10546903961E+03  0.12068698042E+03  0.00000000000E+00 0. -1.
         -5    1    5    5    0  502 -0.87947851310E+02  0.12513881366E+02 -0.29942745063E+03  0.31236246568E+03  0.47000000000E+01 0.  1.
         11    1    6    6    0    0  0.15016982006E+01  0.12256639158E+01  0.10234412574E+02  0.10416359741E+02  0.00000000000E+00 0. -1.
        -12    1    6    6    0    0  0.84571703192E+01 -0.42598922466E+02 -0.14215590229E+03  0.14864216252E+03  0.00000000000E+00 0.  1.
</event>
<event>
12    1  0.8133495E-002  0.2494848E+03  0.7818608E-02  0.1113828E+00
         21   -1    0    0  503  502  0.00000000000E+00  0.00000000000E+00  0.23220457183E+03  0.23220457183E+03  0.00000000000E+00 0. -1.
         21   -1    0    0  501  503 -0.00000000000E+00 -0.00000000000E+00 -0.55894904810E+03  0.55894904810E+03  0.00000000000E+00 0.  1.
          6    2    1    2  501    0  0.15811187535E+03 -0.87711061101E+02 -0.44920561106E+03  0.51323381825E+03  0.17009019908E+03 0.  0.
         24    2    3    3    0    0  0.14230583713E+03 -0.32529719650E+02 -0.21265197834E+03  0.26977022253E+03  0.79031481880E+02 0.  0.
         -6    2    1    2    0  502 -0.15811187535E+03  0.87711061101E+02  0.12246113479E+03  0.27791980168E+03  0.17190139983E+03 0.  0.
        -24    2    5    5    0    0 -0.13650078389E+03  0.25825928408E+02  0.27192689159E+02  0.16218313655E+03  0.79148498753E+02 0.  0.
          5    1    3    3  501    0  0.15806038216E+02 -0.55181341451E+02 -0.23655363273E+03  0.24346359573E+03  0.47000000000E+01 0. -1.
        -13    1    4    4    0    0  0.56632371442E+02 -0.66118046717E+01 -0.15011850980E+03  0.16058178116E+03  0.00000000000E+00 0.  1.
         14    1    4    4    0    0  0.85673465692E+02 -0.25917914978E+02 -0.62533468537E+02  0.10918844137E+03  0.00000000000E+00 0. -1.
         -5    1    5    5    0  502 -0.21611091456E+02  0.61885132693E+02  0.95268445628E+02  0.11573666513E+03  0.47000000000E+01 0.  1.
         13    1    6    6    0    0 -0.10620832022E+03  0.60438591926E+01  0.51906687710E+02  0.11836823792E+03  0.00000000000E+00 0. -1.
        -14    1    6    6    0    0 -0.30292463671E+02  0.19782069215E+02 -0.24713998550E+02  0.43814898631E+02  0.00000000000E+00 0.  1.
</event>
<event>
12    1  0.8133495E-002  0.2335648E+03  0.7818608E-02  0.1124509E+00
         21   -1    0    0  501  502  0.00000000000E+00  0.00000000000E+00  0.95610878161E+03  0.95610878161E+03  0.00000000000E+00 0. -1.
         21   -1    0    0  502  503 -0.00000000000E+00 -0.00000000000E+00 -0.59760963643E+02  0.59760963643E+02  0.00000000000E+00 0.  1.
         -6    2    1    2    0  503  0.45010711559E+02 -0.15146225219E+03  0.32875663456E+03  0.40210085420E+03  0.16922586737E+03 0.  0.
        -24    2    3    3    0    0  0.16791632457E+02 -0.11376176350E+02  0.88133341010E+02  0.12220429390E+03  0.82188973355E+02 0.  0.
          6    2    1    2  501    0 -0.45010711559E+02  0.15146225219E+03  0.56759118340E+03  0.61376889105E+03  0.17200500618E+03 0.  0.
         24    2    5    5    0    0 -0.80708815376E+02  0.93264668203E+02  0.48499597752E+03  0.50650579659E+03  0.78197266943E+02 0.  0.
          5    1    5    5  501    0  0.35698103817E+02  0.58197583984E+02  0.82595205889E+02  0.10726309446E+03  0.47000000000E+01 0. -1.
        -11    1    6    6    0    0 -0.55710793022E+02  0.65175873255E+02  0.18199873720E+03  0.20118431165E+03  0.00000000000E+00 0.  1.
         12    1    6    6    0    0 -0.24998022355E+02  0.28088794948E+02  0.30299724032E+03  0.30532148494E+03  0.00000000000E+00 0. -1.
         -5    1    3    3    0  503  0.28219079103E+02 -0.14008607584E+03  0.24062329355E+03  0.27989656030E+03  0.47000000000E+01 0.  1.
         13    1    4    4    0    0 -0.29971444633E+02  0.10030725663E+01  0.57772837534E+02  0.65092199261E+02  0.00000000000E+00 0. -1.
        -14    1    4    4    0    0  0.46763077090E+02 -0.12379248917E+02  0.30360503476E+02  0.57112094638E+02  0.00000000000E+00 0.  1.
</event>
<event>
12    1  0.8133495E-002  0.3530814E+03  0.7818608E-02  0.1061375E+00
         21   -1    0    0  501  502  0.00000000000E+00  0.00000000000E+00  0.29361098949E+03  0.29361098949E+03  0.00000000000E+00 0. -1.
         21   -1    0    0  502  503 -0.00000000000E+00 -0.00000000000E+00 -0.42456266439E+03  0.42456266439E+03  0.00000000000E+00 0. -1.
         -6    2    1    2    0  503 -0.11103804545E+03 -0.28755886215E+03 -0.72871294343E+02  0.36052282109E+03  0.17218284540E+03 0.  0.
        -24    2    3    3    0    0 -0.66059301387E+02 -0.27262036812E+03 -0.96207379747E+02  0.30748595747E+03  0.81277658110E+02 0.  0.
          6    2    1    2  501    0  0.11103804545E+03  0.28755886215E+03 -0.58080380565E+02  0.35765083279E+03  0.17181746377E+03 0.  0.
         24    2    5    5    0    0  0.10451005370E+02  0.15310603171E+03 -0.76643547587E+02  0.18864788189E+03  0.78505474302E+02 0.  0.
          5    1    5    5  501    0  0.10058704008E+03  0.13445283043E+03  0.18563167023E+02  0.16900295090E+03  0.47000000000E+01 0. -1.
        -13    1    6    6    0    0 -0.21025422681E+02  0.59376668110E+01 -0.85111825750E+01  0.23447057702E+02  0.00000000000E+00 0.  1.
         14    1    6    6    0    0  0.31476428050E+02  0.14716836490E+03 -0.68132365012E+02  0.16520082419E+03  0.00000000000E+00 0. -1.
         -5    1    3    3    0  503 -0.44978744060E+02 -0.14938494027E+02  0.23336085404E+02  0.53036863623E+02  0.47000000000E+01 0.  1.
         11    1    4    4    0    0  0.11989790829E+02 -0.10434150642E+03 -0.49985264126E+02  0.11631608519E+03  0.00000000000E+00 0. -1.
        -12    1    4    4    0    0 -0.78049092216E+02 -0.16827886170E+03 -0.46222115621E+02  0.19116987227E+03  0.00000000000E+00 0.  1.
</event>
<event>
12    1  0.8133495E-002  0.1863644E+03  0.7818608E-02  0.1161880E+00
         21   -1    0    0  501  502  0.00000000000E+00  0.00000000000E+00  0.10293522097E+04  0.10293522097E+04  0.00000000000E+00 0.  1.
         21   -1    0    0  502  503 -0.00000000000E+00 -0.00000000000E+00 -0.10763571579E+03  0.10763571579E+03  0.00000000000E+00 0.  1.
         -6    2    1    2    0  503  0.37293674775E+02 -0.61915464668E+02 -0.10584485868E+02  0.18624252794E+03  0.17131813953E+03 0.  0.
        -24    2    3    3    0    0 -0.32553441378E+02 -0.56010766026E+01 -0.34630499514E+02  0.93235911457E+02  0.80016030169E+02 0.  0.
          6    2    1    2  501    0 -0.37293674775E+02  0.61915464668E+02  0.93230097976E+03  0.95074539753E+03  0.17177703893E+03 0.  0.
         24    2    5    5    0    0 -0.38697468558E+02  0.21273150054E+02  0.87801749623E+03  0.88275602366E+03  0.79958943415E+02 0.  0.
          5    1    5    5  501    0  0.14037937826E+01  0.40642314614E+02  0.54283483534E+02  0.67989373866E+02  0.47000000000E+01 0. -1.
        -13    1    6    6    0    0 -0.12653952733E+02 -0.30662637177E+02  0.30246805441E+03  0.30428152059E+03  0.00000000000E+00 0.  1.
         14    1    6    6    0    0 -0.26043515825E+02  0.51935787231E+02  0.57554944183E+03  0.57847450307E+03  0.00000000000E+00 0. -1.
         -5    1    3    3    0  503  0.69847116153E+02 -0.56314388066E+02  0.24046013646E+02  0.93006616488E+02  0.47000000000E+01 0.  1.
         11    1    4    4    0    0 -0.15323320470E+02  0.16170619697E+02  0.21281914151E+02  0.30809299920E+02  0.00000000000E+00 0. -1.
        -12    1    4    4    0    0 -0.17230120908E+02 -0.21771696299E+02 -0.55912413665E+02  0.62426611538E+02  0.00000000000E+00 0.  1.
</event>
<event>
12    1  0.8133495E-002  0.1792007E+03  0.7818608E-02  0.1169031E+00
         21   -1    0    0  501  502  0.00000000000E+00  0.00000000000E+00  0.30106132861E+03  0.30106132861E+03  0.00000000000E+00 0.  1.
         21   -1    0    0  502  503 -0.00000000000E+00 -0.00000000000E+00 -0.10846712222E+03  0.10846712222E+03  0.00000000000E+00 0.  1.
         -6    2    1    2    0  503  0.43319535338E+02  0.21736281021E+01  0.62339079671E+02  0.18799000443E+03  0.17196736350E+03 0.  0.
        -24    2    3    3    0    0 -0.41259404769E+01 -0.58830150490E+02  0.32701050247E+02  0.10508622306E+03  0.80596188481E+02 0.  0.
          6    2    1    2  501    0 -0.43319535338E+02 -0.21736281021E+01  0.13025512672E+03  0.22153844640E+03  0.17387230485E+03 0.  0.
         24    2    5    5    0    0 -0.26712058351E+02 -0.27500816781E+02  0.15790784056E+03  0.18025845898E+03  0.78028180421E+02 0.  0.
          5    1    5    5  501    0 -0.16607476987E+02  0.25327188679E+02 -0.27652713839E+02  0.41279987414E+02  0.47000000000E+01 0. -1.
        -13    1    6    6    0    0 -0.93782628092E+01 -0.53394394193E+02  0.11593399803E+03  0.12798283105E+03  0.00000000000E+00 0.  1.
         14    1    6    6    0    0 -0.17333795542E+02  0.25893577412E+02  0.41973842531E+02  0.52275627934E+02  0.00000000000E+00 0. -1.
         -5    1    3    3    0  503  0.47445475815E+02  0.61003778592E+02  0.29638029424E+02  0.82903781373E+02  0.47000000000E+01 0.  1.
         11    1    4    4    0    0 -0.13785180852E+02 -0.27936616298E+02  0.56765912351E+02  0.64752255145E+02  0.00000000000E+00 0. -1.
        -12    1    4    4    0    0  0.96592403752E+01 -0.30893534192E+02 -0.24064862104E+02  0.40333967913E+02  0.00000000000E+00 0.  1.
</event>
<event>
12    1  0.8133495E-002  0.2415546E+03  0.7818608E-02  0.1118992E+00
         21   -1    0    0  501  502  0.00000000000E+00  0.00000000000E+00  0.55807979006E+02  0.55807979006E+02  0.00000000000E+00 0. -1.
         21   -1    0    0  502  503 -0.00000000000E+00 -0.00000000000E+00 -0.10492232780E+04  0.10492232780E+04  0.00000000000E+00 0.  1.
         -6    2    1    2    0  503  0.10193868632E+03  0.13507936324E+03 -0.44214186904E+03  0.50315832030E+03  0.17041400408E+03 0.  0.
        -24    2    3    3    0    0  0.48900490828E+02  0.15404627446E+03 -0.29043682048E+03  0.34126543701E+03  0.77375959627E+02 0.  0.
          6    2    1    2  501    0 -0.10193868632E+03 -0.13507936324E+03 -0.55127342999E+03  0.60187293674E+03  0.17236794142E+03 0.  0.
         24    2    5    5    0    0 -0.26323979673E+02 -0.11017013941E+02 -0.29813314936E+03  0.30996346096E+03  0.79872685447E+02 0.  0.
          5    1    5    5  501    0 -0.75614706646E+02 -0.12406234930E+03 -0.25314028063E+03  0.29190947578E+03  0.47000000000E+01 0. -1.
        -13    1    6    6    0    0 -0.33518448124E+02 -0.32032024086E+02 -0.27081259982E+03  0.27475261810E+03  0.00000000000E+00 0.  1.
         14    1    6    6    0    0  0.71944684515E+01  0.21015010145E+02 -0.27320549540E+02  0.35210842859E+02  0.00000000000E+00 0. -1.
         -5    1    3    3    0  503  0.53038195491E+02 -0.18966911215E+02 -0.15170504856E+03  0.16189288329E+03  0.47000000000E+01 0.  1.
         13    1    4    4    0    0 -0.33585144727E+01  0.15169865871E+02 -0.92983004201E+02  0.94272177870E+02  0.00000000000E+00 0. -1.
        -14    1    4    4    0    0  0.52259005300E+02  0.13887640859E+03 -0.19745381628E+03  0.24699325914E+03  0.00000000000E+00 0.  1.
</event>
<event>
12    1  0.8133495E-002  0.1786748E+03  0.7818608E-02  0.1169894E+00
         21   -1    0    0  501  502  0.00000000000E+00  0.00000000000E+00  0.23635809982E+03  0.23635809982E+03  0.00000000000E+00 0. -1.
         21   -1    0    0  502  503 -0.00000000000E+00 -0.00000000000E+00 -0.13419878349E+03  0.13419878349E+03  0.00000000000E+00 0. -1.
         -6    2    1    2    0  503 -0.23339030609E+02 -0.42826940407E+02  0.71619504603E+02  0.19249429280E+03  0.17188904022E+03 0.  0.
        -24    2    3    3    0    0  0.44065919762E+02  0.81707492841E+00  0.10821828747E+02  0.91664362728E+02  0.79641512549E+02 0.  0.
          6    2    1    2  501    0  0.23339030609E+02  0.42826940407E+02  0.30539811730E+02  0.17806259051E+03  0.16850741486E+03 0.  0.
         24    2    5    5    0    0  0.76272825388E+02  0.92766718844E+01  0.82696892700E+01  0.11138684153E+03  0.80218702130E+02 0.  0.
          5    1    5    5  501    0 -0.52933794779E+02  0.33550268523E+02  0.22270122460E+02  0.66675748980E+02  0.47000000000E+01 0. -1.
        -11    1    6    6    0    0 -0.15757987809E+02  0.10213501609E+02 -0.14779223277E+01  0.18836508416E+02  0.00000000000E+00 0.  1.
         12    1    6    6    0    0  0.92030813196E+02 -0.93682972462E+00  0.97476115977E+01  0.92550333113E+02  0.00000000000E+00 0. -1.
         -5    1    3    3    0  503 -0.67404950371E+02 -0.43644015335E+02  0.60797675856E+02  0.10082993007E+03  0.47000000000E+01 0.  1.
         11    1    4    4    0    0 -0.53352086341E+01 -0.30807246811E+02 -0.29756268463E+01  0.31407089365E+02  0.00000000000E+00 0. -1.
        -12    1    4    4    0    0  0.49401128396E+02  0.31624321740E+02  0.13797455594E+02  0.60257273363E+02  0.00000000000E+00 0.  1.
</event>
<event>
12    1  0.8133495E-002  0.2266034E+03  0.7818608E-02  0.1129184E+00
         21   -1    0    0  501  502  0.00000000000E+00  0.00000000000E+00  0.34950998021E+03  0.34950998021E+03  0.00000000000E+00 0.  1.
         21   -1    0    0  502  503 -0.00000000000E+00 -0.00000000000E+00 -0.25559716393E+03  0.25559716393E+03  0.00000000000E+00 0. -1.
         -6    2    1    2    0  503 -0.14674101393E+03  0.20138983199E+02 -0.15079968178E+03  0.27159053545E+03  0.17053554206E+03 0.  0.
        -24    2    3    3    0    0 -0.55234652462E+02  0.61828210429E+02 -0.39517292488E+02  0.12153299308E+03  0.79593074842E+02 0.  0.
          6    2    1    2  501    0  0.14674101393E+03 -0.20138983199E+02  0.24471249806E+03  0.33351660869E+03  0.17149524120E+03 0.  0.
         24    2    5    5    0    0  0.15983026146E+03 -0.14100432083E+02  0.25745621563E+03  0.31371042687E+03  0.79912416414E+02 0.  0.
          5    1    5    5  501    0 -0.13089247532E+02 -0.60385511160E+01 -0.12743717576E+02  0.19806181818E+02  0.47000000000E+01 0. -1.
        -13    1    6    6    0    0  0.10779913126E+03  0.19752210963E+02  0.20493183369E+03  0.23239591003E+03  0.00000000000E+00 0.  1.
         14    1    6    6    0    0  0.52031130200E+02 -0.33852643046E+02  0.52524381943E+02  0.81314516844E+02  0.00000000000E+00 0. -1.
         -5    1    3    3    0  503 -0.91506361467E+02 -0.41689227230E+02 -0.11128238930E+03  0.15005754237E+03  0.47000000000E+01 0.  1.
         13    1    4    4    0    0  0.65338328536E+01  0.41277869658E+02 -0.37896626944E+02  0.56415492810E+02  0.00000000000E+00 0. -1.
        -14    1    4    4    0    0 -0.61768485316E+02  0.20550340771E+02 -0.16206655440E+01  0.65117500266E+02  0.00000000000E+00 0.  1.
</event>
<event>
12    1  0.8133495E-002  0.2020132E+03  0.7818608E-02  0.1149042E+00
         21   -1    0    0  503  502  0.00000000000E+00  0.00000000000E+00  0.21430805422E+03  0.21430805422E+03  0.00000000000E+00 0. -1.
         21   -1    0    0  501  503 -0.00000000000E+00 -0.00000000000E+00 -0.18608617668E+03  0.18608617668E+03  0.00000000000E+00 0. -1.
          6    2    1    2  501    0  0.37424536328E+01 -0.10566116831E+03  0.18031946327E+02  0.20281639116E+03  0.17213671598E+03 0.  0.
         24    2    3    3    0    0 -0.28546593009E+02 -0.47825833210E+02  0.71863064202E+02  0.11733313098E+03  0.74165661424E+02 0.  0.
         -6    2    1    2    0  502 -0.37424536328E+01  0.10566116831E+03  0.10189931215E+02  0.19757783975E+03  0.16659795801E+03 0.  0.
        -24    2    5    5    0    0 -0.61091658821E+02  0.70263827515E+02  0.27960702593E+02  0.12772232181E+03  0.82837155696E+02 0.  0.
          5    1    3    3  501    0  0.32289046642E+02 -0.57835335103E+02 -0.53831117875E+02  0.85483260181E+02  0.47000000000E+01 0. -1.
        -13    1    4    4    0    0 -0.96673140170E+00 -0.19958200013E+02  0.75365316490E+02  0.77969194218E+02  0.00000000000E+00 0.  1.
         14    1    4    4    0    0 -0.27579861607E+02 -0.27867633197E+02 -0.35022522885E+01  0.39363936761E+02  0.00000000000E+00 0. -1.
         -5    1    5    5    0  502  0.57349205188E+02  0.35397340797E+02 -0.17770771379E+02  0.69855517940E+02  0.47000000000E+01 0.  1.
         13    1    6    6    0    0 -0.36703679142E+02  0.20853488023E+02 -0.26828270612E+02  0.50017838111E+02  0.00000000000E+00 0. -1.
        -14    1    6    6    0    0 -0.24387979680E+02  0.49410339492E+02  0.54788973206E+02  0.77704483696E+02  0.00000000000E+00 0.  1.
</event>
<event>
12    1  0.8133495E-002  0.2153895E+03  0.7818608E-02  0.1137383E+00
         21   -1    0    0  503  502  0.00000000000E+00  0.00000000000E+00  0.10032081883E+03  0.10032081883E+03  0.00000000000E+00 0.  1.
         21   -1    0    0  501  503 -0.00000000000E+00 -0.00000000000E+00 -0.49194158681E+03  0.49194158681E+03  0.00000000000E+00 0.  1.
          6    2    1    2  501    0 -0.12220378354E+03  0.43438768105E+02 -0.12305351146E+03  0.24799360810E+03  0.17186614470E+03 0.  0.
         24    2    3    3    0    0 -0.27745554622E+02  0.43812757377E+02 -0.12034230417E+03  0.15337892889E+03  0.79708544994E+02 0.  0.
         -6    2    1    2    0  502  0.12220378354E+03 -0.43438768105E+02 -0.26856725652E+03  0.34426879754E+03  0.17196494526E+03 0.  0.
        -24    2    5    5    0    0 -0.15788313206E+01 -0.27649574409E+02 -0.15026511400E+03  0.17225449202E+03  0.79529955754E+02 0.  0.
          5    1    3    3  501    0 -0.94458228914E+02 -0.37398927240E+00 -0.27112072910E+01  0.94614679212E+02  0.47000000000E+01 0. -1.
        -13    1    4    4    0    0 -0.36800494819E+02  0.35709862879E+02 -0.24609265207E+02  0.56877822214E+02  0.00000000000E+00 0.  1.
         14    1    4    4    0    0  0.90549401976E+01  0.81028944982E+01 -0.95733038962E+02  0.96501106678E+02  0.00000000000E+00 0. -1.
         -5    1    5    5    0  502  0.12378261486E+03 -0.15789193695E+02 -0.11830214252E+03  0.17201430552E+03  0.47000000000E+01 0.  1.
         13    1    6    6    0    0  0.23415116650E+02 -0.15627066035E+01 -0.12730096104E+03  0.12944591311E+03  0.00000000000E+00 0. -1.
        -14    1    6    6    0    0 -0.24993947971E+02 -0.26086867806E+02 -0.22964152963E+02  0.42808578911E+02  0.00000000000E+00 0.  1.
</event>
<event>
12    1  0.8133495E-002  0.1826055E+03  0.7818608E-02  0.1165399E+00
         21   -1    0    0  503  502  0.00000000000E+00  0.00000000000E+00  0.15906092819E+04  0.15906092819E+04  0.00000000000E+00 0.  1.
         21   -1    0    0  501  503 -0.00000000000E+00 -0.00000000000E+00 -0.21153093042E+02  0.21153093042E+02  0.00000000000E+00 0.  1.
          6    2    1    2  501    0 -0.49581626744E+02 -0.35040846241E+02  0.69891059732E+03  0.72227128543E+03  0.17179519228E+03 0.  0.
         24    2    3    3    0    0 -0.46280806501E+02 -0.88523894796E+02  0.46457877287E+03  0.48184494360E+03  0.79766662625E+02 0.  0.
         -6    2    1    2    0  502  0.49581626744E+02  0.35040846241E+02  0.87054559153E+03  0.88949108951E+03  0.17221664485E+03 0.  0.
        -24    2    5    5    0    0  0.40782071098E+02  0.61912724199E+02  0.31504836602E+03  0.33325481996E+03  0.79416241144E+02 0.  0.
          5    1    3    3  501    0 -0.33008202433E+01  0.53483048555E+02  0.23433182445E+03  0.24042634183E+03  0.47000000000E+01 0. -1.
        -11    1    4    4    0    0 -0.50374736864E+02 -0.80596047307E+02  0.25597485920E+03  0.27305029848E+03  0.00000000000E+00 0.  1.
         12    1    4    4    0    0  0.40939303631E+01 -0.79278474884E+01  0.20860391367E+03  0.20879464512E+03  0.00000000000E+00 0. -1.
         -5    1    5    5    0  502  0.87995556456E+01 -0.26871877958E+02  0.55549722552E+03  0.55623626955E+03  0.47000000000E+01 0.  1.
         13    1    6    6    0    0 -0.18868123475E+02  0.60501038750E+01  0.24926918841E+02  0.31842756213E+02  0.00000000000E+00 0. -1.
        -14    1    6    6    0    0  0.59650194573E+02  0.55862620324E+02  0.29012144718E+03  0.30141206375E+03  0.00000000000E+00 0.  1.
</event>
<event>
12    1  0.8133495E-002  0.2064694E+03  0.7818608E-02  0.1147603E+00
         21   -1    0    0  503  502  0.00000000000E+00  0.00000000000E+00  0.28041187866E+03  0.28041187866E+03  0.00000000000E+00 0.  1.
         21   -1    0    0  501  503 -0.00000000000E+00 -0.00000000000E+00 -0.14182766927E+03  0.14182766927E+03  0.00000000000E+00 0. -1.
          6    2    1    2  501    0 -0.67605114933E+02 -0.91945237013E+02  0.87850082404E+02  0.22438196609E+03  0.17206176668E+03 0.  0.
         24    2    3    3    0    0 -0.30394025726E+02 -0.12484652502E+03  0.86365670337E+02  0.17446750535E+03  0.80432765710E+02 0.  0.
         -6    2    1    2    0  502  0.67605114933E+02  0.91945237013E+02  0.50734126990E+02  0.19785758184E+03  0.15345778858E+03 0.  0.
        -24    2    5    5    0    0  0.64545105332E+01  0.21679836250E+02  0.63593603134E+02  0.10370834345E+03  0.78737526856E+02 0.  0.
          5    1    3    3  501    0 -0.37211089207E+02  0.32901288005E+02  0.14844120664E+01  0.49914460745E+02  0.47000000000E+01 0. -1.
        -13    1    4    4    0    0 -0.38329949691E+02 -0.12639487073E+03  0.94956449130E+02  0.16267014361E+03  0.00000000000E+00 0.  1.
         14    1    4    4    0    0  0.79359239645E+01  0.15483457165E+01 -0.85907787923E+01  0.11797361734E+02  0.00000000000E+00 0. -1.
         -5    1    5    5    0  502  0.61150604400E+02  0.70265400763E+02 -0.12859476144E+02  0.94149238391E+02  0.47000000000E+01 0.  1.
         13    1    6    6    0    0  0.10903605366E+02  0.36154374178E+02 -0.58515543909E+00  0.37767311118E+02  0.00000000000E+00 0. -1.
        -14    1    6    6    0    0 -0.44490948331E+01 -0.14474537927E+02  0.64178758573E+02  0.65941032332E+02  0.00000000000E+00 0.  1.
</event>
<event>
12    1  0.8133495E-002  0.2156442E+03  0.7818608E-02  0.1137261E+00
         21   -1    0    0  503  502  0.00000000000E+00  0.00000000000E+00  0.14671973513E+03  0.14671973513E+03  0.00000000000E+00 0. -1.
         21   -1    0    0  501  503 -0.00000000000E+00 -0.00000000000E+00 -0.32037655032E+03  0.32037655032E+03  0.00000000000E+00 0. -1.
          6    2    1    2  501    0  0.25201897711E+01  0.13078586413E+03 -0.11317702963E+03  0.24313146294E+03  0.17085834666E+03 0.  0.
         24    2    3    3    0    0  0.46930922382E+02  0.68226781141E+02 -0.12997374298E+02  0.11686188870E+03  0.81427048037E+02 0.  0.
         -6    2    1    2    0  502 -0.25201897711E+01 -0.13078586413E+03 -0.60479785559E+02  0.22396482251E+03  0.17143845441E+03 0.  0.
        -24    2    5    5    0    0  0.50757402324E+02 -0.12514732827E+03 -0.24467449704E+02  0.15924022719E+03  0.80750394399E+02 0.  0.
          5    1    3    3  501    0 -0.44410732611E+02  0.62559082985E+02 -0.10017965533E+03  0.12626957424E+03  0.47000000000E+01 0. -1.
        -13    1    4    4    0    0 -0.16863835949E+01 -0.11989474514E+02 -0.19374123441E+02  0.22846182348E+02  0.00000000000E+00 0.  1.
         14    1    4    4    0    0  0.48617305977E+02  0.80216255655E+02  0.63767491433E+01  0.94015706355E+02  0.00000000000E+00 0. -1.
         -5    1    5    5    0  502 -0.53277592096E+02 -0.56385358538E+01 -0.36012335855E+02  0.64724595324E+02  0.47000000000E+01 0.  1.
         13    1    6    6    0    0 -0.17809191773E+02 -0.60599296983E+02 -0.11007407522E+02  0.64114001020E+02  0.00000000000E+00 0. -1.
        -14    1    6    6    0    0  0.68566594098E+02 -0.64548031289E+02 -0.13460042182E+02  0.95126226168E+02  0.00000000000E+00 0.  1.
</event>
<event>
12    1  0.8133495E-002  0.2014016E+03  0.7818608E-02  0.1148774E+00
         21   -1    0    0  503  502  0.00000000000E+00  0.00000000000E+00  0.52175477699E+02  0.52175477699E+02  0.00000000000E+00 0.  1.
         21   -1    0    0  501  503 -0.00000000000E+00 -0.00000000000E+00 -0.78957899853E+03  0.78957899853E+03  0.00000000000E+00 0.  1.
          6    2    1    2  501    0  0.98702660156E+02 -0.33758698036E+02 -0.30777364829E+03  0.36726061727E+03  0.17109610634E+03 0.  0.
         24    2    3    3    0    0  0.10403920767E+00 -0.57632614052E+02 -0.15578980410E+03  0.18446884828E+03  0.80229445324E+02 0.  0.
         -6    2    1    2    0  502 -0.98702660156E+02  0.33758698036E+02 -0.42962987254E+03  0.47449385895E+03  0.17228096235E+03 0.  0.
        -24    2    5    5    0    0 -0.63140464425E+02 -0.41171695057E+02 -0.16937923636E+03  0.20130579697E+03  0.78440241356E+02 0.  0.
          5    1    3    3  501    0  0.98598620948E+02  0.23873916016E+02 -0.15198384419E+03  0.18279176900E+03  0.47000000000E+01 0. -1.
        -11    1    4    4    0    0 -0.14888251573E+02  0.15517871990E+02 -0.19333616127E+02  0.28918041057E+02  0.00000000000E+00 0.  1.
         12    1    4    4    0    0  0.14992290781E+02 -0.73150486042E+02 -0.13645618797E+03  0.15555080722E+03  0.00000000000E+00 0. -1.
         -5    1    5    5    0  502 -0.35562195731E+02  0.74930393092E+02 -0.26025063619E+03  0.27318806198E+03  0.47000000000E+01 0.  1.
         11    1    6    6    0    0 -0.33217468820E+02  0.20770847577E+02 -0.73670989133E+02  0.83440056230E+02  0.00000000000E+00 0. -1.
        -12    1    6    6    0    0 -0.29922995604E+02 -0.61942542634E+02 -0.95708247223E+02  0.11786574074E+03  0.00000000000E+00 0.  1.
</event>
<event>
12    1  0.8133495E-002  0.2794973E+03  0.7818608E-02  0.1096239E+00
         21   -1    0    0  501  502  0.00000000000E+00  0.00000000000E+00  0.26157744967E+03  0.26157744967E+03  0.00000000000E+00 0.  1.
         21   -1    0    0  502  503 -0.00000000000E+00 -0.00000000000E+00 -0.29725403903E+03  0.29725403903E+03  0.00000000000E+00 0. -1.
         -6    2    1    2    0  503  0.43697241991E+02 -0.21565323843E+03 -0.39177616544E+01  0.27952478410E+03  0.17234554786E+03 0.  0.
        -24    2    3    3    0    0  0.12036417400E+01 -0.47096572554E+02 -0.39362423406E+02  0.10205515368E+03  0.81524953955E+02 0.  0.
          6    2    1    2  501    0 -0.43697241991E+02  0.21565323843E+03 -0.31758827707E+02  0.27930670460E+03  0.16907940116E+03 0.  0.
         24    2    5    5    0    0  0.24487066853E+02  0.18409501612E+03 -0.30458257215E+02  0.20401525189E+03  0.78765005988E+02 0.  0.
          5    1    5    5  501    0 -0.68184308843E+02  0.31558222310E+02 -0.13005704927E+01  0.75291452712E+02  0.47000000000E+01 0. -1.
        -13    1    6    6    0    0  0.15619212591E+02  0.12991191466E+03  0.16351733484E+02  0.13186525153E+03  0.00000000000E+00 0.  1.
         14    1    6    6    0    0  0.88678542615E+01  0.54183101454E+02 -0.46809990698E+02  0.72150000357E+02  0.00000000000E+00 0. -1.
         -5    1    3    3    0  503  0.42493600251E+02 -0.16855666587E+03  0.35444661751E+02  0.17746963041E+03  0.47000000000E+01 0.  1.
         11    1    4    4    0    0  0.76981139541E+01  0.21572007017E+02 -0.55220382643E+00  0.22911075363E+02  0.00000000000E+00 0. -1.
        -12    1    4    4    0    0 -0.64944722141E+01 -0.68668579571E+02 -0.38810219579E+02  0.79144078322E+02  0.00000000000E+00 0.  1.
</event>
<event>
12    1  0.8133495E-002  0.1806009E+03  0.7818608E-02  0.1168099E+00
         21   -1    0    0  503  502  0.00000000000E+00  0.00000000000E+00  0.18227876211E+03  0.18227876211E+03  0.00000000000E+00 0. -1.
         21   -1    0    0  501  503 -0.00000000000E+00 -0.00000000000E+00 -0.19913237995E+03  0.19913237995E+03  0.00000000000E+00 0. -1.
          6    2    1    2  501    0  0.13439492543E+02 -0.53905306666E+02  0.57492461322E+02  0.18610616175E+03  0.16805867513E+03 0.  0.
         24    2    3    3    0    0 -0.45037211893E+02  0.45580829924E+01  0.16742404651E+02  0.93801503091E+02  0.80431879830E+02 0.  0.
         -6    2    1    2    0  502 -0.13439492543E+02  0.53905306666E+02 -0.74346079160E+02  0.19530498031E+03  0.17184380640E+03 0.  0.
        -24    2    5    5    0    0 -0.37456772404E+02  0.96446053115E+02 -0.63185063529E+02  0.14497404439E+03  0.79500127882E+02 0.  0.
          5    1    3    3  501    0  0.58476704437E+02 -0.58463389658E+02  0.40750056671E+02  0.92304658662E+02  0.47000000000E+01 0. -1.
        -13    1    4    4    0    0 -0.42408738970E+02  0.36663416881E+02  0.23670285636E+02  0.60852195527E+02  0.00000000000E+00 0.  1.
         14    1    4    4    0    0 -0.26284729236E+01 -0.32105333889E+02 -0.69278809849E+01  0.32949307564E+02  0.00000000000E+00 0. -1.
         -5    1    5    5    0  502  0.24017279861E+02 -0.42540746449E+02 -0.11161015631E+02  0.50330935917E+02  0.47000000000E+01 0.  1.
         13    1    6    6    0    0 -0.12760985836E+02  0.89596009090E+02 -0.16895992127E+02  0.92063902558E+02  0.00000000000E+00 0. -1.
        -14    1    6    6    0    0 -0.24695786568E+02  0.68500440252E+01 -0.46289071402E+02  0.52910141832E+02  0.00000000000E+00 0.  1.
</event>
<event>
12    1  0.8133495E-002  0.2246392E+03  0.7818608E-02  0.1132705E+00
         21   -1    0    0  501  502  0.00000000000E+00  0.00000000000E+00  0.43504138201E+03  0.43504138201E+03  0.00000000000E+00 0.  1.
         21   -1    0    0  502  503 -0.00000000000E+00 -0.00000000000E+00 -0.13744523103E+03  0.13744523103E+03  0.00000000000E+00 0. -1.
         -6    2    1    2    0  503  0.94575237621E+02  0.10646135772E+03  0.27364289720E+03  0.34657395484E+03  0.15797017036E+03 0.  0.
        -24    2    3    3    0    0  0.31505537100E+01  0.47180819319E+02  0.17970344189E+03  0.20263172224E+03  0.80810470421E+02 0.  0.
          6    2    1    2  501    0 -0.94575237621E+02 -0.10646135772E+03  0.23953253779E+02  0.22591265820E+03  0.17373622107E+03 0.  0.
         24    2    5    5    0    0 -0.99342501333E+01  0.10065979726E+02  0.19291528004E+02  0.81737282972E+02  0.78158858112E+02 0.  0.
          5    1    5    5  501    0 -0.84640987488E+02 -0.11652733745E+03  0.46617257747E+01  0.14417537523E+03  0.47000000000E+01 0. -1.
        -13    1    6    6    0    0  0.18388470530E+02 -0.11653263766E+02  0.36200889337E+02  0.42242618215E+02  0.00000000000E+00 0.  1.
         14    1    6    6    0    0 -0.28322720664E+02  0.21719243492E+02 -0.16909361333E+02  0.39494664758E+02  0.00000000000E+00 0. -1.
         -5    1    3    3    0  503  0.91424683911E+02  0.59280538401E+02  0.93939455312E+02  0.14394223260E+03  0.47000000000E+01 0.  1.
         11    1    4    4    0    0  0.46096799896E+01  0.70228669834E+02  0.13013087940E+03  0.14794377644E+03  0.00000000000E+00 0. -1.
        -12    1    4    4    0    0 -0.14591262796E+01 -0.23047850515E+02  0.49572562494E+02  0.54687945793E+02  0.00000000000E+00 0.  1.
</event>
<event>
12    1  0.8133495E-002  0.2680180E+03  0.7818608E-02  0.1102435E+00
         21   -1    0    0  503  502  0.00000000000E+00  0.00000000000E+00  0.22253539139E+03  0.22253539139E+03  0.00000000000E+00 0.  1.
         21   -1    0    0  501  503 -0.00000000000E+00 -0.00000000000E+00 -0.43474165170E+03  0.43474165170E+03  0.00000000000E+00 0. -1.
          6    2    1    2  501    0 -0.15753280836E+03  0.13091748018E+03 -0.27294701221E+03  0.38246241744E+03  0.17268890222E+03 0.  0.
         24    2    3    3    0    0 -0.63475526056E+02  0.10357949340E+02 -0.13940383309E+03  0.17939286403E+03  0.92800546668E+02 0.  0.
         -6    2    1    2    0  502  0.15753280836E+03 -0.13091748018E+03  0.60740751898E+02  0.27481462565E+03  0.17285157564E+03 0.  0.
        -24    2    5    5    0    0  0.64329184072E+02 -0.11434627027E+03 -0.14316920117E+02  0.15391274516E+03  0.79188670102E+02 0.  0.
          5    1    3    3  501    0 -0.94057282304E+02  0.12055953084E+03 -0.13354317912E+03  0.20306955341E+03  0.47000000000E+01 0. -1.
        -11    1    4    4    0    0 -0.12169259250E+02  0.38864288279E+02 -0.17959971036E+02  0.44509373550E+02  0.00000000000E+00 0.  1.
         12    1    4    4    0    0 -0.51306266806E+02 -0.28506338940E+02 -0.12144386206E+03  0.13488349048E+03  0.00000000000E+00 0. -1.
         -5    1    5    5    0  502  0.93203624287E+02 -0.16571209914E+02  0.75057672015E+02  0.12090188049E+03  0.47000000000E+01 0.  1.
         13    1    6    6    0    0  0.10984143721E+02  0.51769093107E+01 -0.19444932784E+02  0.22925034662E+02  0.00000000000E+00 0. -1.
        -14    1    6    6    0    0  0.53345040351E+02 -0.11952317958E+03  0.51280126671E+01  0.13098771050E+03  0.00000000000E+00 0.  1.
</event>
<event>
12    1  0.8133495E-002  0.1732705E+03  0.7818608E-02  0.1174765E+00
         21   -1    0    0  503  502  0.00000000000E+00  0.00000000000E+00  0.61836021891E+03  0.61836021891E+03  0.00000000000E+00 0.  1.
         21   -1    0    0  501  503 -0.00000000000E+00 -0.00000000000E+00 -0.10102862615E+03  0.10102862615E+03  0.00000000000E+00 0.  1.
          6    2    1    2  501    0  0.20404481633E+02 -0.45438384050E+01 -0.17420622822E+01  0.17215935733E+03  0.17087662274E+03 0.  0.
         24    2    3    3    0    0  0.64047993027E+02  0.37472559248E+02 -0.15970920585E+02  0.10975195259E+03  0.79272206258E+02 0.  0.
         -6    2    1    2    0  502 -0.20404481633E+02  0.45438384050E+01  0.51907365504E+03  0.54722948773E+03  0.17200483583E+03 0.  0.
        -24    2    5    5    0    0 -0.51747540679E+02  0.30002944532E+02  0.47987298430E+03  0.49075528104E+03  0.83574398937E+02 0.  0.
          5    1    3    3  501    0 -0.43643511394E+02 -0.42016397653E+02  0.14228858303E+02  0.62407404746E+02  0.47000000000E+01 0. -1.
        -11    1    4    4    0    0  0.46601148817E+02  0.24741022419E+01 -0.41993236686E+02  0.62779138098E+02  0.00000000000E+00 0.  1.
         12    1    4    4    0    0  0.17446844210E+02  0.34998457006E+02  0.26022316102E+02  0.46972814488E+02  0.00000000000E+00 0. -1.
         -5    1    5    5    0  502  0.31343059045E+02 -0.25459106127E+02  0.39200670735E+02  0.56474206690E+02  0.47000000000E+01 0.  1.
         13    1    6    6    0    0 -0.42191972006E+02 -0.21531004842E+02  0.16977617979E+03  0.17626031288E+03  0.00000000000E+00 0. -1.
        -14    1    6    6    0    0 -0.95555686727E+01  0.51533949375E+02  0.31009680451E+03  0.31449496816E+03  0.00000000000E+00 0.  1.
</event>
<event>
12    1  0.8133495E-002  0.2034539E+03  0.7818608E-02  0.1147109E+00
         21   -1    0    0  501  502  0.00000000000E+00  0.00000000000E+00  0.96645376188E+02  0.96645376188E+02  0.00000000000E+00 0.  1.
         21   -1    0    0  502  503 -0.00000000000E+00 -0.00000000000E+00 -0.13486675677E+04  0.13486675677E+04  0.00000000000E+00 0.  1.
         -6    2    1    2    0  503 -0.10620200593E+03  0.55010229333E+01 -0.12232255305E+04  0.12398312541E+04  0.17202241992E+03 0.  0.
        -24    2    3    3    0    0 -0.54609826749E+02 -0.61315970125E+02 -0.83602721087E+03  0.84350955118E+03  0.76321584371E+02 0.  0.
          6    2    1    2  501    0  0.10620200593E+03 -0.55010229333E+01 -0.28796661012E+02  0.20548168975E+03  0.17344840679E+03 0.  0.
         24    2    5    5    0    0  0.84213923277E+02  0.46174555918E+02 -0.59606103505E+02  0.14125433596E+03  0.84710243559E+02 0.  0.
          5    1    5    5  501    0  0.21988082656E+02 -0.51675578851E+02  0.30809442493E+02  0.64227353792E+02  0.47000000000E+01 0. -1.
        -11    1    6    6    0    0  0.53365624118E+02  0.40950639078E+02  0.70352310024E+01  0.67633860999E+02  0.00000000000E+00 0.  1.
         12    1    6    6    0    0  0.30848299160E+02  0.52239168392E+01 -0.66641334507E+02  0.73620474959E+02  0.00000000000E+00 0. -1.
         -5    1    3    3    0  503 -0.51592179184E+02  0.66816993058E+02 -0.38719831961E+03  0.39632170294E+03  0.47000000000E+01 0.  1.
         13    1    4    4    0    0  0.11921139377E+02 -0.40470397424E+02 -0.33946059545E+03  0.34207230594E+03  0.00000000000E+00 0. -1.
        -14    1    4    4    0    0 -0.66530966127E+02 -0.20845572701E+02 -0.49656661543E+03  0.50143724524E+03  0.00000000000E+00 0.  1.
</event>
<event>
12    1  0.8133495E-002  0.2046778E+03  0.7818608E-02  0.1146392E+00
         21   -1    0    0  501  502  0.00000000000E+00  0.00000000000E+00  0.76450694018E+03  0.76450694018E+03  0.00000000000E+00 0.  1.
         21   -1    0    0  502  503 -0.00000000000E+00 -0.00000000000E+00 -0.60395376260E+02  0.60395376260E+02  0.00000000000E+00 0.  1.
         -6    2    1    2    0  503 -0.18579293772E+02  0.10870750297E+03  0.22090015965E+03  0.30114761040E+03  0.17242532110E+03 0.  0.
        -24    2    3    3    0    0  0.26614153520E+02  0.31764037525E+02  0.35459613111E+02  0.95300504872E+02  0.78150718610E+02 0.  0.
          6    2    1    2  501    0  0.18579293772E+02 -0.10870750297E+03  0.48321140427E+03  0.52375470604E+03  0.16930215453E+03 0.  0.
         24    2    5    5    0    0 -0.22877909091E+02 -0.88461172998E+02  0.45165456879E+03  0.46766070091E+03  0.79786614249E+02 0.  0.
          5    1    5    5  501    0  0.41457202863E+02 -0.20246329970E+02  0.31556835479E+02  0.56094005133E+02  0.47000000000E+01 0. -1.
        -11    1    6    6    0    0 -0.52372135396E+02 -0.47633935652E+02  0.25260783806E+03  0.26234052726E+03  0.00000000000E+00 0.  1.
         12    1    6    6    0    0  0.29494226305E+02 -0.40827237346E+02  0.19904673073E+03  0.20532017365E+03  0.00000000000E+00 0. -1.
         -5    1    3    3    0  503 -0.45193447292E+02  0.76943465442E+02  0.18544054654E+03  0.20584710552E+03  0.47000000000E+01 0.  1.
         13    1    4    4    0    0 -0.10808284839E+00 -0.12981495186E+02  0.40889504949E+02  0.42900845145E+02  0.00000000000E+00 0. -1.
        -14    1    4    4    0    0  0.26722236369E+02  0.44745532711E+02 -0.54298918373E+01  0.52399659727E+02  0.00000000000E+00 0.  1.
</event>
<event>
12    1  0.8133495E-002  0.1943345E+03  0.7818608E-02  0.1154763E+00
         21   -1    0    0  503  502  0.00000000000E+00  0.00000000000E+00  0.11838292916E+04  0.11838292916E+04  0.00000000000E+00 0.  1.
         21   -1    0    0  501  503 -0.00000000000E+00 -0.00000000000E+00 -0.79801064836E+02  0.79801064836E+02  0.00000000000E+00 0.  1.
          6    2    1    2  501    0 -0.49680478705E+01 -0.90197318854E+02  0.61532122233E+02  0.20317571761E+03  0.17127151641E+03 0.  0.
         24    2    3    3    0    0 -0.23802365785E+02 -0.11817401795E+03  0.19147110154E+02  0.14880654921E+03  0.85118306645E+02 0.  0.
         -6    2    1    2    0  502  0.49680478705E+01  0.90197318854E+02  0.10424961045E+04  0.10604546388E+04  0.17206299778E+03 0.  0.
        -24    2    5    5    0    0  0.16642907258E+02  0.11957851935E+03  0.71232345986E+03  0.72873846109E+03  0.95283915441E+02 0.  0.
          5    1    3    3  501    0  0.18834317915E+02  0.27976699097E+02  0.42385012079E+02  0.54369168401E+02  0.47000000000E+01 0. -1.
        -13    1    4    4    0    0 -0.54169931987E+02 -0.70490304922E+02 -0.66535961480E+00  0.88902797048E+02  0.00000000000E+00 0.  1.
         14    1    4    4    0    0  0.30367566202E+02 -0.47683713029E+02  0.19812469769E+02  0.59903752166E+02  0.00000000000E+00 0. -1.
         -5    1    5    5    0  502 -0.11674859388E+02 -0.29381200494E+02  0.33017264463E+03  0.33171617770E+03  0.47000000000E+01 0.  1.
         13    1    6    6    0    0  0.49305997541E+02  0.72899548902E+02  0.30478325677E+03  0.31723533730E+03  0.00000000000E+00 0. -1.
        -14    1    6    6    0    0 -0.32663090283E+02  0.46678970446E+02  0.40754020310E+03  0.41150312379E+03  0.00000000000E+00 0.  1.
</event>
<event>
12    1  0.8133495E-002  0.2316638E+03  0.7818608E-02  0.1125499E+00
         21   -1    0    0  503  502  0.00000000000E+00  0.00000000000E+00  0.62565045768E+03  0.62565045768E+03  0.00000000000E+00 0. -1.
         21   -1    0    0  501  503 -0.00000000000E+00 -0.00000000000E+00 -0.19564001086E+03  0.19564001086E+03  0.00000000000E+00 0. -1.
          6    2    1    2  501    0  0.73923122046E+02 -0.13600967346E+03 -0.92819640376E+02  0.24943433422E+03  0.17215906075E+03 0.  0.
         24    2    3    3    0    0  0.19102077251E+02 -0.11752521950E+03 -0.40976310800E+01  0.14341213407E+03  0.79832218081E+02 0.  0.
         -6    2    1    2    0  502 -0.73923122046E+02  0.13600967346E+03  0.52283008720E+03  0.57185613432E+03  0.17235103433E+03 0.  0.
        -24    2    5    5    0    0 -0.11337260441E+03  0.12184555730E+03  0.36873048764E+03  0.41208861437E+03  0.78454868043E+02 0.  0.
          5    1    3    3  501    0  0.54821044796E+02 -0.18484453956E+02 -0.88722009296E+02  0.10602220015E+03  0.47000000000E+01 0. -1.
        -13    1    4    4    0    0 -0.12600897767E+00 -0.12298008797E+03 -0.71772042007E+01  0.12318940773E+03  0.00000000000E+00 0.  1.
         14    1    4    4    0    0  0.19228086228E+02  0.54548684729E+01  0.30795731207E+01  0.20222726341E+02  0.00000000000E+00 0. -1.
         -5    1    5    5    0  502  0.39449482363E+02  0.14164116159E+02  0.15409959956E+03  0.15976751995E+03  0.47000000000E+01 0.  1.
         13    1    6    6    0    0 -0.78362259941E+02  0.12465938493E+03  0.31741412661E+03  0.34990332066E+03  0.00000000000E+00 0. -1.
        -14    1    6    6    0    0 -0.35010344469E+02 -0.28138276326E+01  0.51316361027E+02  0.62185293719E+02  0.00000000000E+00 0.  1.
</event>
<event>
12    1  0.8133495E-002  0.1910473E+03  0.7818608E-02  0.1158948E+00
         21   -1    0    0  501  502  0.00000000000E+00  0.00000000000E+00  0.58919783644E+03  0.58919783644E+03  0.00000000000E+00 0. -1.
         21   -1    0    0  502  503 -0.00000000000E+00 -0.00000000000E+00 -0.63906747115E+02  0.63906747115E+02  0.00000000000E+00 0. -1.
         -6    2    1    2    0  503 -0.50919152261E+02 -0.45550044353E+02  0.18532166119E+03  0.26616382135E+03  0.17841383098E+03 0.  0.
        -24    2    3    3    0    0 -0.23090985300E+02 -0.78267749618E+02  0.19109544783E+03  0.22257160042E+03  0.79759719773E+02 0.  0.
          6    2    1    2  501    0  0.50919152261E+02  0.45550044353E+02  0.33996942813E+03  0.38694076220E+03  0.17168685092E+03 0.  0.
         24    2    5    5    0    0  0.85125648773E+01  0.79713673229E+02  0.14416834215E+03  0.18365370540E+03  0.80730658158E+02 0.  0.
          5    1    5    5  501    0  0.42406587383E+02 -0.34163628876E+02  0.19580108598E+03  0.20328705680E+03  0.47000000000E+01 0. -1.
        -13    1    6    6    0    0 -0.33059187781E+02  0.17200470276E+02  0.62130604479E+02  0.72449831521E+02  0.00000000000E+00 0.  1.
         14    1    6    6    0    0  0.41571752658E+02  0.62513202953E+02  0.82037737670E+02  0.11120387387E+03  0.00000000000E+00 0. -1.
         -5    1    3    3    0  503 -0.27828166960E+02  0.32717705265E+02 -0.57737866395E+01  0.43592220938E+02  0.47000000000E+01 0.  1.
         13    1    4    4    0    0 -0.45768201821E+02 -0.60795164029E+02  0.91839980340E+02  0.11927012307E+03  0.00000000000E+00 0. -1.
        -14    1    4    4    0    0  0.22677216521E+02 -0.17472585589E+02  0.99255467488E+02  0.10330147735E+03  0.00000000000E+00 0.  1.
</event>
<event>
12    1  0.8133495E-002  0.2928053E+03  0.7818608E-02  0.1089060E+00
         21   -1    0    0  503  502  0.00000000000E+00  0.00000000000E+00  0.57337340411E+03  0.57337340411E+03  0.00000000000E+00 0. -1.
         21   -1    0    0  501  503 -0.00000000000E+00 -0.00000000000E+00 -0.15182026003E+03  0.15182026003E+03  0.00000000000E+00 0.  1.
          6    2    1    2  501    0 -0.21926977245E+03 -0.89655591964E+02  0.16068716979E+03  0.33399895016E+03  0.17209757087E+03 0.  0.
         24    2    3    3    0    0 -0.19193854508E+03 -0.11178331082E+03  0.85189098311E+02  0.25058024287E+03  0.78723325503E+02 0.  0.
         -6    2    1    2    0  502  0.21926977245E+03  0.89655591964E+02  0.26086597429E+03  0.39119471397E+03  0.16989670220E+03 0.  0.
        -24    2    5    5    0    0  0.20446265423E+03  0.20864844804E+02  0.21189655571E+03  0.30533720643E+03  0.78040634213E+02 0.  0.
          5    1    3    3  501    0 -0.27331227366E+02  0.22127718854E+02  0.75498071475E+02  0.83418707299E+02  0.47000000000E+01 0. -1.
        -13    1    4    4    0    0 -0.44445607918E+02 -0.54765273342E+02 -0.89457878239E+00  0.70536852061E+02  0.00000000000E+00 0.  1.
         14    1    4    4    0    0 -0.14749293716E+03 -0.57018037476E+02  0.86083677093E+02  0.18004339080E+03  0.00000000000E+00 0. -1.
         -5    1    5    5    0  502  0.14807118221E+02  0.68790747160E+02  0.48969418577E+02  0.85857507538E+02  0.47000000000E+01 0.  1.
         13    1    6    6    0    0  0.18956150239E+03  0.41308115478E+02  0.18023603442E+03  0.26481116234E+03  0.00000000000E+00 0. -1.
        -14    1    6    6    0    0  0.14901151832E+02 -0.20443270674E+02  0.31660521292E+02  0.40526044098E+02  0.00000000000E+00 0.  1.
</event>
<event>
12    1  0.8133495E-002  0.2033184E+03  0.7818608E-02  0.1147326E+00
         21   -1    0    0  503  502  0.00000000000E+00  0.00000000000E+00  0.15928897251E+03  0.15928897251E+03  0.00000000000E+00 0. -1.
         21   -1    0    0  501  503 -0.00000000000E+00 -0.00000000000E+00 -0.37634811496E+03  0.37634811496E+03  0.00000000000E+00 0.  1.
          6    2    1    2  501    0  0.77372582188E+02  0.75470837056E+02 -0.25945621450E+03  0.32962996210E+03  0.17220923596E+03 0.  0.
         24    2    3    3    0    0 -0.69701540196E+01  0.44323596755E+02 -0.20522897436E+03  0.22452748210E+03  0.79249567964E+02 0.  0.
         -6    2    1    2    0  502 -0.77372582188E+02 -0.75470837056E+02  0.42397072051E+02  0.20600712538E+03  0.17017361801E+03 0.  0.
        -24    2    5    5    0    0 -0.41903180945E+02 -0.96414691466E+02 -0.17515980859E+02  0.13314844455E+03  0.79812463926E+02 0.  0.
          5    1    3    3  501    0  0.84342736208E+02  0.31147240301E+02 -0.54227240132E+02  0.10510248000E+03  0.47000000000E+01 0. -1.
        -13    1    4    4    0    0  0.26980294829E+02  0.33577814980E+02 -0.16621295140E+03  0.17170367259E+03  0.00000000000E+00 0.  1.
         14    1    4    4    0    0 -0.33950448849E+02  0.10745781776E+02 -0.39016022965E+02  0.52823809509E+02  0.00000000000E+00 0. -1.
         -5    1    5    5    0  502 -0.35469401243E+02  0.20943854410E+02  0.59913052910E+02  0.72858680822E+02  0.47000000000E+01 0.  1.
         13    1    6    6    0    0 -0.22856431528E+02 -0.76516583474E+02 -0.47111322900E+02  0.92718287053E+02  0.00000000000E+00 0. -1.
        -14    1    6    6    0    0 -0.19046749417E+02 -0.19898107992E+02  0.29595342041E+02  0.40430157501E+02  0.00000000000E+00 0.  1.
</event>
<event>
12    1  0.8133495E-002  0.1774465E+03  0.7818608E-02  0.1171958E+00
         21   -1    0    0  503  502  0.00000000000E+00  0.00000000000E+00  0.43153765040E+03  0.43153765040E+03  0.00000000000E+00 0.  1.
         21   -1    0    0  501  503 -0.00000000000E+00 -0.00000000000E+00 -0.72021272476E+02  0.72021272476E+02  0.00000000000E+00 0. -1.
          6    2    1    2  501    0  0.21238270678E+02 -0.31630516706E+02  0.22225895756E+03  0.28440516423E+03  0.17330810569E+03 0.  0.
         24    2    3    3    0    0  0.69609182255E+02  0.18261390058E+02  0.12721804609E+03  0.16657557415E+03  0.79900400681E+02 0.  0.
         -6    2    1    2    0  502 -0.21238270678E+02  0.31630516706E+02  0.13725742036E+03  0.21915375864E+03  0.16654493914E+03 0.  0.
        -24    2    5    5    0    0  0.98772356053E+01  0.34514434993E+02  0.85824936564E+01  0.86655387035E+02  0.78400834808E+02 0.  0.
          5    1    3    3  501    0 -0.48370911577E+02 -0.49891906764E+02  0.95040911464E+02  0.11782959008E+03  0.47000000000E+01 0. -1.
        -11    1    4    4    0    0  0.66074889026E+02  0.54579575940E+01  0.13555046734E+03  0.15089602201E+03  0.00000000000E+00 0.  1.
         12    1    4    4    0    0  0.35342932297E+01  0.12803432464E+02 -0.83324212463E+01  0.15679552141E+02  0.00000000000E+00 0. -1.
         -5    1    5    5    0  502 -0.31115506283E+02 -0.28839182874E+01  0.12867492671E+03  0.13249837161E+03  0.47000000000E+01 0.  1.
         13    1    6    6    0    0  0.25713167515E+02  0.49486271001E+02 -0.11589672548E+02  0.56959446196E+02  0.00000000000E+00 0. -1.
        -14    1    6    6    0    0 -0.15835931909E+02 -0.14971836008E+02  0.20172166205E+02  0.29695940838E+02  0.00000000000E+00 0.  1.
</event>
<event>
12    1  0.8133495E-002  0.2017175E+03  0.7818608E-02  0.1148677E+00
         21   -1    0    0  503  502  0.00000000000E+00  0.00000000000E+00  0.14749652177E+03  0.14749652177E+03  0.00000000000E+00 0. -1.
         21   -1    0    0  501  503 -0.00000000000E+00 -0.00000000000E+00 -0.32367042846E+03  0.32367042846E+03  0.00000000000E+00 0. -1.
          6    2    1    2  501    0  0.87155593200E+02 -0.56841865847E+02 -0.18126101784E+03  0.27119274732E+03  0.17280872221E+03 0.  0.
         24    2    3    3    0    0  0.10953463640E+03 -0.83364950837E+02 -0.11461238314E+03  0.19590379648E+03  0.79339444837E+02 0.  0.
         -6    2    1    2    0  502 -0.87155593200E+02  0.56841865847E+02  0.50871111608E+01  0.19997420290E+03  0.17069478020E+03 0.  0.
        -24    2    5    5    0    0 -0.12621298469E+03  0.47098702685E+02  0.66249532019E+01  0.15941727974E+03  0.84982196806E+02 0.  0.
          5    1    3    3  501    0 -0.22379043195E+02  0.26523084990E+02 -0.66648634702E+02  0.75288950845E+02  0.47000000000E+01 0. -1.
        -13    1    4    4    0    0  0.68138302951E+01  0.88261422047E+00 -0.45757008313E+02  0.46269980559E+02  0.00000000000E+00 0.  1.
         14    1    4    4    0    0  0.10272080610E+03 -0.84247565057E+02 -0.68855374830E+02  0.14963381592E+03  0.00000000000E+00 0. -1.
         -5    1    5    5    0  502  0.39057391493E+02  0.97431631620E+01 -0.15378420412E+01  0.40556923167E+02  0.47000000000E+01 0.  1.
         11    1    6    6    0    0 -0.26746678953E+02  0.21182115443E+02  0.38842500930E+02  0.51699194657E+02  0.00000000000E+00 0. -1.
        -12    1    6    6    0    0 -0.99466305740E+02  0.25916587242E+02 -0.32217547728E+02  0.10771808508E+03  0.00000000000E+00 0.  1.
</event>
<event>
12    1  0.8133495E-002  0.2328695E+03  0.7818608E-02  0.1124706E+00
         21   -1    0    0  501  502  0.00000000000E+00  0.00000000000E+00  0.10322683504E+03  0.10322683504E+03  0.00000000000E+00 0.  1.
         21   -1    0    0  502  503 -0.00000000000E+00 -0.00000000000E+00 -0.74017232701E+03  0.74017232701E+03  0.00000000000E+00 0. -1.
         -6    2    1    2    0  503  0.13150800456E+03  0.87572271468E+02 -0.54634495454E+03  0.59390321043E+03  0.17107003248E+03 0.  0.
        -24    2    3    3    0    0  0.82541735285E+02  0.10513809606E+03 -0.50049139951E+03  0.52439859023E+03  0.81456019697E+02 0.  0.
          6    2    1    2  501    0 -0.13150800456E+03 -0.87572271468E+02 -0.90600537425E+02  0.24949595162E+03  0.17051836998E+03 0.  0.
         24    2    5    5    0    0 -0.23109718532E+02 -0.72694874751E+02 -0.58014529572E+02  0.13523544552E+03  0.95416645180E+02 0.  0.
          5    1    5    5  501    0 -0.10839828603E+03 -0.14877396716E+02 -0.32586007853E+02  0.11426050610E+03  0.47000000000E+01 0. -1.
        -11    1    6    6    0    0 -0.40095682771E+02 -0.79176581908E+02 -0.16988519765E+02  0.90361522250E+02  0.00000000000E+00 0.  1.
         12    1    6    6    0    0  0.16985964239E+02  0.64817071569E+01 -0.41026009806E+02  0.44873923268E+02  0.00000000000E+00 0. -1.
         -5    1    3    3    0  503  0.48966269278E+02 -0.17565824588E+02 -0.45853555033E+02  0.69504620203E+02  0.47000000000E+01 0.  1.
         13    1    4    4    0    0  0.94837223308E+02  0.82384365825E+02 -0.35370724084E+03  0.37535329342E+03  0.00000000000E+00 0. -1.
        -14    1    4    4    0    0 -0.12295488023E+02  0.22753730231E+02 -0.14678415866E+03  0.14904529681E+03  0.00000000000E+00 0.  1.
</event>
<event>
12    1  0.8133495E-002  0.1780611E+03  0.7818608E-02  0.1175060E+00
         21   -1    0    0  501  502  0.00000000000E+00  0.00000000000E+00  0.59821860395E+03  0.59821860395E+03  0.00000000000E+00 0. -1.
         21   -1    0    0  502  503 -0.00000000000E+00 -0.00000000000E+00 -0.62815974540E+02  0.62815974540E+02  0.00000000000E+00 0. -1.
         -6    2    1    2    0  503 -0.29687098584E+02 -0.34939779700E+02  0.44516644238E+03  0.47945691379E+03  0.17205713798E+03 0.  0.
        -24    2    3    3    0    0 -0.96232680882E+01  0.43896825173E+02  0.28945745563E+03  0.30371521095E+03  0.80235728901E+02 0.  0.
          6    2    1    2  501    0  0.29687098584E+02  0.34939779700E+02  0.90236187027E+02  0.18157766470E+03  0.15075067775E+03 0.  0.
         24    2    5    5    0    0 -0.61280711938E+01 -0.22686085516E+02  0.78904722815E+02  0.11262870670E+03  0.76857391044E+02 0.  0.
          5    1    5    5  501    0  0.35815169778E+02  0.57625865216E+02  0.11331464212E+02  0.68948958000E+02  0.47000000000E+01 0. -1.
        -11    1    6    6    0    0 -0.23320443122E+02  0.22234036224E+02  0.29701499452E+02  0.43822077813E+02  0.00000000000E+00 0.  1.
         12    1    6    6    0    0  0.17192371928E+02 -0.44920121739E+02  0.49203223364E+02  0.68806628888E+02  0.00000000000E+00 0. -1.
         -5    1    3    3    0  503 -0.20063830496E+02 -0.78836604873E+02  0.15570898675E+03  0.17574170284E+03  0.47000000000E+01 0.  1.
         13    1    4    4    0    0 -0.28423499959E+02 -0.64678832386E+01  0.17312341964E+03  0.17556038075E+03  0.00000000000E+00 0. -1.
        -14    1    4    4    0    0  0.18800231870E+02  0.50364708411E+02  0.11633403599E+03  0.12815483020E+03  0.00000000000E+00 0.  1.
</event>
<event>
12    1  0.8133495E-002  0.1919171E+03  0.7818608E-02  0.1160472E+00
         21   -1    0    0  501  502  0.00000000000E+00  0.00000000000E+00  0.12362871560E+04  0.12362871560E+04  0.00000000000E+00 0.  1.
         21   -1    0    0  502  503 -0.00000000000E+00 -0.00000000000E+00 -0.34236663807E+02  0.34236663807E+02  0.00000000000E+00 0.  1.
         -6    2    1    2    0  503  0.33587284263E+02 -0.17470501135E+02  0.33745349549E+03  0.38821004341E+03  0.18814582674E+03 0.  0.
        -24    2    3    3    0    0  0.37443152169E+02  0.64148240348E+02  0.21176546005E+03  0.23822318089E+03  0.79929265346E+02 0.  0.
          6    2    1    2  501    0 -0.33587284263E+02  0.17470501135E+02  0.86459699667E+03  0.88231377636E+03  0.17180311179E+03 0.  0.
         24    2    5    5    0    0  0.29138247383E+02 -0.40694159214E+01  0.69357863224E+03  0.69882581675E+03  0.80253382811E+02 0.  0.
          5    1    5    5  501    0 -0.62725531645E+02  0.21539917057E+02  0.17101836443E+03  0.18348795961E+03  0.47000000000E+01 0. -1.
        -11    1    6    6    0    0 -0.71727329871E+01 -0.22727786210E+02  0.51862342139E+03  0.51917073644E+03  0.00000000000E+00 0.  1.
         12    1    6    6    0    0  0.36310980370E+02  0.18658370289E+02  0.17495521085E+03  0.17965508031E+03  0.00000000000E+00 0. -1.
         -5    1    3    3    0  503 -0.38558679069E+01 -0.81618741483E+02  0.12568803544E+03  0.14998686253E+03  0.47000000000E+01 0.  1.
         13    1    4    4    0    0  0.29920956585E+02  0.32622637498E+02  0.19820862156E+03  0.20309150101E+03  0.00000000000E+00 0. -1.
        -14    1    4    4    0    0  0.75221955845E+01  0.31525602850E+02  0.13556838487E+02  0.35131679881E+02  0.00000000000E+00 0.  1.
</event>
<event>
12    1  0.8133495E-002  0.1845709E+03  0.7818608E-02  0.1163513E+00
         21   -1    0    0  501  502  0.00000000000E+00  0.00000000000E+00  0.98027301235E+03  0.98027301235E+03  0.00000000000E+00 0. -1.
         21   -1    0    0  502  503 -0.00000000000E+00 -0.00000000000E+00 -0.52787733637E+02  0.52787733637E+02  0.00000000000E+00 0. -1.
         -6    2    1    2    0  503 -0.10521690794E+02 -0.68426325332E+02  0.16162331165E+03  0.24533348236E+03  0.17109516276E+03 0.  0.
        -24    2    3    3    0    0 -0.18109218707E+01 -0.88112388205E+02  0.44411071570E+02  0.12606815717E+03  0.78445934129E+02 0.  0.
          6    2    1    2  501    0  0.10521690794E+02  0.68426325332E+02  0.76586196706E+03  0.78772726363E+03  0.17081223990E+03 0.  0.
         24    2    5    5    0    0  0.46414210223E+02  0.48750504572E+02  0.26060038721E+03  0.28078864313E+03  0.79992560240E+02 0.  0.
          5    1    5    5  501    0 -0.35892519430E+02  0.19675820760E+02  0.50526157986E+03  0.50693862050E+03  0.47000000000E+01 0. -1.
        -11    1    6    6    0    0  0.28978606226E+02  0.62685682207E+02  0.12021082223E+03  0.13863584007E+03  0.00000000000E+00 0.  1.
         12    1    6    6    0    0  0.17435603998E+02 -0.13935177635E+02  0.14038956498E+03  0.14215280306E+03  0.00000000000E+00 0. -1.
         -5    1    3    3    0  503 -0.87107689230E+01  0.19686062873E+02  0.11721224008E+03  0.11926532519E+03  0.47000000000E+01 0.  1.
         13    1    4    4    0    0  0.31352274008E+02 -0.71166157671E+02  0.16422559171E+02  0.79481365948E+02  0.00000000000E+00 0. -1.
        -14    1    4    4    0    0 -0.33163195879E+02 -0.16946230533E+02  0.27988512400E+02  0.46586791224E+02  0.00000000000E+00 0.  1.
</event>
<event>
12    1  0.8133495E-002  0.1719523E+03  0.7818608E-02  0.1175838E+00
         21   -1    0    0  503  502  0.00000000000E+00  0.00000000000E+00  0.19586552453E+03  0.19586552453E+03  0.00000000000E+00 0. -1.
         21   -1    0    0  501  503 -0.00000000000E+00 -0.00000000000E+00 -0.18803195284E+03  0.18803195284E+03  0.00000000000E+00 0. -1.
          6    2    1    2  501    0  0.87978634887E+00 -0.18120370361E+02 -0.81358192479E+02  0.19022811724E+03  0.17099257077E+03 0.  0.
         24    2    3    3    0    0 -0.30082388150E+02  0.28155060550E+02 -0.93384560464E+02  0.13307223143E+03  0.85380824149E+02 0.  0.
         -6    2    1    2    0  502 -0.87978634887E+00  0.18120370361E+02  0.89191764168E+02  0.19366936014E+03  0.17094890587E+03 0.  0.
        -24    2    5    5    0    0  0.59465758026E+02  0.60543029975E+01  0.12357273127E+02  0.95115802516E+02  0.72948493656E+02 0.  0.
          5    1    3    3  501    0  0.30962174499E+02 -0.46275430911E+02  0.12026367985E+02  0.57155885809E+02  0.47000000000E+01 0. -1.
        -13    1    4    4    0    0 -0.34281226467E+02 -0.53195156805E+01 -0.98409274316E+00  0.34705448761E+02  0.00000000000E+00 0.  1.
         14    1    4    4    0    0  0.41988383173E+01  0.33474576231E+02 -0.92400467720E+02  0.98366782666E+02  0.00000000000E+00 0. -1.
         -5    1    5    5    0  502 -0.60345544375E+02  0.12066067364E+02  0.76834491041E+02  0.98553557627E+02  0.47000000000E+01 0.  1.
         11    1    6    6    0    0  0.48790539851E+02  0.36709359761E+02  0.13893366672E+02  0.62618843095E+02  0.00000000000E+00 0. -1.
        -12    1    6    6    0    0  0.10675218174E+02 -0.30655056763E+02 -0.15360935453E+01  0.32496959421E+02  0.00000000000E+00 0.  1.
</event>
<event>
12    1  0.8133495E-002  0.1838292E+03  0.7818608E-02  0.1164799E+00
         21   -1    0    0  503  502  0.00000000000E+00  0.00000000000E+00  0.90370612518E+03  0.90370612518E+03  0.00000000000E+00 0.  1.
         21   -1    0    0  501  503 -0.00000000000E+00 -0.00000000000E+00 -0.37928311494E+02  0.37928311494E+02  0.00000000000E+00 0.  1.
          6    2    1    2  501    0  0.14694426357E+02 -0.50950530387E+02  0.34989859347E+03  0.39398077038E+03  0.17314715998E+03 0.  0.
         24    2    3    3    0    0  0.27707421062E+02 -0.15972812080E+02  0.34534555629E+03  0.35609147168E+03  0.80714007731E+02 0.  0.
         -6    2    1    2    0  502 -0.14694426357E+02  0.50950530387E+02  0.51587922021E+03  0.54765366628E+03  0.17601501537E+03 0.  0.
        -24    2    5    5    0    0  0.54700368725E+02  0.59113117006E+02  0.33407888181E+03  0.35283139228E+03  0.79967500686E+02 0.  0.
          5    1    3    3  501    0 -0.13012994705E+02 -0.34977718307E+02  0.45530371804E+01  0.37889298710E+02  0.47000000000E+01 0. -1.
        -11    1    4    4    0    0  0.18847499002E+02 -0.38379796798E+02  0.31219479149E+03  0.31510922686E+03  0.00000000000E+00 0.  1.
         12    1    4    4    0    0  0.88599220601E+01  0.22406984718E+02  0.33150764797E+02  0.40982244811E+02  0.00000000000E+00 0. -1.
         -5    1    5    5    0  502 -0.69394795082E+02 -0.81625866189E+01  0.18180033840E+03  0.19482227400E+03  0.47000000000E+01 0.  1.
         11    1    6    6    0    0  0.19107455204E+02 -0.12441560269E+01  0.20557699860E+03  0.20646681361E+03  0.00000000000E+00 0. -1.
        -12    1    6    6    0    0  0.35592913521E+02  0.60357273033E+02  0.12850188321E+03  0.14636457867E+03  0.00000000000E+00 0.  1.
</event>
<event>
12    1  0.8133495E-002  0.2217683E+03  0.7818608E-02  0.1132949E+00
         21   -1    0    0  503  502  0.00000000000E+00  0.00000000000E+00  0.54001869698E+03  0.54001869698E+03  0.00000000000E+00 0. -1.
         21   -1    0    0  501  503 -0.00000000000E+00 -0.00000000000E+00 -0.11835766599E+03  0.11835766599E+03  0.00000000000E+00 0.  1.
          6    2    1    2  501    0 -0.11589852537E+03 -0.73539579597E+02  0.49638866891E+02  0.22526936691E+03  0.17158593361E+03 0.  0.
         24    2    3    3    0    0 -0.13397111325E+03 -0.93767270997E+02  0.16359310141E+02  0.18207912693E+03  0.78387633836E+02 0.  0.
         -6    2    1    2    0  502  0.11589852537E+03  0.73539579597E+02  0.37202216409E+03  0.43310699606E+03  0.17418565243E+03 0.  0.
        -24    2    5    5    0    0  0.13441393891E+03  0.20302754110E+02  0.22802054125E+03  0.27839585391E+03  0.83854489692E+02 0.  0.
          5    1    3    3  501    0  0.18072587882E+02  0.20227691400E+02  0.33279556750E+02  0.43190239981E+02  0.47000000000E+01 0. -1.
        -13    1    4    4    0    0 -0.71113841103E+01 -0.28219175726E+02 -0.19275948709E+02  0.34906387113E+02  0.00000000000E+00 0.  1.
         14    1    4    4    0    0 -0.12685972914E+03 -0.65548095271E+02  0.35635258849E+02  0.14717273982E+03  0.00000000000E+00 0. -1.
         -5    1    5    5    0  502 -0.18515413541E+02  0.53236825487E+02  0.14400162284E+03  0.15471114216E+03  0.47000000000E+01 0.  1.
         11    1    6    6    0    0  0.10522455581E+03 -0.62806840420E+01  0.21005353175E+03  0.23501944672E+03  0.00000000000E+00 0. -1.
        -12    1    6    6    0    0  0.29189383106E+02  0.26583438152E+02  0.17967009507E+02  0.43376407190E+02  0.00000000000E+00 0.  1.
</event>
<event>
12    1  0.8133495E-002  0.2838232E+03  0.7818608E-02  0.1093622E+00
         21   -1    0    0  501  502  0.00000000000E+00  0.00000000000E+00  0.19928330313E+04  0.19928330313E+04  0.00000000000E+00 0.  1.
         21   -1    0    0  502  503 -0.00000000000E+00 -0.00000000000E+00 -0.50643390307E+02  0.50643390307E+02  0.00000000000E+00 0.  1.
         -6    2    1    2    0  503  0.16798127906E+03 -0.15006710527E+03  0.51199188913E+03  0.58538820809E+03  0.17264360235E+03 0.  0.
        -24    2    3    3    0    0  0.47378494353E+02 -0.37562020465E+01  0.19738700379E+03  0.21803247319E+03  0.79483956365E+02 0.  0.
          6    2    1    2  501    0 -0.16798127906E+03  0.15006710527E+03  0.14301977518E+04  0.14580882135E+04  0.17267826373E+03 0.  0.
         24    2    5    5    0    0 -0.12074331515E+03  0.14426681795E+03  0.13440755302E+04  0.13595783377E+04  0.80761145025E+02 0.  0.
          5    1    5    5  501    0 -0.47237963911E+02  0.58002873164E+01  0.86122221571E+02  0.98509875726E+02  0.47000000000E+01 0. -1.
        -13    1    6    6    0    0 -0.60689289780E+02  0.62552309880E+02  0.36482590597E+03  0.37509188612E+03  0.00000000000E+00 0.  1.
         14    1    6    6    0    0 -0.60054025374E+02  0.81714508073E+02  0.97924962427E+03  0.98448645162E+03  0.00000000000E+00 0. -1.
         -5    1    3    3    0  503  0.12060278471E+03 -0.14631090322E+03  0.31460488534E+03  0.36735573490E+03  0.47000000000E+01 0.  1.
         13    1    4    4    0    0  0.36458702355E+01  0.23682778789E+02  0.14521201865E+02  0.28018416881E+02  0.00000000000E+00 0. -1.
        -14    1    4    4    0    0  0.43732624117E+02 -0.27438980835E+02  0.18286580192E+03  0.19001405631E+03  0.00000000000E+00 0.  1.
</event>
<event>
12    1  0.8133495E-002  0.2102577E+03  0.7818608E-02  0.1141816E+00
         21   -1    0    0  503  502  0.00000000000E+00  0.00000000000E+00  0.98125347754E+03  0.98125347754E+03  0.00000000000E+00 0. -1.
         21   -1    0    0  501  503 -0.00000000000E+00 -0.00000000000E+00 -0.48628680361E+02  0.48628680361E+02  0.00000000000E+00 0.  1.
          6    2    1    2  501    0 -0.72006527537E+02 -0.94486372101E+02  0.61751196689E+03  0.65232608784E+03  0.17348106844E+03 0.  0.
         24    2    3    3    0    0 -0.40042568946E+02 -0.56389613364E+02  0.16535212192E+03  0.19741546686E+03  0.82754737090E+02 0.  0.
         -6    2    1    2    0  502  0.72006527537E+02  0.94486372101E+02  0.31511283029E+03  0.37755607006E+03  0.17070405884E+03 0.  0.
        -24    2    5    5    0    0  0.81861862624E+02  0.56426300526E+01  0.21339432802E+03  0.24206038070E+03  0.79516569639E+02 0.  0.
          5    1    3    3  501    0 -0.31963958591E+02 -0.38096758738E+02  0.45215984497E+03  0.45491062098E+03  0.47000000000E+01 0. -1.
        -13    1    4    4    0    0 -0.61725252182E+02 -0.57765580317E+02  0.14382249954E+03  0.16682859587E+03  0.00000000000E+00 0.  1.
         14    1    4    4    0    0  0.21682683236E+02  0.13759669536E+01  0.21529622379E+02  0.30586870993E+02  0.00000000000E+00 0. -1.
         -5    1    5    5    0  502 -0.98553350863E+01  0.88843742049E+02  0.10171850227E+03  0.13549568936E+03  0.47000000000E+01 0.  1.
         13    1    6    6    0    0 -0.40418666370E+01  0.24234100297E+02  0.30678248437E+02  0.39303730489E+02  0.00000000000E+00 0. -1.
        -14    1    6    6    0    0  0.85903729261E+02 -0.18591470245E+02  0.18271607958E+03  0.20275665021E+03  0.00000000000E+00 0.  1.
</event>
<event>
12    1  0.8133495E-002  0.1725006E+03  0.7818608E-02  0.1175355E+00
         21   -1    0    0  503  502  0.00000000000E+00  0.00000000000E+00  0.17532981974E+03  0.17532981974E+03  0.00000000000E+00 0.  1.
         21   -1    0    0  501  503 -0.00000000000E+00 -0.00000000000E+00 -0.19007515772E+03  0.19007515772E+03  0.00000000000E+00 0.  1.
          6    2    1    2  501    0  0.21019595567E+01 -0.50695070459E+01 -0.67667262241E+02  0.18496890900E+03  0.17205964310E+03 0.  0.
         24    2    3    3    0    0  0.49952340520E+02 -0.42271578289E+02 -0.15408169420E+02  0.10480185938E+03  0.80398354395E+02 0.  0.
         -6    2    1    2    0  502 -0.21019595567E+01  0.50695070459E+01  0.52921924266E+02  0.18043606846E+03  0.17241324368E+03 0.  0.
        -24    2    5    5    0    0  0.21865875694E+02 -0.14161756229E+01 -0.35468717716E+02  0.88503936990E+02  0.78069167109E+02 0.  0.
          5    1    3    3  501    0 -0.47850380964E+02  0.37202071244E+02 -0.52259092822E+02  0.80167049626E+02  0.47000000000E+01 0. -1.
        -11    1    4    4    0    0  0.26941156051E+02  0.17060322971E+02  0.13842432806E+02  0.34763392458E+02  0.00000000000E+00 0.  1.
         12    1    4    4    0    0  0.23011184470E+02 -0.59331901260E+02 -0.29250602225E+02  0.70038466919E+02  0.00000000000E+00 0. -1.
         -5    1    5    5    0  502 -0.23967835250E+02  0.64856826688E+01  0.88390641982E+02  0.91932131468E+02  0.47000000000E+01 0.  1.
         13    1    6    6    0    0  0.39444066276E+02  0.26881779769E+02 -0.19528766438E+02  0.51573609206E+02  0.00000000000E+00 0. -1.
        -14    1    6    6    0    0 -0.17578190583E+02 -0.28297955392E+02 -0.15939951278E+02  0.36930327784E+02  0.00000000000E+00 0.  1.
</event>
<event>
12    1  0.8133495E-002  0.2337161E+03  0.7818608E-02  0.1124134E+00
         21   -1    0    0  501  502  0.00000000000E+00  0.00000000000E+00  0.47012713163E+03  0.47012713163E+03  0.00000000000E+00 0.  1.
         21   -1    0    0  502  503 -0.00000000000E+00 -0.00000000000E+00 -0.24366892139E+03  0.24366892139E+03  0.00000000000E+00 0.  1.
         -6    2    1    2    0  503  0.33571335331E+02  0.15394628214E+03 -0.14510364656E+03  0.27509685912E+03  0.17261726829E+03 0.  0.
        -24    2    3    3    0    0  0.48339031530E+01  0.12624201315E+03 -0.17138920676E+03  0.22707199885E+03  0.78911469162E+02 0.  0.
          6    2    1    2  501    0 -0.33571335331E+02 -0.15394628214E+03  0.37156185680E+03  0.43869919390E+03  0.17196591802E+03 0.  0.
         24    2    5    5    0    0 -0.42995510941E+01 -0.47894061854E+02  0.67198599845E+02  0.11502807538E+03  0.80021740823E+02 0.  0.
          5    1    5    5  501    0 -0.29271784237E+02 -0.10605222029E+03  0.30436325696E+03  0.32367111852E+03  0.47000000000E+01 0. -1.
        -13    1    6    6    0    0  0.11611951402E+02 -0.34451465980E+02  0.81850418582E+02  0.89561330638E+02  0.00000000000E+00 0.  1.
         14    1    6    6    0    0 -0.15911502496E+02 -0.13442595874E+02 -0.14651818738E+02  0.25466744743E+02  0.00000000000E+00 0. -1.
         -5    1    3    3    0  503  0.28737432178E+02  0.27704268998E+02  0.26285560201E+02  0.48024860270E+02  0.47000000000E+01 0.  1.
         11    1    4    4    0    0 -0.28150723711E+02  0.65706632595E+02 -0.49204507267E+02  0.86780806333E+02  0.00000000000E+00 0. -1.
        -12    1    4    4    0    0  0.32984626864E+02  0.60535380550E+02 -0.12218469949E+03  0.14029119252E+03  0.00000000000E+00 0.  1.
</event>
<event>
12    1  0.8133495E-002  0.2030451E+03  0.7818608E-02  0.1147700E+00
         21   -1    0    0  501  502  0.00000000000E+00  0.00000000000E+00  0.60526002891E+03  0.60526002891E+03  0.00000000000E+00 0.  1.
         21   -1    0    0  502  503 -0.00000000000E+00 -0.00000000000E+00 -0.21452595785E+03  0.21452595785E+03  0.00000000000E+00 0. -1.
         -6    2    1    2    0  503  0.18207302254E+02 -0.10110758582E+03 -0.14456012227E+03  0.24727643541E+03  0.17231876507E+03 0.  0.
        -24    2    3    3    0    0  0.35076319346E+02 -0.50097868394E+02 -0.76251349226E+01  0.10010362621E+03  0.78882499335E+02 0.  0.
          6    2    1    2  501    0 -0.18207302254E+02  0.10110758582E+03  0.53529419333E+03  0.57250955135E+03  0.17513726961E+03 0.  0.
         24    2    5    5    0    0 -0.26740559729E+02  0.14037420827E+03  0.41757226921E+03  0.44802973153E+03  0.77097759026E+02 0.  0.
          5    1    5    5  501    0  0.85332574751E+01 -0.39266622446E+02  0.11772192412E+03  0.12447981981E+03  0.47000000000E+01 0. -1.
        -13    1    6    6    0    0  0.15896703160E+02  0.58305235468E+02  0.96135972308E+02  0.11355320703E+03  0.00000000000E+00 0.  1.
         14    1    6    6    0    0 -0.42637262889E+02  0.82068972800E+02  0.32143629690E+03  0.33447652451E+03  0.00000000000E+00 0. -1.
         -5    1    3    3    0  503 -0.16869017093E+02 -0.51009717428E+02 -0.13693498734E+03  0.14717280920E+03  0.47000000000E+01 0.  1.
         13    1    4    4    0    0  0.90474089914E+01 -0.45995955235E+02 -0.37672467099E+02  0.60138991385E+02  0.00000000000E+00 0. -1.
        -14    1    4    4    0    0  0.26028910355E+02 -0.41019131591E+01  0.30047332177E+02  0.39964634826E+02  0.00000000000E+00 0.  1.
</event>
<event>
12    1  0.8133495E-002  0.1829443E+03  0.7818608E-02  0.1165184E+00
         21   -1    0    0  503  502  0.00000000000E+00  0.00000000000E+00  0.24617132878E+03  0.24617132878E+03  0.00000000000E+00 0.  1.
         21   -1    0    0  501  503 -0.00000000000E+00 -0.00000000000E+00 -0.25370194180E+03  0.25370194180E+03  0.00000000000E+00 0.  1.
          6    2    1    2  501    0  0.56559046239E+02  0.24158570880E+02 -0.17448324768E+03  0.25220051857E+03  0.17140051222E+03 0.  0.
         24    2    3    3    0    0 -0.21577242816E+02  0.52585223233E+02 -0.87008058639E+02  0.13142240412E+03  0.80440430927E+02 0.  0.
         -6    2    1    2    0  502 -0.56559046239E+02 -0.24158570880E+02  0.16695263465E+03  0.24767275201E+03  0.17229639466E+03 0.  0.
        -24    2    5    5    0    0  0.27472899470E+02  0.16526779810E+02  0.50988998126E+02  0.98722019699E+02  0.78219336403E+02 0.  0.
          5    1    3    3  501    0  0.78136289055E+02 -0.28426652354E+02 -0.87475189040E+02  0.12077811445E+03  0.47000000000E+01 0. -1.
        -11    1    4    4    0    0 -0.43978005365E+02  0.48276969976E+01 -0.51198778935E+02  0.67665992778E+02  0.00000000000E+00 0.  1.
         12    1    4    4    0    0  0.22400762549E+02  0.47757526236E+02 -0.35809279704E+02  0.63756411347E+02  0.00000000000E+00 0. -1.
         -5    1    5    5    0  502 -0.84031945709E+02 -0.40685350690E+02  0.11596363653E+03  0.14895073232E+03  0.47000000000E+01 0.  1.
         11    1    6    6    0    0  0.16548490640E+02 -0.13315543142E+02 -0.14644599099E+02  0.25799622370E+02  0.00000000000E+00 0. -1.
        -12    1    6    6    0    0  0.10924408830E+02  0.29842322953E+02  0.65633597225E+02  0.72922397329E+02  0.00000000000E+00 0.  1.
</event>
<event>
12    1  0.8133495E-002  0.1859677E+03  0.7818608E-02  0.1163108E+00
         21   -1    0    0  503  502  0.00000000000E+00  0.00000000000E+00  0.11337282364E+03  0.11337282364E+03  0.00000000000E+00 0. -1.
         21   -1    0    0  501  503 -0.00000000000E+00 -0.00000000000E+00 -0.31462477834E+03  0.31462477834E+03  0.00000000000E+00 0. -1.
          6    2    1    2  501    0 -0.45567317500E+02  0.41149353985E+02 -0.53065465896E+02  0.19339065889E+03  0.17554017636E+03 0.  0.
         24    2    3    3    0    0 -0.48295360092E+02 -0.39635809782E+02 -0.16432569185E+02  0.10452140648E+03  0.82166026187E+02 0.  0.
         -6    2    1    2    0  502  0.45567317500E+02 -0.41149353985E+02 -0.14818648881E+03  0.23460694310E+03  0.17120611124E+03 0.  0.
        -24    2    5    5    0    0  0.89123448340E+02 -0.43732846428E+02 -0.71422879000E+02  0.14618436251E+03  0.80081766325E+02 0.  0.
          5    1    3    3  501    0  0.27280425923E+01  0.80785163768E+02 -0.36632896711E+02  0.88869252404E+02  0.47000000000E+01 0. -1.
        -11    1    4    4    0    0 -0.68892490638E+02 -0.13944017420E+02 -0.10803997527E+02  0.71114957996E+02  0.00000000000E+00 0.  1.
         12    1    4    4    0    0  0.20597130546E+02 -0.25691792362E+02 -0.56285716575E+01  0.33406448486E+02  0.00000000000E+00 0. -1.
         -5    1    5    5    0  502 -0.43556130840E+02  0.25834924428E+01 -0.76763609807E+02  0.88422580587E+02  0.47000000000E+01 0.  1.
         13    1    6    6    0    0  0.77968011031E+01 -0.43059057509E+02 -0.39047194162E+02  0.58647727261E+02  0.00000000000E+00 0. -1.
        -14    1    6    6    0    0  0.81326647237E+02 -0.67378891927E+00 -0.32375684838E+02  0.87536635251E+02  0.00000000000E+00 0.  1.
</event>
<event>
12    1  0.8133495E-002  0.2138981E+03  0.7818608E-02  0.1138601E+00
         21   -1    0    0  503  502  0.00000000000E+00  0.00000000000E+00  0.48010263968E+03  0.48010263968E+03  0.00000000000E+00 0. -1.
         21   -1    0    0  501  503 -0.00000000000E+00 -0.00000000000E+00 -0.13766212020E+03  0.13766212020E+03  0.00000000000E+00 0.  1.
          6    2    1    2  501    0 -0.41276306685E+02 -0.11955704210E+03 -0.40692725368E+00  0.21389844770E+03  0.17249568264E+03 0.  0.
         24    2    3    3    0    0 -0.14109683580E+02 -0.90637018355E+02 -0.67120399782E+02  0.13613489196E+03  0.74922683310E+02 0.  0.
         -6    2    1    2    0  502  0.41276306685E+02  0.11955704210E+03  0.34284744673E+03  0.40386631218E+03  0.17194768559E+03 0.  0.
        -24    2    5    5    0    0  0.64345639047E+02  0.66415943700E+02  0.31815028767E+03  0.34071403510E+03  0.79467033000E+02 0.  0.
          5    1    3    3  501    0 -0.27166623104E+02 -0.28920023742E+02  0.66713472529E+02  0.77763555738E+02  0.47000000000E+01 0. -1.
        -11    1    4    4    0    0  0.50555602546E+01  0.83858297050E+01 -0.24969797240E+02  0.26821103698E+02  0.00000000000E+00 0.  1.
         12    1    4    4    0    0 -0.19165243835E+02 -0.99022848060E+02 -0.42150602542E+02  0.10931378826E+03  0.00000000000E+00 0. -1.
         -5    1    5    5    0  502 -0.23069332362E+02  0.53141098397E+02  0.24697159065E+02  0.63152277080E+02  0.47000000000E+01 0.  1.
         13    1    6    6    0    0  0.73793628171E+02  0.22749583337E+02  0.20519617289E+03  0.21924532485E+03  0.00000000000E+00 0. -1.
        -14    1    6    6    0    0 -0.94479891239E+01  0.43666360363E+02  0.11295411478E+03  0.12146871025E+03  0.00000000000E+00 0.  1.
</event>
<event>
12    1  0.8133495E-002  0.1906924E+03  0.7818608E-02  0.1158610E+00
         21   -1    0    0  503  502  0.00000000000E+00  0.00000000000E+00  0.13675134719E+04  0.13675134719E+04  0.00000000000E+00 0.  1.
         21   -1    0    0  501  503 -0.00000000000E+00 -0.00000000000E+00 -0.26233901212E+02  0.26233901212E+02  0.00000000000E+00 0. -1.
          6    2    1    2  501    0  0.14462009261E+02  0.80563508636E+02  0.72294850370E+03  0.74767515212E+03  0.17223230089E+03 0.  0.
         24    2    3    3    0    0  0.73278391935E+02  0.60974912740E+02  0.55496504027E+03  0.56855615831E+03  0.78627263217E+02 0.  0.
         -6    2    1    2    0  502 -0.14462009261E+02 -0.80563508636E+02  0.61833106702E+03  0.64607222101E+03  0.16845289458E+03 0.  0.
        -24    2    5    5    0    0 -0.74050885593E+02 -0.67568152482E+02  0.30992606493E+03  0.33165935745E+03  0.62408130664E+02 0.  0.
          5    1    3    3  501    0 -0.58816382673E+02  0.19588595896E+02  0.16798346342E+03  0.17911899381E+03  0.47000000000E+01 0. -1.
        -13    1    4    4    0    0  0.80346739684E+02  0.41334756377E+02  0.31551125437E+03  0.32819432094E+03  0.00000000000E+00 0.  1.
         14    1    4    4    0    0 -0.70683477494E+01  0.19640156364E+02  0.23945378591E+03  0.24036183738E+03  0.00000000000E+00 0. -1.
         -5    1    5    5    0  502  0.59588876332E+02 -0.12995356153E+02  0.30840500209E+03  0.31441286357E+03  0.47000000000E+01 0.  1.
         11    1    6    6    0    0 -0.29537451729E+02 -0.62000999668E+02  0.14038172181E+03  0.15628055807E+03  0.00000000000E+00 0. -1.
        -12    1    6    6    0    0 -0.44513433864E+02 -0.55671528140E+01  0.16954434312E+03  0.17537879937E+03  0.00000000000E+00 0.  1.
</event>
<event>
12    1  0.8133495E-002  0.2258179E+03  0.7818608E-02  0.1129832E+00
         21   -1    0    0  503  502  0.00000000000E+00  0.00000000000E+00  0.64121982027E+03  0.64121982027E+03  0.00000000000E+00 0.  1.
         21   -1    0    0  501  503 -0.00000000000E+00 -0.00000000000E+00 -0.92779085791E+02  0.92779085791E+02  0.00000000000E+00 0. -1.
          6    2    1    2  501    0  0.14524237120E+03 -0.76235698924E+01  0.13273847523E+03  0.26092165362E+03  0.17119328640E+03 0.  0.
         24    2    3    3    0    0  0.15515135590E+03 -0.34373602051E+02  0.67160063283E+02  0.18925317860E+03  0.77799767049E+02 0.  0.
         -6    2    1    2    0  502 -0.14524237120E+03  0.76235698924E+01  0.41570225924E+03  0.47307725244E+03  0.17274331600E+03 0.  0.
        -24    2    5    5    0    0 -0.40621094702E+02  0.59793496998E+02  0.19319629102E+03  0.22168451450E+03  0.81202718479E+02 0.  0.
          5    1    3    3  501    0 -0.99089846975E+01  0.26750032158E+02  0.65578411948E+02  0.71668475021E+02  0.47000000000E+01 0. -1.
        -13    1    4    4    0    0  0.44352301094E+02 -0.23233910764E+02  0.59311130724E+02  0.77619272410E+02  0.00000000000E+00 0.  1.
         14    1    4    4    0    0  0.11079905481E+03 -0.11139691286E+02  0.78489325596E+01  0.11163390619E+03  0.00000000000E+00 0. -1.
         -5    1    5    5    0  502 -0.10462127650E+03 -0.52169927106E+02  0.22250596823E+03  0.25139273794E+03  0.47000000000E+01 0.  1.
         11    1    6    6    0    0 -0.22577062326E+02 -0.12095970686E+02  0.17575008237E+02  0.31063115823E+02  0.00000000000E+00 0. -1.
        -12    1    6    6    0    0 -0.18044032377E+02  0.71889467684E+02  0.17562128278E+03  0.19062139868E+03  0.00000000000E+00 0.  1.
</event>
<event>
12    1  0.8133495E-002  0.2854411E+03  0.7818608E-02  0.1092869E+00
         21   -1    0    0  501  502  0.00000000000E+00  0.00000000000E+00  0.19112717478E+03  0.19112717478E+03  0.00000000000E+00 0. -1.
         21   -1    0    0  502  503 -0.00000000000E+00 -0.00000000000E+00 -0.59343208525E+03  0.59343208525E+03  0.00000000000E+00 0.  1.
         -6    2    1    2    0  503  0.20296690872E+03  0.10029045927E+03 -0.40992036626E+03  0.49901659194E+03  0.17242131568E+03 0.  0.
        -24    2    3    3    0    0  0.15076056143E+03  0.47600516119E+02 -0.16212497534E+03  0.24031526112E+03  0.80450985583E+02 0.  0.
          6    2    1    2  501    0 -0.20296690872E+03 -0.10029045927E+03  0.76154557956E+01  0.28554266809E+03  0.17384728321E+03 0.  0.
         24    2    5    5    0    0 -0.22321587599E+03 -0.86849496570E+02  0.26743574508E+02  0.25425920474E+03  0.81020750844E+02 0.  0.
          5    1    5    5  501    0  0.20248967274E+02 -0.13440962700E+02 -0.19128118713E+02  0.31283463355E+02  0.47000000000E+01 0. -1.
        -11    1    6    6    0    0 -0.76240645337E+02  0.83728228906E+01 -0.23412068490E+01  0.76734747110E+02  0.00000000000E+00 0.  1.
         12    1    6    6    0    0 -0.14697523065E+03 -0.95222319461E+02  0.29084781358E+02  0.17752445763E+03  0.00000000000E+00 0. -1.
         -5    1    3    3    0  503  0.52206347290E+02  0.52689943151E+02 -0.24779539092E+03  0.25870133082E+03  0.47000000000E+01 0.  1.
         13    1    4    4    0    0  0.34470247376E+01  0.21236401970E+02 -0.27479186601E+01  0.21689117205E+02  0.00000000000E+00 0. -1.
        -14    1    4    4    0    0  0.14731353669E+03  0.26364114148E+02 -0.15937705668E+03  0.21862614392E+03  0.00000000000E+00 0.  1.
</event>
<event>
12    1  0.8133495E-002  0.2158872E+03  0.7818608E-02  0.1137552E+00
         21   -1    0    0  503  502  0.00000000000E+00  0.00000000000E+00  0.41273541847E+03  0.41273541847E+03  0.00000000000E+00 0. -1.
         21   -1    0    0  501  503 -0.00000000000E+00 -0.00000000000E+00 -0.11845387431E+03  0.11845387431E+03  0.00000000000E+00 0. -1.
          6    2    1    2  501    0  0.44126260022E+02 -0.12180085797E+03  0.21104006685E+03  0.29980988864E+03  0.16901326481E+03 0.  0.
         24    2    3    3    0    0  0.85008851360E+01 -0.10762810346E+03  0.22347988435E+03  0.25922820108E+03  0.74832665477E+02 0.  0.
         -6    2    1    2    0  502 -0.44126260022E+02  0.12180085797E+03  0.83241477310E+02  0.23137940413E+03  0.17269831871E+03 0.  0.
        -24    2    5    5    0    0 -0.81489482979E+01  0.55557352129E+02  0.11345838837E+03  0.15003002959E+03  0.80518191436E+02 0.  0.
          5    1    3    3  501    0  0.35625374886E+02 -0.14172754510E+02 -0.12439817496E+02  0.40581687563E+02  0.47000000000E+01 0. -1.
        -11    1    4    4    0    0 -0.18255914364E+02 -0.40888737868E+02  0.14950254760E+03  0.15606466299E+03  0.00000000000E+00 0.  1.
         12    1    4    4    0    0  0.26756799500E+02 -0.66739365594E+02  0.73977336751E+02  0.10316353809E+03  0.00000000000E+00 0. -1.
         -5    1    5    5    0  502 -0.35977311724E+02  0.66243505844E+02 -0.30216911060E+02  0.81349374548E+02  0.47000000000E+01 0.  1.
         13    1    6    6    0    0 -0.16017086241E+02  0.70144319769E+02  0.58819561508E+02  0.92932843837E+02  0.00000000000E+00 0. -1.
        -14    1    6    6    0    0  0.78681379427E+01 -0.14586967640E+02  0.54638826862E+02  0.57097185750E+02  0.00000000000E+00 0.  1.
</event>
<event>
12    1  0.8133495E-002  0.2112025E+03  0.7818608E-02  0.1140846E+00
         21   -1    0    0  503  502  0.00000000000E+00  0.00000000000E+00  0.27985040393E+03  0.27985040393E+03  0.00000000000E+00 0. -1.
         21   -1    0    0  501  503 -0.00000000000E+00 -0.00000000000E+00 -0.47777366859E+03  0.47777366859E+03  0.00000000000E+00 0. -1.
          6    2    1    2  501    0 -0.21471864888E+02 -0.11906840026E+03 -0.40852770797E+03  0.45936122193E+03  0.17169600783E+03 0.  0.
         24    2    3    3    0    0  0.21648166138E+02 -0.93420895088E+01 -0.23371878113E+03  0.24845970166E+03  0.80943418275E+02 0.  0.
         -6    2    1    2    0  502  0.21471864888E+02  0.11906840026E+03  0.21060444331E+03  0.29826285058E+03  0.17311317562E+03 0.  0.
        -24    2    5    5    0    0  0.45399830481E+01  0.15376170825E+03  0.18149771568E+03  0.24968707642E+03  0.75755798239E+02 0.  0.
          5    1    3    3  501    0 -0.43120031026E+02 -0.10972631075E+03 -0.17480892685E+03  0.21090152027E+03  0.47000000000E+01 0. -1.
        -11    1    4    4    0    0 -0.20465986074E+02  0.22177802891E+02 -0.63654839870E+02  0.70446079848E+02  0.00000000000E+00 0.  1.
         12    1    4    4    0    0  0.42114152212E+02 -0.31519892400E+02 -0.17006394126E+03  0.17801362181E+03  0.00000000000E+00 0. -1.
         -5    1    5    5    0  502  0.16931881840E+02 -0.34693307986E+02  0.29106727635E+02  0.48575774160E+02  0.47000000000E+01 0.  1.
         11    1    6    6    0    0  0.32712281302E+02  0.44619744708E+02  0.84376659705E+02  0.10089814502E+03  0.00000000000E+00 0. -1.
        -12    1    6    6    0    0 -0.28172298254E+02  0.10914196354E+03  0.97121055974E+02  0.14878893140E+03  0.00000000000E+00 0.  1.
</event>
<event>
12    1  0.8133495E-002  0.1825756E+03  0.7818608E-02  0.1165595E+00
         21   -1    0    0  503  502  0.00000000000E+00  0.00000000000E+00  0.46850071459E+03  0.46850071459E+03  0.00000000000E+00 0. -1.
         21   -1    0    0  501  503 -0.00000000000E+00 -0.00000000000E+00 -0.71619603206E+02  0.71619603206E+02  0.00000000000E+00 0. -1.
          6    2    1    2  501    0 -0.35183443579E+02 -0.52486987975E+02  0.16762434131E+03  0.24704608243E+03  0.17012080541E+03 0.  0.
         24    2    3    3    0    0  0.30851928847E+02 -0.62050115111E+01  0.51575859453E+02  0.10565290049E+03  0.86672500952E+02 0.  0.
         -6    2    1    2    0  502  0.35183443579E+02  0.52486987975E+02  0.22925677007E+03  0.29307423537E+03  0.17129238806E+03 0.  0.
        -24    2    5    5    0    0 -0.25040640237E+02  0.78965446508E+02  0.16707874531E+03  0.20243072594E+03  0.78742087014E+02 0.  0.
          5    1    3    3  501    0 -0.66035372426E+02 -0.46281976464E+02  0.11604848186E+03  0.14139318194E+03  0.47000000000E+01 0. -1.
        -11    1    4    4    0    0  0.56212289580E+02 -0.12376600206E+02  0.12887871959E+02  0.58983887428E+02  0.00000000000E+00 0.  1.
         12    1    4    4    0    0 -0.25360360733E+02  0.61715886946E+01  0.38687987494E+02  0.46669013058E+02  0.00000000000E+00 0. -1.
         -5    1    5    5    0  502  0.60224083816E+02 -0.26478458533E+02  0.62178024768E+02  0.90643509430E+02  0.47000000000E+01 0.  1.
         11    1    6    6    0    0  0.26899477006E+02  0.42382703449E+02  0.63863917339E+02  0.81230999949E+02  0.00000000000E+00 0. -1.
        -12    1    6    6    0    0 -0.51940117242E+02  0.36582743060E+02  0.10321482797E+03  0.12119972599E+03  0.00000000000E+00 0.  1.
</event>
<event>
12    1  0.8133495E-002  0.1874916E+03  0.7818608E-02  0.1161040E+00
         21   -1    0    0  501  502  0.00000000000E+00  0.00000000000E+00  0.17057469393E+03  0.17057469393E+03  0.00000000000E+00 0.  1.
         21   -1    0    0  502  503 -0.00000000000E+00 -0.00000000000E+00 -0.21392708775E+03  0.21392708775E+03  0.00000000000E+00 0.  1.
         -6    2    1    2    0  503 -0.47584716110E+02  0.56256917525E+02 -0.61585877347E+02  0.19612570514E+03  0.17100680090E+03 0.  0.
        -24    2    3    3    0    0 -0.75744302082E+02 -0.13722724930E+02 -0.37900203495E+02  0.11692208284E+03  0.79428178583E+02 0.  0.
          6    2    1    2  501    0  0.47584716110E+02 -0.56256917525E+02  0.18233483532E+02  0.18837607653E+03  0.17240632329E+03 0.  0.
         24    2    5    5    0    0 -0.43666441026E+01  0.13409804494E+02 -0.27174716087E+02  0.90210957588E+02  0.84856710030E+02 0.  0.
          5    1    5    5  501    0  0.51951360213E+02 -0.69666722019E+02  0.45408199619E+02  0.98165118945E+02  0.47000000000E+01 0. -1.
        -11    1    6    6    0    0 -0.15715843149E+02 -0.33782500043E+02 -0.85878085683E+01  0.38236049626E+02  0.00000000000E+00 0.  1.
         12    1    6    6    0    0  0.11349199047E+02  0.47192304537E+02 -0.18586907519E+02  0.51974907961E+02  0.00000000000E+00 0. -1.
         -5    1    3    3    0  503  0.28159585971E+02  0.69979642455E+02 -0.23685673852E+02  0.79203622304E+02  0.47000000000E+01 0.  1.
         13    1    4    4    0    0 -0.88218244889E+01 -0.90217643846E+01  0.23052682502E+02  0.26280087337E+02  0.00000000000E+00 0. -1.
        -14    1    4    4    0    0 -0.66922477593E+02 -0.47009605456E+01 -0.60952885997E+02  0.90641995502E+02  0.00000000000E+00 0.  1.
</event>
<event>
12    1  0.8133495E-002  0.2953804E+03  0.7818608E-02  0.1087585E+00
         21   -1    0    0  503  502  0.00000000000E+00  0.00000000000E+00  0.19216486923E+03  0.19216486923E+03  0.00000000000E+00 0.  1.
         21   -1    0    0  501  503 -0.00000000000E+00 -0.00000000000E+00 -0.55814214472E+03  0.55814214472E+03  0.00000000000E+00 0.  1.
          6    2    1    2  501    0  0.20381513018E+03 -0.12679235008E+03 -0.34514739908E+03  0.45428661863E+03  0.17214150414E+03 0.  0.
         24    2    3    3    0    0  0.18155397471E+03 -0.57730864014E+02 -0.18086711679E+03  0.27463376157E+03  0.80100503532E+02 0.  0.
         -6    2    1    2    0  502 -0.20381513018E+03  0.12679235008E+03 -0.20829876406E+02  0.29602039532E+03  0.17198047379E+03 0.  0.
        -24    2    5    5    0    0 -0.21258431166E+03  0.12211349412E+03  0.15687486117E+02  0.25788382491E+03  0.78448549505E+02 0.  0.
          5    1    3    3  501    0  0.22261155467E+02 -0.69061486065E+02 -0.16428028229E+03  0.17965285706E+03  0.47000000000E+01 0. -1.
        -11    1    4    4    0    0  0.80345674599E+02 -0.28676609802E+02 -0.13519139387E+03  0.15985771284E+03  0.00000000000E+00 0.  1.
         12    1    4    4    0    0  0.10120830011E+03 -0.29054254212E+02 -0.45675722922E+02  0.11477604874E+03  0.00000000000E+00 0. -1.
         -5    1    5    5    0  502  0.87691814819E+01  0.46788559542E+01 -0.36517362523E+02  0.38136570408E+02  0.47000000000E+01 0.  1.
         13    1    6    6    0    0 -0.36139569334E+02  0.41503849745E+02  0.31228522435E+02  0.63276050989E+02  0.00000000000E+00 0. -1.
        -14    1    6    6    0    0 -0.17644474232E+03  0.80609644379E+02 -0.15541036318E+02  0.19460777392E+03  0.00000000000E+00 0.  1.
</event>
<event>
12    1  0.8133495E-002  0.2124050E+03  0.7818608E-02  0.1141493E+00
         21   -1    0    0  503  502  0.00000000000E+00  0.00000000000E+00  0.90739345863E+02  0.90739345863E+02  0.00000000000E+00 0. -1.
         21   -1    0    0  501  503 -0.00000000000E+00 -0.00000000000E+00 -0.67754042392E+03  0.67754042392E+03  0.00000000000E+00 0. -1.
          6    2    1    2  501    0  0.10886277428E+03  0.49946441563E+01 -0.88505894971E+02  0.23010686613E+03  0.18231792644E+03 0.  0.
         24    2    3    3    0    0  0.89353261980E+02 -0.15433563220E+02 -0.13033393414E+03  0.17941556916E+03  0.83551252346E+02 0.  0.
         -6    2    1    2    0  502 -0.10886277428E+03 -0.49946441563E+01 -0.49829518308E+03  0.53817290365E+03  0.17162731324E+03 0.  0.
        -24    2    5    5    0    0 -0.13077636137E+03 -0.24739045594E+02 -0.47641636007E+03  0.50114832285E+03  0.80390399193E+02 0.  0.
          5    1    3    3  501    0  0.19509512300E+02  0.20428207376E+02  0.41828039173E+02  0.50691296963E+02  0.47000000000E+01 0. -1.
        -11    1    4    4    0    0 -0.19872727118E+01  0.14651491809E+02 -0.55857017437E+02  0.57780808770E+02  0.00000000000E+00 0.  1.
         12    1    4    4    0    0  0.91340534692E+02 -0.30085055029E+02 -0.74476916706E+02  0.12163476039E+03  0.00000000000E+00 0. -1.
         -5    1    5    5    0  502  0.21913587088E+02  0.19744401437E+02 -0.21878823009E+02  0.37024580800E+02  0.47000000000E+01 0.  1.
         11    1    6    6    0    0 -0.66570553876E+02  0.28172887965E+02 -0.22336224029E+03  0.23476805712E+03  0.00000000000E+00 0. -1.
        -12    1    6    6    0    0 -0.64205807493E+02 -0.52911933559E+02 -0.25305411979E+03  0.26638026573E+03  0.00000000000E+00 0.  1.
</event>
<event>
12    1  0.8133495E-002  0.2127157E+03  0.7818608E-02  0.1139832E+00
         21   -1    0    0  501  502  0.00000000000E+00  0.00000000000E+00  0.67375203215E+02  0.67375203215E+02  0.00000000000E+00 0.  1.
         21   -1    0    0  502  503 -0.00000000000E+00 -0.00000000000E+00 -0.11289290692E+04  0.11289290692E+04  0.00000000000E+00 0.  1.
         -6    2    1    2    0  503  0.12369283523E+03 -0.69098178658E+01 -0.91264648542E+03  0.93664803662E+03  0.17040620321E+03 0.  0.
        -24    2    3    3    0    0  0.14849203794E+03 -0.20259520881E+02 -0.63081710221E+03  0.65337589492E+03  0.80681535081E+02 0.  0.
          6    2    1    2  501    0 -0.12369283523E+03  0.69098178658E+01 -0.14890738052E+03  0.25965623574E+03  0.17291700240E+03 0.  0.
         24    2    5    5    0    0 -0.74623897176E+02 -0.60318333626E+02 -0.11677859736E+03  0.17031568649E+03  0.78505826921E+02 0.  0.
          5    1    5    5  501    0 -0.49068938051E+02  0.67228151492E+02 -0.32128783156E+02  0.89340549257E+02  0.47000000000E+01 0. -1.
        -11    1    6    6    0    0 -0.44098485560E+02 -0.73992405520E+02 -0.61990126201E+02  0.10612411719E+03  0.00000000000E+00 0.  1.
         12    1    6    6    0    0 -0.30525411615E+02  0.13674071893E+02 -0.54788471159E+02  0.64191569294E+02  0.00000000000E+00 0. -1.
         -5    1    3    3    0  503 -0.24799202709E+02  0.13349703016E+02 -0.28182938321E+03  0.28327214171E+03  0.47000000000E+01 0.  1.
         11    1    4    4    0    0  0.13313975584E+03  0.10476201865E+02 -0.54021637450E+03  0.55647971811E+03  0.00000000000E+00 0. -1.
        -12    1    4    4    0    0  0.15352282094E+02 -0.30735722747E+02 -0.90600727711E+02  0.96896176808E+02  0.00000000000E+00 0.  1.
</event>
<event>
12    1  0.8133495E-002  0.1858243E+03  0.7818608E-02  0.1162739E+00
         21   -1    0    0  503  502  0.00000000000E+00  0.00000000000E+00  0.37890610944E+03  0.37890610944E+03  0.00000000000E+00 0. -1.
         21   -1    0    0  501  503 -0.00000000000E+00 -0.00000000000E+00 -0.94632817751E+02  0.94632817751E+02  0.00000000000E+00 0. -1.
          6    2    1    2  501    0 -0.62485943306E+01 -0.67097631514E+02  0.91468592928E+02  0.20711632767E+03  0.17317486136E+03 0.  0.
         24    2    3    3    0    0 -0.13851292530E+02 -0.10869295263E+03  0.89188198833E+02  0.16451043658E+03  0.84280084697E+02 0.  0.
         -6    2    1    2    0  502  0.62485943306E+01  0.67097631514E+02  0.19280469876E+03  0.26642259952E+03  0.17107370513E+03 0.  0.
        -24    2    5    5    0    0  0.65322331111E+02  0.21624127243E+02  0.14075404305E+03  0.17537916633E+03  0.78813333432E+02 0.  0.
          5    1    3    3  501    0  0.76026981991E+01  0.41595321112E+02  0.22803940952E+01  0.42605891090E+02  0.47000000000E+01 0. -1.
        -11    1    4    4    0    0  0.23686840059E+02 -0.79511036342E+02  0.81587927107E+02  0.11636004959E+03  0.00000000000E+00 0.  1.
         12    1    4    4    0    0 -0.37538132588E+02 -0.29181916284E+02  0.76002717257E+01  0.48150386982E+02  0.00000000000E+00 0. -1.
         -5    1    5    5    0  502 -0.59073736780E+02  0.45473504271E+02  0.52050655710E+02  0.91043433194E+02  0.47000000000E+01 0.  1.
         13    1    6    6    0    0  0.14326906648E+02  0.43044692466E+02  0.40192110759E+02  0.60609500665E+02  0.00000000000E+00 0. -1.
        -14    1    6    6    0    0  0.50995424463E+02 -0.21420565223E+02  0.10056193229E+03  0.11476966566E+03  0.00000000000E+00 0.  1.
</event>
<event>
12    1  0.8133495E-002  0.1892211E+03  0.7818608E-02  0.1159531E+00
         21   -1    0    0  503  502  0.00000000000E+00  0.00000000000E+00  0.76913322592E+02  0.76913322592E+02  0.00000000000E+00 0. -1.
         21   -1    0    0  501  503 -0.00000000000E+00 -0.00000000000E+00 -0.54798969873E+03  0.54798969873E+03  0.00000000000E+00 0.  1.
          6    2    1    2  501    0 -0.69345074990E-01  0.72887587971E+02 -0.35876409751E+03  0.40486060791E+03  0.17288096740E+03 0.  0.
         24    2    3    3    0    0  0.26523772047E+02  0.10705427332E+03 -0.21226930606E+03  0.25202942593E+03  0.79350143783E+02 0.  0.
         -6    2    1    2    0  502  0.69345074990E-01 -0.72887587971E+02 -0.11231227863E+03  0.22004241341E+03  0.17461961653E+03 0.  0.
        -24    2    5    5    0    0 -0.36729827485E+02 -0.10742134127E+03 -0.71892799844E+02  0.15521507748E+03  0.77683465566E+02 0.  0.
          5    1    3    3  501    0 -0.26593117122E+02 -0.34166685347E+02 -0.14649479145E+03  0.15283118199E+03  0.47000000000E+01 0. -1.
        -11    1    4    4    0    0 -0.33300417879E+01  0.66643049220E+02 -0.18086132621E+03  0.19277760374E+03  0.00000000000E+00 0.  1.
         12    1    4    4    0    0  0.29853813834E+02  0.40411224098E+02 -0.31407979853E+02  0.59251822183E+02  0.00000000000E+00 0. -1.
         -5    1    5    5    0  502  0.36799172560E+02  0.34533753296E+02 -0.40419478783E+02  0.64827335923E+02  0.47000000000E+01 0.  1.
         11    1    6    6    0    0  0.15800471652E+02 -0.72979571767E+02 -0.41620078484E+02  0.85486278038E+02  0.00000000000E+00 0. -1.
        -12    1    6    6    0    0 -0.52530299137E+02 -0.34441769500E+02 -0.30272721360E+02  0.69728799446E+02  0.00000000000E+00 0.  1.
</event>
<event>
12    1  0.8133495E-002  0.1786966E+03  0.7818608E-02  0.1169089E+00
         21   -1    0    0  503  502  0.00000000000E+00  0.00000000000E+00  0.73722181214E+03  0.73722181214E+03  0.00000000000E+00 0. -1.
         21   -1    0    0  501  503 -0.00000000000E+00 -0.00000000000E+00 -0.43344678378E+02  0.43344678378E+02  0.00000000000E+00 0. -1.
          6    2    1    2  501    0  0.39560886136E+02 -0.27807253529E+02  0.36007376316E+03  0.40197708826E+03  0.17202952512E+03 0.  0.
         24    2    3    3    0    0 -0.24955128297E+01 -0.75874437205E+02  0.15239561293E+03  0.18464899775E+03  0.71467976929E+02 0.  0.
         -6    2    1    2    0  502 -0.39560886136E+02  0.27807253529E+02  0.33380337061E+03  0.37858940226E+03  0.17195039463E+03 0.  0.
        -24    2    5    5    0    0 -0.80669231688E+02 -0.14708880218E+02  0.22570894954E+03  0.25528485421E+03  0.86613802541E+02 0.  0.
          5    1    3    3  501    0  0.42056398965E+02  0.48067183677E+02  0.20767815023E+03  0.21732809050E+03  0.47000000000E+01 0. -1.
        -11    1    4    4    0    0  0.21456942659E+02 -0.17928264543E+02  0.97108542920E+02  0.10105390723E+03  0.00000000000E+00 0.  1.
         12    1    4    4    0    0 -0.23952455489E+02 -0.57946172662E+02  0.55287070008E+02  0.83595090527E+02  0.00000000000E+00 0. -1.
         -5    1    5    5    0  502  0.41108345552E+02  0.42516133747E+02  0.10809442107E+03  0.12330454805E+03  0.47000000000E+01 0.  1.
         11    1    6    6    0    0 -0.71165160392E+02 -0.47154918192E+02  0.16613625563E+03  0.18678683518E+03  0.00000000000E+00 0. -1.
        -12    1    6    6    0    0 -0.95040712953E+01  0.32446037974E+02  0.59572693911E+02  0.68498019032E+02  0.00000000000E+00 0.  1.
</event>
<event>
12    1  0.8133495E-002  0.1822027E+03  0.7818608E-02  0.1167147E+00
         21   -1    0    0  501  502  0.00000000000E+00  0.00000000000E+00  0.21941855219E+03  0.21941855219E+03  0.00000000000E+00 0. -1.
         21   -1    0    0  502  503 -0.00000000000E+00 -0.00000000000E+00 -0.22815722760E+03  0.22815722760E+03  0.00000000000E+00 0. -1.
         -6    2    1    2    0  503  0.84943479827E+01 -0.58155716933E+02 -0.13831819684E+03  0.22399429084E+03  0.16609418229E+03 0.  0.
        -24    2    3    3    0    0  0.55323373734E+02 -0.18214932737E+02 -0.12771840521E+03  0.16136307276E+03  0.79583859958E+02 0.  0.
          6    2    1    2  501    0 -0.84943479827E+01  0.58155716933E+02  0.12957952143E+03  0.22358148896E+03  0.17246329601E+03 0.  0.
         24    2    5    5    0    0 -0.27162778643E+01 -0.35575625840E+02  0.41830686463E+02  0.94970063531E+02  0.77437092647E+02 0.  0.
          5    1    5    5  501    0 -0.57780701184E+01  0.93731342773E+02  0.87748834969E+02  0.12861142543E+03  0.47000000000E+01 0. -1.
        -11    1    6    6    0    0 -0.38480453893E+02 -0.19234126803E+02  0.94805958445E+01  0.44051999538E+02  0.00000000000E+00 0.  1.
         12    1    6    6    0    0  0.35764176029E+02 -0.16341499036E+02  0.32350090618E+02  0.50918063993E+02  0.00000000000E+00 0. -1.
         -5    1    3    3    0  503 -0.46829025751E+02 -0.39940784196E+02 -0.10599791636E+02  0.62631218076E+02  0.47000000000E+01 0.  1.
         13    1    4    4    0    0  0.22870948528E+01 -0.21263771231E+02  0.17118023166E+01  0.21454813842E+02  0.00000000000E+00 0. -1.
        -14    1    4    4    0    0  0.53036278881E+02  0.30488384938E+01 -0.12943020752E+03  0.13990825892E+03  0.00000000000E+00 0.  1.
</event>
<event>
12    1  0.8133495E-002  0.2099721E+03  0.7818608E-02  0.1142313E+00
         21   -1    0    0  503  502  0.00000000000E+00  0.00000000000E+00  0.44074468276E+02  0.44074468276E+02  0.00000000000E+00 0. -1.
         21   -1    0    0  501  503 -0.00000000000E+00 -0.00000000000E+00 -0.10211360830E+04  0.10211360830E+04  0.00000000000E+00 0. -1.
          6    2    1    2  501    0 -0.91451546504E+02  0.78331630197E+02 -0.38164459973E+03  0.43385511342E+03  0.16756619377E+03 0.  0.
         24    2    3    3    0    0 -0.49708792440E+02 -0.11789095037E+02 -0.13307588164E+03  0.16613753789E+03  0.85337825239E+02 0.  0.
         -6    2    1    2    0  502  0.91451546504E+02 -0.78331630197E+02 -0.59541701500E+03  0.63135543785E+03  0.17201464330E+03 0.  0.
        -24    2    5    5    0    0 -0.16640220777E+02 -0.57274410270E+02 -0.25021594004E+03  0.26898393123E+03  0.78658016676E+02 0.  0.
          5    1    3    3  501    0 -0.41742754064E+02  0.90120725234E+02 -0.24856871809E+03  0.26771757553E+03  0.47000000000E+01 0. -1.
        -11    1    4    4    0    0 -0.11879754978E+02  0.24584617034E+02 -0.10101399056E+03  0.10463918129E+03  0.00000000000E+00 0.  1.
         12    1    4    4    0    0 -0.37829037462E+02 -0.36373712072E+02 -0.32061891079E+02  0.61498356602E+02  0.00000000000E+00 0. -1.
         -5    1    5    5    0  502  0.10809176728E+03 -0.21057219927E+02 -0.34520107496E+03  0.36237150663E+03  0.47000000000E+01 0.  1.
         11    1    6    6    0    0  0.13562367089E+02 -0.10330849605E+02 -0.53981595067E+01  0.17883075258E+02  0.00000000000E+00 0. -1.
        -12    1    6    6    0    0 -0.30202587866E+02 -0.46943560665E+02 -0.24481778054E+03  0.25110085597E+03  0.00000000000E+00 0.  1.
</event>
<event>
12    1  0.8133495E-002  0.1735915E+03  0.7818608E-02  0.1174835E+00
         21   -1    0    0  503  502  0.00000000000E+00  0.00000000000E+00  0.75712373401E+03  0.75712373401E+03  0.00000000000E+00 0. -1.
         21   -1    0    0  501  503 -0.00000000000E+00 -0.00000000000E+00 -0.68652163684E+02  0.68652163684E+02  0.00000000000E+00 0. -1.
          6    2    1    2  501    0 -0.83918261060E+00 -0.16731070946E+02  0.75287523435E+02  0.18921472468E+03  0.17278127181E+03 0.  0.
         24    2    3    3    0    0 -0.32019999881E+02 -0.13122654907E+02 -0.19194865106E+02  0.89543887539E+02  0.80325465980E+02 0.  0.
         -6    2    1    2    0  502  0.83918261060E+00  0.16731070946E+02  0.61318404689E+03  0.63656117301E+03  0.17010237701E+03 0.  0.
        -24    2    5    5    0    0 -0.81609907733E+01 -0.35821821517E+02  0.53229012155E+03  0.53956258136E+03  0.80282009361E+02 0.  0.
          5    1    3    3  501    0  0.31180817270E+02 -0.36084160390E+01  0.94482388541E+02  0.99670837141E+02  0.47000000000E+01 0. -1.
        -13    1    4    4    0    0 -0.30255734968E+01  0.68025871607E+01  0.28962874911E+02  0.29904471408E+02  0.00000000000E+00 0.  1.
         14    1    4    4    0    0 -0.28994426384E+02 -0.19925242068E+02 -0.48157740017E+02  0.59639416130E+02  0.00000000000E+00 0. -1.
         -5    1    5    5    0  502  0.90001733840E+01  0.52552892464E+02  0.80893925332E+02  0.96998591654E+02  0.47000000000E+01 0.  1.
         13    1    6    6    0    0 -0.33246954469E+02  0.10957766189E+02  0.19394101904E+03  0.19707498950E+03  0.00000000000E+00 0. -1.
        -14    1    6    6    0    0  0.25085963696E+02 -0.46779587706E+02  0.33834910252E+03  0.34248759185E+03  0.00000000000E+00 0.  1.
</event>
<event>
12    1  0.8133495E-002  0.2803581E+03  0.7818608E-02  0.1095557E+00
         21   -1    0    0  503  502  0.00000000000E+00  0.00000000000E+00  0.13729773066E+03  0.13729773066E+03  0.00000000000E+00 0. -1.
         21   -1    0    0  501  503 -0.00000000000E+00 -0.00000000000E+00 -0.66436183820E+03  0.66436183820E+03  0.00000000000E+00 0. -1.
          6    2    1    2  501    0 -0.21101324621E+03  0.65788130119E+02 -0.41317109307E+03  0.49905045036E+03  0.17171584586E+03 0.  0.
         24    2    3    3    0    0 -0.99905375218E+02  0.20038172766E+02 -0.32663798509E+03  0.35090158479E+03  0.77826322919E+02 0.  0.
         -6    2    1    2    0  502  0.21101324621E+03 -0.65788130119E+02 -0.11389301448E+03  0.30260911851E+03  0.17247026328E+03 0.  0.
        -24    2    5    5    0    0  0.15988509246E+03 -0.95972996234E+01 -0.17593856718E+02  0.17986094002E+03  0.79906589197E+02 0.  0.
          5    1    3    3  501    0 -0.11110787099E+03  0.45749957353E+02 -0.86533107981E+02  0.14814886558E+03  0.47000000000E+01 0. -1.
        -13    1    4    4    0    0  0.82931156332E+01  0.12768432932E+02 -0.80598409877E+02  0.82023852148E+02  0.00000000000E+00 0.  1.
         14    1    4    4    0    0 -0.10819849085E+03  0.72697398336E+01 -0.24603957521E+03  0.26887773264E+03  0.00000000000E+00 0. -1.
         -5    1    5    5    0  502  0.51128153746E+02 -0.56190830495E+02 -0.96299157759E+02  0.12274817849E+03  0.47000000000E+01 0.  1.
         11    1    6    6    0    0  0.97443262685E+02 -0.33373456188E+02  0.17363760954E+02  0.10445322980E+03  0.00000000000E+00 0. -1.
        -12    1    6    6    0    0  0.62441829780E+02  0.23776156565E+02 -0.34957617672E+02  0.75407710220E+02  0.00000000000E+00 0.  1.
</event>
<event>
12    1  0.8133495E-002  0.1753617E+03  0.7818608E-02  0.1172774E+00
         21   -1    0    0  501  502  0.00000000000E+00  0.00000000000E+00  0.22415031161E+03  0.22415031161E+03  0.00000000000E+00 0.  1.
         21   -1    0    0  502  503 -0.00000000000E+00 -0.00000000000E+00 -0.13628047410E+03  0.13628047410E+03  0.00000000000E+00 0.  1.
         -6    2    1    2    0  503  0.18108992366E+02 -0.23449534074E+02  0.52777055004E+02  0.18159219260E+03  0.17120890930E+03 0.  0.
        -24    2    3    3    0    0 -0.13491744802E+02  0.43886058894E+02  0.54669754377E+02  0.10703777636E+03  0.79751427453E+02 0.  0.
          6    2    1    2  501    0 -0.18108992366E+02  0.23449534074E+02  0.35092782506E+02  0.17883859311E+03  0.17284074389E+03 0.  0.
         24    2    5    5    0    0 -0.15065580605E+02 -0.51273313130E+02  0.40923167272E+02  0.10367976372E+03  0.78859770647E+02 0.  0.
          5    1    5    5  501    0 -0.30434117615E+01  0.74722847204E+02 -0.58303847661E+01  0.75158829394E+02  0.47000000000E+01 0. -1.
        -13    1    6    6    0    0 -0.21692137916E+02 -0.45267137788E+02  0.62594523143E+02  0.80235509211E+02  0.00000000000E+00 0.  1.
         14    1    6    6    0    0  0.66265573109E+01 -0.60061753415E+01 -0.21671355871E+02  0.23444254506E+02  0.00000000000E+00 0. -1.
         -5    1    3    3    0  503  0.31600737168E+02 -0.67335592968E+02 -0.18926993723E+01  0.74554416239E+02  0.47000000000E+01 0.  1.
         13    1    4    4    0    0  0.28609220227E+02  0.39400167500E+02  0.37022245233E+02  0.61167861849E+02  0.00000000000E+00 0. -1.
        -14    1    4    4    0    0 -0.42100965029E+02  0.44858913934E+01  0.17647509144E+02  0.45869914508E+02  0.00000000000E+00 0.  1.
</event>
<event>
12    1  0.8133495E-002  0.2144087E+03  0.7818608E-02  0.1138187E+00
         21   -1    0    0  501  502  0.00000000000E+00  0.00000000000E+00  0.59845901402E+02  0.59845901402E+02  0.00000000000E+00 0.  1.
         21   -1    0    0  502  503 -0.00000000000E+00 -0.00000000000E+00 -0.12264895605E+04  0.12264895605E+04  0.00000000000E+00 0.  1.
         -6    2    1    2    0  503 -0.36007389095E+02  0.12457622033E+03 -0.97672662756E+03  0.99990995992E+03  0.17032103870E+03 0.  0.
        -24    2    3    3    0    0 -0.56119919249E+02  0.49307962989E+02 -0.35109484333E+03  0.36942836315E+03  0.87344180879E+02 0.  0.
          6    2    1    2  501    0  0.36007389095E+02 -0.12457622033E+03 -0.18991703153E+03  0.28642550197E+03  0.17074929744E+03 0.  0.
         24    2    5    5    0    0 -0.15273533880E+02 -0.10613379713E+03 -0.63220680177E+02  0.14842582270E+03  0.80843717815E+02 0.  0.
          5    1    5    5  501    0  0.51280922975E+02 -0.18442423195E+02 -0.12669635135E+03  0.13799967927E+03  0.47000000000E+01 0. -1.
        -13    1    6    6    0    0 -0.36284868321E+02 -0.33540651807E+02  0.74296243928E+00  0.49417800294E+02  0.00000000000E+00 0.  1.
         14    1    6    6    0    0  0.21011334441E+02 -0.72593145324E+02 -0.63963642616E+02  0.99008022401E+02  0.00000000000E+00 0. -1.
         -5    1    3    3    0  503  0.20112530154E+02  0.75268257336E+02 -0.62563178423E+03  0.63048159677E+03  0.47000000000E+01 0.  1.
         13    1    4    4    0    0 -0.10739029838E+02  0.65334334250E+02 -0.22156026149E+03  0.23124197600E+03  0.00000000000E+00 0. -1.
        -14    1    4    4    0    0 -0.45380889411E+02 -0.16026371262E+02 -0.12953458184E+03  0.13818638715E+03  0.00000000000E+00 0.  1.
</event>
<event>
12    1  0.8133495E-002  0.2017427E+03  0.7818608E-02  0.1150548E+00
         21   -1    0    0  501  502  0.00000000000E+00  0.00000000000E+00  0.20208229199E+03  0.20208229199E+03  0.00000000000E+00 0.  1.
         21   -1    0    0  502  503 -0.00000000000E+00 -0.00000000000E+00 -0.50451589133E+03  0.50451589133E+03  0.00000000000E+00 0.  1.
         -6    2    1    2    0  503  0.72861206871E+01  0.83894094984E+02 -0.43123447219E+03  0.47609168334E+03  0.18332706897E+03 0.  0.
        -24    2    3    3    0    0  0.76893979746E+02  0.64603541878E+02 -0.30283728098E+03  0.32869660814E+03  0.79023665521E+02 0.  0.
          6    2    1    2  501    0 -0.72861206871E+01 -0.83894094984E+02  0.12880087285E+03  0.23050649998E+03  0.17161665116E+03 0.  0.
         24    2    5    5    0    0 -0.33559874377E+02 -0.10569635971E+03  0.13873029697E+03  0.19464102433E+03  0.79630694019E+02 0.  0.
          5    1    5    5  501    0  0.26273753689E+02  0.21802264730E+02 -0.99294241150E+01  0.35865475649E+02  0.47000000000E+01 0. -1.
        -13    1    6    6    0    0 -0.30073845633E+02 -0.91661354050E+01  0.68013105386E+02  0.74928210533E+02  0.00000000000E+00 0.  1.
         14    1    6    6    0    0 -0.34860287432E+01 -0.96530224309E+02  0.70717191581E+02  0.11971281379E+03  0.00000000000E+00 0. -1.
         -5    1    3    3    0  503 -0.69607859059E+02  0.19290553106E+02 -0.12839719121E+03  0.14739507520E+03  0.47000000000E+01 0.  1.
         11    1    4    4    0    0  0.66515269920E+00 -0.16102266420E+02 -0.50749786771E+02  0.53247218418E+02  0.00000000000E+00 0. -1.
        -12    1    4    4    0    0  0.76228827047E+02  0.80705808299E+02 -0.25208749420E+03  0.27544938973E+03  0.00000000000E+00 0.  1.
</event>
<event>
12    1  0.8133495E-002  0.2074558E+03  0.7818608E-02  0.1146816E+00
         21   -1    0    0  503  502  0.00000000000E+00  0.00000000000E+00  0.10862577759E+03  0.10862577759E+03  0.00000000000E+00 0.  1.
         21   -1    0    0  501  503 -0.00000000000E+00 -0.00000000000E+00 -0.52781946844E+03  0.52781946844E+03  0.00000000000E+00 0.  1.
          6    2    1    2  501    0 -0.10121630293E+03  0.55573313124E+02 -0.28650205481E+02  0.19422119855E+03  0.15351842424E+03 0.  0.
         24    2    3    3    0    0 -0.70898139770E+02  0.10421506306E+02 -0.67477257036E+02  0.12723234419E+03  0.80620935082E+02 0.  0.
         -6    2    1    2    0  502  0.10121630293E+03 -0.55573313124E+02 -0.39054348537E+03  0.44222404748E+03  0.17235069217E+03 0.  0.
        -24    2    5    5    0    0  0.69879775255E+02 -0.75464570045E+02 -0.38207342004E+03  0.40386427591E+03  0.80920768216E+02 0.  0.
          5    1    3    3  501    0 -0.30318163159E+02  0.45151806818E+02  0.38827051556E+02  0.66988854362E+02  0.47000000000E+01 0. -1.
        -11    1    4    4    0    0 -0.50918208469E+02  0.35950457409E+02 -0.12745530974E+02  0.63620341884E+02  0.00000000000E+00 0.  1.
         12    1    4    4    0    0 -0.19979931301E+02 -0.25528951102E+02 -0.54731726063E+02  0.63612002303E+02  0.00000000000E+00 0. -1.
         -5    1    5    5    0  502  0.31336527674E+02  0.19891256921E+02 -0.84700653302E+01  0.38359771574E+02  0.47000000000E+01 0.  1.
         13    1    6    6    0    0  0.25983446651E+01 -0.20929787010E+02 -0.21163707063E+03  0.21268534751E+03  0.00000000000E+00 0. -1.
        -14    1    6    6    0    0  0.67281430590E+02 -0.54534783035E+02 -0.17043634941E+03  0.19117892840E+03  0.00000000000E+00 0.  1.
</event>
<event>
12    1  0.8133495E-002  0.1904646E+03  0.7818608E-02  0.1158878E+00
         21   -1    0    0  503  502  0.00000000000E+00  0.00000000000E+00  0.92001391855E+02  0.92001391855E+02  0.00000000000E+00 0. -1.
         21   -1    0    0  501  503 -0.00000000000E+00 -0.00000000000E+00 -0.10190811743E+04  0.10190811743E+04  0.00000000000E+00 0. -1.
          6    2    1    2  501    0  0.75515123320E+02  0.36648397317E+01 -0.90285762003E+03  0.92272891195E+03  0.17481646951E+03 0.  0.
         24    2    3    3    0    0  0.50777562887E+01  0.20737362096E+02 -0.14351614707E+03  0.15992195324E+03  0.67248233175E+02 0.  0.
         -6    2    1    2    0  502 -0.75515123320E+02 -0.36648397317E+01 -0.24222162429E+02  0.18835365421E+03  0.17080521363E+03 0.  0.
        -24    2    5    5    0    0 -0.90257959748E+02 -0.36026897487E+02  0.25299174124E+02  0.12720541808E+03  0.78081582575E+02 0.  0.
          5    1    3    3  501    0  0.70437367031E+02 -0.17072522364E+02 -0.75934147296E+03  0.76280695871E+03  0.47000000000E+01 0. -1.
        -13    1    4    4    0    0 -0.21031526434E+02 -0.28702389938E+01 -0.13338880241E+02  0.25069684922E+02  0.00000000000E+00 0.  1.
         14    1    4    4    0    0  0.26109282723E+02  0.23607601089E+02 -0.13017726682E+03  0.13485226832E+03  0.00000000000E+00 0. -1.
         -5    1    5    5    0  502  0.14742836428E+02  0.32362057755E+02 -0.49521336553E+02  0.61148236132E+02  0.47000000000E+01 0.  1.
         13    1    6    6    0    0 -0.21340053199E+02  0.23323637510E+02  0.16952808578E+02  0.35871822590E+02  0.00000000000E+00 0. -1.
        -14    1    6    6    0    0 -0.68917906549E+02 -0.59350534997E+02  0.83463655460E+01  0.91333595491E+02  0.00000000000E+00 0.  1.
</event>
<event>
12    1  0.8133495E-002  0.2499369E+03  0.7818608E-02  0.1113365E+00
         21   -1    0    0  503  502  0.00000000000E+00  0.00000000000E+00  0.50634849216E+03  0.50634849216E+03  0.00000000000E+00 0. -1.
         21   -1    0    0  501  503 -0.00000000000E+00 -0.00000000000E+00 -0.13538794400E+03  0.13538794400E+03  0.00000000000E+00 0. -1.
          6    2    1    2  501    0 -0.29583725821E+02  0.17930136025E+03  0.28136719188E+03  0.37634549205E+03  0.17159329270E+03 0.  0.
         24    2    3    3    0    0  0.36604833318E+02  0.47542091178E+02  0.89535292984E+02  0.13434756276E+03  0.80203083939E+02 0.  0.
         -6    2    1    2    0  502  0.29583725821E+02 -0.17930136025E+03  0.89593356287E+02  0.26539094412E+03  0.17140947788E+03 0.  0.
        -24    2    5    5    0    0 -0.23204071722E+02 -0.12382226708E+03  0.28330743571E+01  0.14957247465E+03  0.80582355977E+02 0.  0.
          5    1    3    3  501    0 -0.66188559139E+02  0.13175926907E+03  0.19183189889E+03  0.24199792929E+03  0.47000000000E+01 0. -1.
        -11    1    4    4    0    0 -0.11641599416E+02 -0.15451602685E+02  0.91622481342E+01  0.21406205955E+02  0.00000000000E+00 0.  1.
         12    1    4    4    0    0  0.48246432734E+02  0.62993693863E+02  0.80373044849E+02  0.11294135680E+03  0.00000000000E+00 0. -1.
         -5    1    5    5    0  502  0.52787797543E+02 -0.55479093174E+02  0.86760281929E+02  0.11581846947E+03  0.47000000000E+01 0.  1.
         13    1    6    6    0    0 -0.18530024927E+02 -0.81951357381E+02  0.40305959548E+02  0.93187752282E+02  0.00000000000E+00 0. -1.
        -14    1    6    6    0    0 -0.46740467947E+01 -0.41870909697E+02 -0.37472885191E+02  0.56384722371E+02  0.00000000000E+00 0.  1.
</event>
<event>
12    1  0.8133495E-002  0.1838746E+03  0.7818608E-02  0.1164259E+00
         21   -1    0    0  503  502  0.00000000000E+00  0.00000000000E+00  0.53292375537E+03  0.53292375537E+03  0.00000000000E+00 0.  1.
         21   -1    0    0  501  503 -0.00000000000E+00 -0.00000000000E+00 -0.92802651258E+02  0.92802651258E+02  0.00000000000E+00 0. -1.
          6    2    1    2  501    0  0.64694236642E+02  0.29931753564E+01  0.43678421290E+02  0.18899115269E+03  0.17209168474E+03 0.  0.
         24    2    3    3    0    0 -0.29180842230E+00 -0.51412353088E+02  0.34900045601E+02  0.10365477441E+03  0.82963750359E+02 0.  0.
         -6    2    1    2    0  502 -0.64694236642E+02 -0.29931753564E+01  0.39644268283E+03  0.43673525394E+03  0.17139596819E+03 0.  0.
        -24    2    5    5    0    0 -0.10803133551E+03  0.11315789474E+02  0.30028116418E+03  0.33018959104E+03  0.84009356202E+02 0.  0.
          5    1    3    3  501    0  0.64986045064E+02  0.54405528444E+02  0.87783756891E+01  0.85336378281E+02  0.47000000000E+01 0. -1.
        -13    1    4    4    0    0  0.63787197550E+01 -0.70312443410E+02  0.94051854008E+01  0.71224892253E+02  0.00000000000E+00 0.  1.
         14    1    4    4    0    0 -0.66705281773E+01  0.18900090322E+02  0.25494860200E+02  0.32429882161E+02  0.00000000000E+00 0. -1.
         -5    1    5    5    0  502  0.43337098870E+02 -0.14308964831E+02  0.96161518651E+02  0.10654566290E+03  0.47000000000E+01 0.  1.
         13    1    6    6    0    0 -0.83105188026E+02  0.36434680622E+02  0.26547018346E+03  0.28055013194E+03  0.00000000000E+00 0. -1.
        -14    1    6    6    0    0 -0.24926147485E+02 -0.25118891147E+02  0.34810980719E+02  0.49639459098E+02  0.00000000000E+00 0.  1.
</event>
<event>
12    1  0.8133495E-002  0.2573674E+03  0.7818608E-02  0.1108814E+00
         21   -1    0    0  503  502  0.00000000000E+00  0.00000000000E+00  0.15427354850E+03  0.15427354850E+03  0.00000000000E+00 0.  1.
         21   -1    0    0  501  503 -0.00000000000E+00 -0.00000000000E+00 -0.14744287806E+04  0.14744287806E+04  0.00000000000E+00 0. -1.
          6    2    1    2  501    0  0.14124826000E+03  0.12971921597E+03 -0.13457710771E+04  0.13700632754E+04  0.17086673428E+03 0.  0.
         24    2    3    3    0    0  0.24325847348E+02  0.49450711120E+02 -0.34962364163E+03  0.36385967447E+03  0.84380402025E+02 0.  0.
         -6    2    1    2    0  502 -0.14124826000E+03 -0.12971921597E+03  0.25615844971E+02  0.25863905366E+03  0.17163869791E+03 0.  0.
        -24    2    5    5    0    0 -0.98721882097E+02 -0.15846949350E+03  0.25460325761E+02  0.20709115883E+03  0.85906516072E+02 0.  0.
          5    1    3    3  501    0  0.11692241265E+03  0.80268504853E+02 -0.99614743543E+03  0.10062036009E+04  0.47000000000E+01 0. -1.
        -13    1    4    4    0    0  0.39174757117E+02 -0.26660090381E+01 -0.21815272675E+03  0.22165825360E+03  0.00000000000E+00 0.  1.
         14    1    4    4    0    0 -0.14848909769E+02  0.52116720158E+02 -0.13147091488E+03  0.14220142088E+03  0.00000000000E+00 0. -1.
         -5    1    5    5    0  502 -0.42526377901E+02  0.28750277526E+02  0.15551920991E+00  0.51547894830E+02  0.47000000000E+01 0.  1.
         11    1    6    6    0    0  0.37347900124E+01 -0.63898286807E+02  0.21779535788E+02  0.67611300035E+02  0.00000000000E+00 0. -1.
        -12    1    6    6    0    0 -0.10245667211E+03 -0.94571206691E+02  0.36807899731E+01  0.13947985880E+03  0.00000000000E+00 0.  1.
</event>
<event>
12    1  0.8133495E-002  0.3876960E+03  0.7818608E-02  0.1048170E+00
         21   -1    0    0  501  502  0.00000000000E+00  0.00000000000E+00  0.86268167187E+03  0.86268167187E+03  0.00000000000E+00 0.  1.
         21   -1    0    0  502  503 -0.00000000000E+00 -0.00000000000E+00 -0.32599069812E+03  0.32599069812E+03  0.00000000000E+00 0. -1.
         -6    2    1    2    0  503  0.29388398443E+03 -0.18501953435E+03 -0.13755215968E+03  0.41091146271E+03  0.17125305590E+03 0.  0.
        -24    2    3    3    0    0  0.51037266032E+02 -0.29611088219E+02 -0.42072097159E+02  0.10716017282E+03  0.78940624591E+02 0.  0.
          6    2    1    2  501    0 -0.29388398443E+03  0.18501953435E+03  0.67424313343E+03  0.77776090728E+03  0.17236067278E+03 0.  0.
         24    2    5    5    0    0 -0.25071751039E+03  0.14717917436E+03  0.41954465264E+03  0.51663135429E+03  0.79807651892E+02 0.  0.
          5    1    5    5  501    0 -0.43166474040E+02  0.37840359992E+02  0.25469848079E+03  0.26112955299E+03  0.47000000000E+01 0. -1.
        -13    1    6    6    0    0 -0.17500846856E+03  0.78835053050E+02  0.32559426732E+03  0.37796105165E+03  0.00000000000E+00 0.  1.
         14    1    6    6    0    0 -0.75709041835E+02  0.68344121307E+02  0.93950385321E+02  0.13867030264E+03  0.00000000000E+00 0. -1.
         -5    1    3    3    0  503  0.24284671840E+03 -0.15540844613E+03 -0.95480062518E+02  0.30375128988E+03  0.47000000000E+01 0.  1.
         11    1    4    4    0    0  0.70959468475E+02 -0.16199040054E+02 -0.40006671056E+02  0.83055335734E+02  0.00000000000E+00 0. -1.
        -12    1    4    4    0    0 -0.19922202443E+02 -0.13412048165E+02 -0.20654261034E+01  0.24104837090E+02  0.00000000000E+00 0.  1.
</event>
<event>
12    1  0.8133495E-002  0.1954156E+03  0.7818608E-02  0.1153806E+00
         21   -1    0    0  503  502  0.00000000000E+00  0.00000000000E+00  0.13778605526E+03  0.13778605526E+03  0.00000000000E+00 0. -1.
         21   -1    0    0  501  503 -0.00000000000E+00 -0.00000000000E+00 -0.30075690640E+03  0.30075690640E+03  0.00000000000E+00 0. -1.
          6    2    1    2  501    0  0.72524597694E+02  0.56830805665E+02 -0.14422488430E+03  0.24287464354E+03  0.17233025700E+03 0.  0.
         24    2    3    3    0    0  0.61504788280E+02  0.91707131503E+02 -0.55170987797E+02  0.14648750339E+03  0.78877841026E+02 0.  0.
         -6    2    1    2    0  502 -0.72524597694E+02 -0.56830805665E+02 -0.18745966833E+02  0.19566831812E+03  0.17159580910E+03 0.  0.
        -24    2    5    5    0    0 -0.29612663481E+02 -0.31109145686E+02 -0.76407136080E+02  0.11918342858E+03  0.80758593474E+02 0.  0.
          5    1    3    3  501    0  0.11019809414E+02 -0.34876325838E+02 -0.89053896502E+02  0.96387140147E+02  0.47000000000E+01 0. -1.
        -13    1    4    4    0    0  0.36344372563E+02  0.77127115601E+02 -0.73114396136E+02  0.11231749775E+03  0.00000000000E+00 0.  1.
         14    1    4    4    0    0  0.25160415716E+02  0.14580015903E+02  0.17943408340E+02  0.34170005642E+02  0.00000000000E+00 0. -1.
         -5    1    5    5    0  502 -0.42911934213E+02 -0.25721659979E+02  0.57661169247E+02  0.76484889546E+02  0.47000000000E+01 0.  1.
         13    1    6    6    0    0 -0.42423967506E+02  0.97630803930E+01 -0.18853283592E+02  0.47440036466E+02  0.00000000000E+00 0. -1.
        -14    1    6    6    0    0  0.12811304025E+02 -0.40872226079E+02 -0.57553852488E+02  0.71743392111E+02  0.00000000000E+00 0.  1.
</event>
<event>
12    1  0.8133495E-002  0.1844764E+03  0.7818608E-02  0.1163740E+00
         21   -1    0    0  503  502  0.00000000000E+00  0.00000000000E+00  0.40755240459E+03  0.40755240459E+03  0.00000000000E+00 0. -1.
         21   -1    0    0  501  503 -0.00000000000E+00 -0.00000000000E+00 -0.12364366005E+03  0.12364366005E+03  0.00000000000E+00 0. -1.
          6    2    1    2  501    0 -0.55818095912E+02 -0.41004496918E+02 -0.10323228957E+02  0.18391520810E+03  0.17006235950E+03 0.  0.
         24    2    3    3    0    0 -0.10292874105E+03 -0.33488234103E+02 -0.19633801966E+02  0.13508198313E+03  0.78395589350E+02 0.  0.
         -6    2    1    2    0  502  0.55818095912E+02  0.41004496918E+02  0.29423197350E+03  0.34728085653E+03  0.17098102377E+03 0.  0.
        -24    2    5    5    0    0  0.31078894687E+02  0.11703024892E+02  0.50037191304E+02  0.10004860542E+03  0.80019650377E+02 0.  0.
          5    1    3    3  501    0  0.47110645135E+02 -0.75162628150E+01  0.93105730089E+01  0.48833224975E+02  0.47000000000E+01 0. -1.
        -13    1    4    4    0    0 -0.41839105382E+02  0.23494922321E+02  0.43101837605E+01  0.48177793620E+02  0.00000000000E+00 0.  1.
         14    1    4    4    0    0 -0.61089635665E+02 -0.56983156424E+02 -0.23943985726E+02  0.86904189509E+02  0.00000000000E+00 0. -1.
         -5    1    5    5    0  502  0.24739201225E+02  0.29301472026E+02  0.24419478219E+03  0.24723225111E+03  0.47000000000E+01 0.  1.
         11    1    6    6    0    0  0.56396442586E+02  0.14925730608E+02  0.45819510861E+02  0.74180615703E+02  0.00000000000E+00 0. -1.
        -12    1    6    6    0    0 -0.25317547899E+02 -0.32227057154E+01  0.42176804435E+01  0.25867989718E+02  0.00000000000E+00 0.  1.
</event>
<event>
12    1  0.8133495E-002  0.2236186E+03  0.7818608E-02  0.1131361E+00
         21   -1    0    0  503  502  0.00000000000E+00  0.00000000000E+00  0.16912008532E+03  0.16912008532E+03  0.00000000000E+00 0. -1.
         21   -1    0    0  501  503 -0.00000000000E+00 -0.00000000000E+00 -0.90506197085E+03  0.90506197085E+03  0.00000000000E+00 0. -1.
          6    2    1    2  501    0 -0.14280365348E+03 -0.15191784223E+02 -0.80885001163E+03  0.83897815157E+03  0.17035939584E+03 0.  0.
         24    2    3    3    0    0 -0.99906199672E+01 -0.19300065349E+02 -0.41703261707E+03  0.42521597287E+03  0.80125619346E+02 0.  0.
         -6    2    1    2    0  502  0.14280365348E+03  0.15191784223E+02  0.72908126098E+02  0.23520390460E+03  0.17141064183E+03 0.  0.
        -24    2    5    5    0    0  0.17935472746E+02  0.25251692424E+02  0.21305607154E+02  0.99637779501E+02  0.92273663929E+02 0.  0.
          5    1    3    3  501    0 -0.13281303351E+03  0.41082811259E+01 -0.39181739456E+03  0.41376217870E+03  0.47000000000E+01 0. -1.
        -13    1    4    4    0    0  0.22324600982E+02 -0.22691099505E+02 -0.72823519781E+02  0.79476655937E+02  0.00000000000E+00 0.  1.
         14    1    4    4    0    0 -0.32315220949E+02  0.33910341561E+01 -0.34420909729E+03  0.34573931693E+03  0.00000000000E+00 0. -1.
         -5    1    5    5    0  502  0.12486818073E+03 -0.10059908201E+02  0.51602518944E+02  0.13556612510E+03  0.47000000000E+01 0.  1.
         13    1    6    6    0    0  0.39266860114E+02  0.28794408194E+02 -0.20294850874E+02  0.52753058854E+02  0.00000000000E+00 0. -1.
        -14    1    6    6    0    0 -0.21331387368E+02 -0.35427157692E+01  0.41600458028E+02  0.46884720647E+02  0.00000000000E+00 0.  1.
</event>
<event>
12    1  0.8133495E-002  0.2934300E+03  0.7818608E-02  0.1088617E+00
         21   -1    0    0  503  502  0.00000000000E+00  0.00000000000E+00  0.27271376785E+03  0.27271376785E+03  0.00000000000E+00 0.  1.
         21   -1    0    0  501  503 -0.00000000000E+00 -0.00000000000E+00 -0.88290983270E+03  0.88290983270E+03  0.00000000000E+00 0. -1.
          6    2    1    2  501    0 -0.11589444801E+03  0.20783145985E+03 -0.76830581183E+03  0.82230711997E+03  0.17108401525E+03 0.  0.
         24    2    3    3    0    0 -0.36121983156E+02  0.13275289486E+03 -0.27206902531E+03  0.31410098525E+03  0.75562858868E+02 0.  0.
         -6    2    1    2    0  502  0.11589444801E+03 -0.20783145985E+03  0.15810974699E+03  0.33331648057E+03  0.17168501783E+03 0.  0.
        -24    2    5    5    0    0  0.52697298256E+02 -0.19998876433E+03  0.15209341937E+03  0.26917855257E+03  0.80945499246E+02 0.  0.
          5    1    3    3  501    0 -0.79772464855E+02  0.75078564990E+02 -0.49623678652E+03  0.50820613472E+03  0.47000000000E+01 0. -1.
        -13    1    4    4    0    0  0.20491742372E+02  0.17859957438E+02 -0.31885819201E+02  0.41899821613E+02  0.00000000000E+00 0.  1.
         14    1    4    4    0    0 -0.56613725528E+02  0.11489293742E+03 -0.24018320611E+03  0.27220116364E+03  0.00000000000E+00 0. -1.
         -5    1    5    5    0  502  0.63197149755E+02 -0.78426955190E+01  0.60163276171E+01  0.64137928000E+02  0.47000000000E+01 0.  1.
         13    1    6    6    0    0  0.49950520452E+02 -0.11670771539E+03  0.47714410541E+02  0.13561862076E+03  0.00000000000E+00 0. -1.
        -14    1    6    6    0    0  0.27467778039E+01 -0.83281048945E+02  0.10437900883E+03  0.13355993181E+03  0.00000000000E+00 0.  1.
</event>
<event>
12    1  0.8133495E-002  0.2227837E+03  0.7818608E-02  0.1133289E+00
         21   -1    0    0  501  502  0.00000000000E+00  0.00000000000E+00  0.29704532536E+03  0.29704532536E+03  0.00000000000E+00 0.  1.
         21   -1    0    0  502  503 -0.00000000000E+00 -0.00000000000E+00 -0.24498416770E+03  0.24498416770E+03  0.00000000000E+00 0. -1.
         -6    2    1    2    0  503  0.12631901606E+03  0.34418813833E+02 -0.13207863160E+03  0.25899291711E+03  0.18025375898E+03 0.  0.
        -24    2    3    3    0    0  0.15336645023E+03  0.60939697747E+02 -0.12352555033E+03  0.21987557853E+03  0.76497017158E+02 0.  0.
          6    2    1    2  501    0 -0.12631901606E+03 -0.34418813833E+02  0.18413978926E+03  0.28303657595E+03  0.17047314383E+03 0.  0.
         24    2    5    5    0    0 -0.49774367807E+01 -0.95618313885E+00  0.11448892638E+03  0.13910305235E+03  0.78843235251E+02 0.  0.
          5    1    5    5  501    0 -0.12134157928E+03 -0.33462630694E+02  0.69650862881E+02  0.14393352360E+03  0.47000000000E+01 0. -1.
        -11    1    6    6    0    0 -0.41428533051E+02 -0.71153273884E+01  0.60303883230E+02  0.73508567985E+02  0.00000000000E+00 0.  1.
         12    1    6    6    0    0  0.36451096271E+02  0.61591442495E+01  0.54185043153E+02  0.65594484362E+02  0.00000000000E+00 0. -1.
         -5    1    3    3    0  503 -0.27047434165E+02 -0.26520883913E+02 -0.85530812720E+01  0.39117338582E+02  0.47000000000E+01 0.  1.
         11    1    4    4    0    0  0.10907914459E+03  0.53448512240E+02 -0.45242795623E+02  0.12962219641E+03  0.00000000000E+00 0. -1.
        -12    1    4    4    0    0  0.44287305633E+02  0.74911855066E+01 -0.78282754703E+02  0.90253382121E+02  0.00000000000E+00 0.  1.
</event>
<event>
12    1  0.8133495E-002  0.2431770E+03  0.7818608E-02  0.1117708E+00
         21   -1    0    0  503  502  0.00000000000E+00  0.00000000000E+00  0.60208063435E+03  0.60208063435E+03  0.00000000000E+00 0.  1.
         21   -1    0    0  501  503 -0.00000000000E+00 -0.00000000000E+00 -0.10082632716E+03  0.10082632716E+03  0.00000000000E+00 0.  1.
          6    2    1    2  501    0 -0.13930087597E+03 -0.10104004951E+03  0.19368388709E+03  0.31081692204E+03  0.17169707411E+03 0.  0.
         24    2    3    3    0    0 -0.12098431770E+03 -0.12077743727E+03  0.10362948946E+03  0.21670557674E+03  0.83653101686E+02 0.  0.
         -6    2    1    2    0  502  0.13930087597E+03  0.10104004951E+03  0.30757042010E+03  0.39209003947E+03  0.17181737420E+03 0.  0.
        -24    2    5    5    0    0  0.96767274164E+02  0.12392734130E+03  0.15944969235E+03  0.23622222560E+03  0.75198698176E+02 0.  0.
          5    1    3    3  501    0 -0.18316558275E+02  0.19737387762E+02  0.90054397629E+02  0.94111345305E+02  0.47000000000E+01 0. -1.
        -13    1    4    4    0    0 -0.77293132862E+01 -0.45502068080E+02  0.70740464087E+00  0.46159299223E+02  0.00000000000E+00 0.  1.
         14    1    4    4    0    0 -0.11325500441E+03 -0.75275369188E+02  0.10292208482E+03  0.17054627751E+03  0.00000000000E+00 0. -1.
         -5    1    5    5    0  502  0.42533601807E+02 -0.22887291794E+02  0.14812072775E+03  0.15586781386E+03  0.47000000000E+01 0.  1.
         11    1    6    6    0    0 -0.26604440119E+00 -0.91566515787E+01  0.12475573821E+02  0.15477564083E+02  0.00000000000E+00 0. -1.
        -12    1    6    6    0    0  0.97033318565E+02  0.13308399288E+03  0.14697411853E+03  0.22074466152E+03  0.00000000000E+00 0.  1.
</event>
<event>
12    1  0.8133495E-002  0.1784799E+03  0.7818608E-02  0.1170242E+00
         21   -1    0    0  503  502  0.00000000000E+00  0.00000000000E+00  0.26084688019E+03  0.26084688019E+03  0.00000000000E+00 0.  1.
         21   -1    0    0  501  503 -0.00000000000E+00 -0.00000000000E+00 -0.20112175542E+03  0.20112175542E+03  0.00000000000E+00 0.  1.
          6    2    1    2  501    0  0.37247902507E+02 -0.31129671989E+02 -0.11748937478E+03  0.21045310523E+03  0.16772088003E+03 0.  0.
         24    2    3    3    0    0  0.47603354979E+02 -0.63866444599E+02 -0.30296319147E+02  0.11662533415E+03  0.79615321765E+02 0.  0.
         -6    2    1    2    0  502 -0.37247902507E+02  0.31129671989E+02  0.17721449955E+03  0.25151553037E+03  0.17175162430E+03 0.  0.
        -24    2    5    5    0    0 -0.14923849088E+02 -0.39088694396E+02  0.41839642225E+02  0.97316229679E+02  0.77260893059E+02 0.  0.
          5    1    3    3  501    0 -0.10355452472E+02  0.32736772610E+02 -0.87193055629E+02  0.93827771085E+02  0.47000000000E+01 0. -1.
        -11    1    4    4    0    0  0.14514806661E+02 -0.15282704634E+02 -0.50296955074E+02  0.54534616190E+02  0.00000000000E+00 0.  1.
         12    1    4    4    0    0  0.33088548318E+02 -0.48583739965E+02  0.20000635926E+02  0.62090717955E+02  0.00000000000E+00 0. -1.
         -5    1    5    5    0  502 -0.22324053419E+02  0.70218366386E+02  0.13537485733E+03  0.15419930070E+03  0.47000000000E+01 0.  1.
         13    1    6    6    0    0  0.24335948813E+02 -0.15863114477E+02 -0.76208029601E+01  0.30032539741E+02  0.00000000000E+00 0. -1.
        -14    1    6    6    0    0 -0.39259797901E+02 -0.23225579919E+02  0.49460445185E+02  0.67283689938E+02  0.00000000000E+00 0.  1.
</event>
<event>
12    1  0.8133495E-002  0.1946120E+03  0.7818608E-02  0.1154475E+00
         21   -1    0    0  501  502  0.00000000000E+00  0.00000000000E+00  0.45307290728E+02  0.45307290728E+02  0.00000000000E+00 0. -1.
         21   -1    0    0  502  503 -0.00000000000E+00 -0.00000000000E+00 -0.85644898050E+03  0.85644898050E+03  0.00000000000E+00 0. -1.
         -6    2    1    2    0  503  0.40341625108E+02 -0.80449559687E+02 -0.33275655216E+03  0.38548767362E+03  0.17255215195E+03 0.  0.
        -24    2    3    3    0    0  0.48331616035E+02 -0.53037071148E+01 -0.26880579286E+03  0.28637900232E+03  0.85978510535E+02 0.  0.
          6    2    1    2  501    0 -0.40341625108E+02  0.80449559687E+02 -0.47838513761E+03  0.51626859760E+03  0.17199228649E+03 0.  0.
         24    2    5    5    0    0  0.17505741197E+02  0.34742937295E+02 -0.14209847923E+03  0.17196318126E+03  0.88689544152E+02 0.  0.
          5    1    5    5  501    0 -0.57847366304E+02  0.45706622391E+02 -0.33628665838E+03  0.34430541634E+03  0.47000000000E+01 0. -1.
        -13    1    6    6    0    0  0.81034361225E+01  0.25627995745E+02 -0.15274145129E+03  0.15508839668E+03  0.00000000000E+00 0.  1.
         14    1    6    6    0    0  0.94023050743E+01  0.91149415505E+01  0.10642972061E+02  0.16874784575E+02  0.00000000000E+00 0. -1.
         -5    1    3    3    0  503 -0.79899909272E+01 -0.75145852572E+02 -0.63950759295E+02  0.99108671306E+02  0.47000000000E+01 0.  1.
         13    1    4    4    0    0  0.71227180296E+02  0.13049302317E+01 -0.16241056140E+03  0.17734769384E+03  0.00000000000E+00 0. -1.
        -14    1    4    4    0    0 -0.22895564261E+02 -0.66086373465E+01 -0.10639523146E+03  0.10903130847E+03  0.00000000000E+00 0.  1.
</event>
<event>
12    1  0.8133495E-002  0.2158366E+03  0.7818608E-02  0.1137327E+00
         21   -1    0    0  501  502  0.00000000000E+00  0.00000000000E+00  0.15481385982E+03  0.15481385982E+03  0.00000000000E+00 0.  1.
         21   -1    0    0  502  503 -0.00000000000E+00 -0.00000000000E+00 -0.37771448994E+03  0.37771448994E+03  0.00000000000E+00 0. -1.
         -6    2    1    2    0  503  0.60664351663E+01 -0.13002385682E+03  0.99875706195E+01  0.21606753872E+03  0.17216975560E+03 0.  0.
        -24    2    3    3    0    0 -0.58257011991E+01 -0.37903307979E+02  0.62055501416E+02  0.10948058903E+03  0.81636478176E+02 0.  0.
          6    2    1    2  501    0 -0.60664351663E+01  0.13002385682E+03 -0.23288820074E+03  0.31646081105E+03  0.17019848973E+03 0.  0.
         24    2    5    5    0    0  0.60127446098E+02  0.10304090092E+03 -0.14875460960E+03  0.20596076135E+03  0.77840633992E+02 0.  0.
          5    1    5    5  501    0 -0.66193881265E+02  0.26982955898E+02 -0.84133591133E+02  0.11050004970E+03  0.47000000000E+01 0. -1.
        -11    1    6    6    0    0  0.31842490648E+02  0.47629162551E+02 -0.12823341666E+03  0.14045031322E+03  0.00000000000E+00 0.  1.
         12    1    6    6    0    0  0.28284955450E+02  0.55411738371E+02 -0.20521192946E+02  0.65510448129E+02  0.00000000000E+00 0. -1.
         -5    1    3    3    0  503  0.11892136365E+02 -0.92120548841E+02 -0.52067930796E+02  0.10658694969E+03  0.47000000000E+01 0.  1.
         13    1    4    4    0    0  0.80107231697E+01 -0.14223479361E+02 -0.18330023351E+02  0.24545240005E+02  0.00000000000E+00 0. -1.
        -14    1    4    4    0    0 -0.13836424369E+02 -0.23679828618E+02  0.80385524767E+02  0.84935349029E+02  0.00000000000E+00 0.  1.
</event>
<event>
12    1  0.8133495E-002  0.2021573E+03  0.7818608E-02  0.1148245E+00
         21   -1    0    0  503  502  0.00000000000E+00  0.00000000000E+00  0.74695737078E+02  0.74695737078E+02  0.00000000000E+00 0. -1.
         21   -1    0    0  501  503 -0.00000000000E+00 -0.00000000000E+00 -0.61509675613E+03  0.61509675613E+03  0.00000000000E+00 0.  1.
          6    2    1    2  501    0 -0.87811160859E+02 -0.56027562671E+02 -0.38733270936E+03  0.43622300991E+03  0.17150509871E+03 0.  0.
         24    2    3    3    0    0 -0.22292758788E+02 -0.11023653449E+02 -0.69630515815E+02  0.10869471092E+03  0.79672099381E+02 0.  0.
         -6    2    1    2    0  502  0.87811160859E+02  0.56027562671E+02 -0.15306830969E+03  0.25356948330E+03  0.17325613316E+03 0.  0.
        -24    2    5    5    0    0  0.12670294942E+03  0.25955489206E+02 -0.10854753247E+03  0.18707820248E+03  0.80550370744E+02 0.  0.
          5    1    3    3  501    0 -0.65518402072E+02 -0.45003909221E+02 -0.31770219355E+03  0.32752829899E+03  0.47000000000E+01 0. -1.
        -11    1    4    4    0    0 -0.32828395526E+02 -0.57346910492E+01 -0.83846610324E+02  0.90226627428E+02  0.00000000000E+00 0.  1.
         12    1    4    4    0    0  0.10535636738E+02 -0.52889624000E+01  0.14216094510E+02  0.18468083492E+02  0.00000000000E+00 0. -1.
         -5    1    5    5    0  502 -0.38891788562E+02  0.30072073465E+02 -0.44520777221E+02  0.66491280815E+02  0.47000000000E+01 0.  1.
         11    1    6    6    0    0  0.31678560893E+02  0.43116967408E+02 -0.23629914754E+02  0.58489118390E+02  0.00000000000E+00 0. -1.
        -12    1    6    6    0    0  0.95024388528E+02 -0.17161478203E+02 -0.84917617717E+02  0.12858908409E+03  0.00000000000E+00 0.  1.
</event>
<event>
12    1  0.8133495E-002  0.1783121E+03  0.7818608E-02  0.1169643E+00
         21   -1    0    0  503  502  0.00000000000E+00  0.00000000000E+00  0.14793535582E+03  0.14793535582E+03  0.00000000000E+00 0.  1.
         21   -1    0    0  501  503 -0.00000000000E+00 -0.00000000000E+00 -0.23704557453E+03  0.23704557453E+03  0.00000000000E+00 0.  1.
          6    2    1    2  501    0  0.33734715906E+02 -0.27159661045E+02  0.15600860520E+02  0.17819694934E+03  0.17214844658E+03 0.  0.
         24    2    3    3    0    0  0.31144394838E+02  0.43523354803E+02  0.39443781987E+02  0.10340809056E+03  0.79203317563E+02 0.  0.
         -6    2    1    2    0  502 -0.33734715906E+02  0.27159661045E+02 -0.10471107924E+03  0.20678398101E+03  0.17297261761E+03 0.  0.
        -24    2    5    5    0    0  0.40922504002E+02  0.47512071059E+02 -0.56886189495E+02  0.11569484249E+03  0.78849285309E+02 0.  0.
          5    1    3    3  501    0  0.25903210682E+01 -0.70683015848E+02 -0.23842921467E+02  0.74788858774E+02  0.47000000000E+01 0. -1.
        -11    1    4    4    0    0  0.78961752752E+01 -0.14242494518E+02  0.37754176745E+02  0.41116615811E+02  0.00000000000E+00 0.  1.
         12    1    4    4    0    0  0.23248219562E+02  0.57765849322E+02  0.16896052421E+01  0.62291474750E+02  0.00000000000E+00 0. -1.
         -5    1    5    5    0  502 -0.74657219908E+02 -0.20352410015E+02 -0.47824889742E+02  0.91089138521E+02  0.47000000000E+01 0.  1.
         11    1    6    6    0    0  0.61436874110E+02  0.31552220720E+02 -0.22597152830E+02  0.72668173562E+02  0.00000000000E+00 0. -1.
        -12    1    6    6    0    0 -0.20514370108E+02  0.15959850339E+02 -0.34289036665E+02  0.43026668929E+02  0.00000000000E+00 0.  1.
</event>
<event>
12    1  0.8133495E-002  0.1820544E+03  0.7818608E-02  0.1165886E+00
         21   -1    0    0  501  502  0.00000000000E+00  0.00000000000E+00  0.13221995133E+03  0.13221995133E+03  0.00000000000E+00 0.  1.
         21   -1    0    0  502  503 -0.00000000000E+00 -0.00000000000E+00 -0.38580825736E+03  0.38580825736E+03  0.00000000000E+00 0. -1.
         -6    2    1    2    0  503 -0.35371567336E+02 -0.45274122856E+02 -0.28021833115E+03  0.33403650137E+03  0.17250268739E+03 0.  0.
        -24    2    3    3    0    0  0.39531799736E+02  0.74156679827E+01 -0.11487301425E+03  0.14496537116E+03  0.78748930852E+02 0.  0.
          6    2    1    2  501    0  0.35371567336E+02  0.45274122856E+02  0.26630025130E+02  0.18399170732E+03  0.17275096569E+03 0.  0.
         24    2    5    5    0    0  0.22866030385E+02 -0.11663140403E+02  0.78534716165E+02  0.10579690344E+03  0.66078732925E+02 0.  0.
          5    1    5    5  501    0  0.12505536951E+02  0.56937263259E+02 -0.51904691035E+02  0.78194803877E+02  0.47000000000E+01 0. -1.
        -13    1    6    6    0    0  0.24861096021E+02 -0.19943024230E+02  0.55917427445E+01  0.32358397639E+02  0.00000000000E+00 0.  1.
         14    1    6    6    0    0 -0.19950656364E+01  0.82798838274E+01  0.72942973420E+02  0.73438505802E+02  0.00000000000E+00 0. -1.
         -5    1    3    3    0  503 -0.74903367072E+02 -0.52689790839E+02 -0.16534531690E+03  0.18907113021E+03  0.47000000000E+01 0.  1.
         11    1    4    4    0    0 -0.59617371799E+01  0.13620239747E+02 -0.92866812663E+02  0.94049445161E+02  0.00000000000E+00 0. -1.
        -12    1    4    4    0    0  0.45493536916E+02 -0.62045717639E+01 -0.22006201587E+02  0.50915925998E+02  0.00000000000E+00 0.  1.
</event>
<event>
12    1  0.8133495E-002  0.2609060E+03  0.7818608E-02  0.1106936E+00
         21   -1    0    0  503  502  0.00000000000E+00  0.00000000000E+00  0.43949233212E+02  0.43949233212E+02  0.00000000000E+00 0.  1.
         21   -1    0    0  501  503 -0.00000000000E+00 -0.00000000000E+00 -0.25266566621E+04  0.25266566621E+04  0.00000000000E+00 0. -1.
          6    2    1    2  501    0 -0.17808111592E+03 -0.82172205941E+02 -0.20430607907E+04  0.20593709930E+04  0.16866041909E+03 0.  0.
         24    2    3    3    0    0 -0.82037380188E+02 -0.83989132827E+02 -0.15842329846E+04  0.15905717331E+04  0.79624007220E+02 0.  0.
         -6    2    1    2    0  502  0.17808111592E+03  0.82172205941E+02 -0.43964663821E+03  0.51123490235E+03  0.17206627681E+03 0.  0.
        -24    2    5    5    0    0  0.44855986513E+02  0.39253987043E+02 -0.28790393373E+03  0.30474314227E+03  0.80167154600E+02 0.  0.
          5    1    3    3  501    0 -0.96043735734E+02  0.18169268857E+01 -0.45882780605E+03  0.46879925982E+03  0.47000000000E+01 0. -1.
        -11    1    4    4    0    0 -0.22746680985E+02 -0.64810447337E+02 -0.52012210031E+03  0.52463778439E+03  0.00000000000E+00 0.  1.
         12    1    4    4    0    0 -0.59290699203E+02 -0.19178685490E+02 -0.10641108843E+04  0.10659339487E+04  0.00000000000E+00 0. -1.
         -5    1    5    5    0  502  0.13322512941E+03  0.42918218899E+02 -0.15174270448E+03  0.20649176008E+03  0.47000000000E+01 0.  1.
         13    1    6    6    0    0  0.24789156856E+02 -0.21431438875E+02 -0.13692990024E+03  0.14079632967E+03  0.00000000000E+00 0. -1.
        -14    1    6    6    0    0  0.20066829656E+02  0.60685425917E+02 -0.15097403349E+03  0.16394681259E+03  0.00000000000E+00 0.  1.
</event>
<event>
12    1  0.8133495E-002  0.2395524E+03  0.7818608E-02  0.1120102E+00
         21   -1    0    0  501  502  0.00000000000E+00  0.00000000000E+00  0.93279287263E+02  0.93279287263E+02  0.00000000000E+00 0.  1.
         21   -1    0    0  502  503 -0.00000000000E+00 -0.00000000000E+00 -0.10257615421E+04  0.10257615421E+04  0.00000000000E+00 0. -1.
         -6    2    1    2    0  503  0.15497028713E+03  0.61594843483E+02 -0.82025703148E+03  0.85450376612E+03  0.17188767843E+03 0.  0.
        -24    2    3    3    0    0  0.45489608481E+02  0.45112804260E+02 -0.58722773455E+03  0.59646807123E+03  0.82663644848E+02 0.  0.
          6    2    1    2  501    0 -0.15497028713E+03 -0.61594843483E+02 -0.11222522334E+03  0.26453706321E+03  0.17197570300E+03 0.  0.
         24    2    5    5    0    0 -0.45143426011E+02 -0.76701235455E+02 -0.19386562707E+02  0.11986070229E+03  0.77908540659E+02 0.  0.
          5    1    5    5  501    0 -0.10982686112E+03  0.15106391972E+02 -0.92838660630E+02  0.14467636092E+03  0.47000000000E+01 0. -1.
        -11    1    6    6    0    0 -0.57130738432E+02 -0.70218913365E+02 -0.36826082605E+02  0.97728079015E+02  0.00000000000E+00 0.  1.
         12    1    6    6    0    0  0.11987312421E+02 -0.64823220899E+01  0.17439519898E+02  0.22132623275E+02  0.00000000000E+00 0. -1.
         -5    1    3    3    0  503  0.10948067865E+03  0.16482039223E+02 -0.23302929692E+03  0.25803569489E+03  0.47000000000E+01 0.  1.
         13    1    4    4    0    0  0.61546503897E+02  0.56722049430E+02 -0.50484225373E+03  0.51173339170E+03  0.00000000000E+00 0. -1.
        -14    1    4    4    0    0 -0.16056895416E+02 -0.11609245170E+02 -0.82385480824E+02  0.84734679527E+02  0.00000000000E+00 0.  1.
</event>
<event>
12    1  0.8133495E-002  0.2533429E+03  0.7818608E-02  0.1111355E+00
         21   -1    0    0  501  502  0.00000000000E+00  0.00000000000E+00  0.22226961057E+03  0.22226961057E+03  0.00000000000E+00 0.  1.
         21   -1    0    0  502  503 -0.00000000000E+00 -0.00000000000E+00 -0.48331886275E+03  0.48331886275E+03  0.00000000000E+00 0. -1.
         -6    2    1    2    0  503 -0.17834673141E+03  0.48209652689E+02 -0.35510930411E+03  0.43621697331E+03  0.17335196199E+03 0.  0.
        -24    2    3    3    0    0 -0.23620571574E+02  0.11146539280E+02 -0.15741097049E+03  0.18240487741E+03  0.88380704523E+02 0.  0.
          6    2    1    2  501    0  0.17834673141E+03 -0.48209652689E+02  0.94060051928E+02  0.26937150001E+03  0.17199414069E+03 0.  0.
         24    2    5    5    0    0  0.45117898599E+02 -0.32769635966E+02  0.75414002806E+02  0.13387950336E+03  0.95535207044E+02 0.  0.
          5    1    5    5  501    0  0.13322883281E+03 -0.15440016724E+02  0.18646049122E+02  0.13549199665E+03  0.47000000000E+01 0. -1.
        -13    1    6    6    0    0  0.52632223781E+02 -0.61405764754E+02  0.52204874489E+02  0.96260936239E+02  0.00000000000E+00 0.  1.
         14    1    6    6    0    0 -0.75143251815E+01  0.28636128788E+02  0.23209128317E+02  0.37618567120E+02  0.00000000000E+00 0. -1.
         -5    1    3    3    0  503 -0.15472615983E+03  0.37063113410E+02 -0.19769833362E+03  0.25381209590E+03  0.47000000000E+01 0.  1.
         13    1    4    4    0    0 -0.42073501535E+02 -0.26591155710E+02 -0.93546906352E+02  0.10596363896E+03  0.00000000000E+00 0. -1.
        -14    1    4    4    0    0  0.18452929961E+02  0.37737694990E+02 -0.63864064141E+02  0.76441238451E+02  0.00000000000E+00 0.  1.
</event>
<event>
12    1  0.8133495E-002  0.2474782E+03  0.7818608E-02  0.1114939E+00
         21   -1    0    0  501  502  0.00000000000E+00  0.00000000000E+00  0.32760380051E+03  0.32760380051E+03  0.00000000000E+00 0. -1.
         21   -1    0    0  502  503 -0.00000000000E+00 -0.00000000000E+00 -0.24256065073E+03  0.24256065073E+03  0.00000000000E+00 0. -1.
         -6    2    1    2    0  503 -0.34491688689E+01  0.17859927455E+03 -0.94141821781E+02  0.26477944065E+03  0.17127717871E+03 0.  0.
        -24    2    3    3    0    0 -0.34131048847E+02  0.35948949341E+02 -0.69039990519E+02  0.11664880582E+03  0.79894731710E+02 0.  0.
          6    2    1    2  501    0  0.34491688689E+01 -0.17859927455E+03  0.17918497156E+03  0.30538501059E+03  0.17100629527E+03 0.  0.
         24    2    5    5    0    0 -0.43969284251E+02 -0.16406343704E+03  0.10188376447E+03  0.21342106719E+03  0.79486735526E+02 0.  0.
          5    1    5    5  501    0  0.47418453120E+02 -0.14535837506E+02  0.77301207088E+02  0.91963943399E+02  0.47000000000E+01 0. -1.
        -11    1    6    6    0    0 -0.86470130003E+01 -0.47701033015E+02 -0.84646890503E+01  0.49211892315E+02  0.00000000000E+00 0.  1.
         12    1    6    6    0    0 -0.35322271251E+02 -0.11636240403E+03  0.11034845352E+03  0.16420917487E+03  0.00000000000E+00 0. -1.
         -5    1    3    3    0  503  0.30681879978E+02  0.14265032521E+03 -0.25101831262E+02  0.14813063482E+03  0.47000000000E+01 0.  1.
         11    1    4    4    0    0  0.79693361218E+01  0.38253604790E+02 -0.41923804675E+01  0.39299168587E+02  0.00000000000E+00 0. -1.
        -12    1    4    4    0    0 -0.42100384969E+02 -0.23046554487E+01 -0.64847610051E+02  0.77349637236E+02  0.00000000000E+00 0.  1.
</event>
<event>
12    1  0.8133495E-002  0.1817639E+03  0.7818608E-02  0.1166224E+00
         21   -1    0    0  503  502  0.00000000000E+00  0.00000000000E+00  0.12598675891E+03  0.12598675891E+03  0.00000000000E+00 0.  1.
         21   -1    0    0  501  503 -0.00000000000E+00 -0.00000000000E+00 -0.34440327918E+03  0.34440327918E+03  0.00000000000E+00 0.  1.
          6    2    1    2  501    0 -0.54474865659E+02 -0.19743972891E+02 -0.22447007746E+03  0.28852538262E+03  0.17176363203E+03 0.  0.
         24    2    3    3    0    0 -0.84700654571E+02 -0.57063074519E+02 -0.13820998144E+03  0.18968607958E+03  0.80302020253E+02 0.  0.
         -6    2    1    2    0  502  0.54474865659E+02  0.19743972891E+02  0.60535571803E+01  0.18186465547E+03  0.17228108399E+03 0.  0.
        -24    2    5    5    0    0  0.12705002190E+02  0.53776751191E+02  0.51953831828E+02  0.11092893312E+03  0.80948573254E+02 0.  0.
          5    1    3    3  501    0  0.30225788911E+02  0.37319101628E+02 -0.86260096013E+02  0.98839303042E+02  0.47000000000E+01 0. -1.
        -13    1    4    4    0    0 -0.31109648551E+02  0.12335186747E+02 -0.11082501084E+02  0.35253211135E+02  0.00000000000E+00 0.  1.
         14    1    4    4    0    0 -0.53591006019E+02 -0.69398261266E+02 -0.12712748036E+03  0.15443286844E+03  0.00000000000E+00 0. -1.
         -5    1    5    5    0  502  0.41769863469E+02 -0.34032778299E+02 -0.45900274648E+02  0.70935722353E+02  0.47000000000E+01 0.  1.
         11    1    6    6    0    0 -0.34577321539E+02  0.21550151867E+02  0.23302411024E+02  0.46936154187E+02  0.00000000000E+00 0. -1.
        -12    1    6    6    0    0  0.47282323729E+02  0.32226599323E+02  0.28651420804E+02  0.63992778931E+02  0.00000000000E+00 0.  1.
</event>
<event>
12    1  0.8133495E-002  0.2053805E+03  0.7818608E-02  0.1145310E+00
         21   -1    0    0  501  502  0.00000000000E+00  0.00000000000E+00  0.11933361494E+03  0.11933361494E+03  0.00000000000E+00 0. -1.
         21   -1    0    0  502  503 -0.00000000000E+00 -0.00000000000E+00 -0.78139968318E+03  0.78139968318E+03  0.00000000000E+00 0. -1.
         -6    2    1    2    0  503  0.11053552171E+03 -0.10304252405E+02 -0.66436553677E+03  0.69533997005E+03  0.17260309480E+03 0.  0.
        -24    2    3    3    0    0  0.13235206098E+03  0.15583913994E+02 -0.39967183739E+03  0.42844860070E+03  0.77914693216E+02 0.  0.
          6    2    1    2  501    0 -0.11053552171E+03  0.10304252405E+02  0.22994685273E+01  0.20539332807E+03  0.17279135535E+03 0.  0.
         24    2    5    5    0    0 -0.11333932892E+03 -0.13601605976E+02 -0.59920520645E+02  0.13851456872E+03  0.50645925667E+02 0.  0.
          5    1    5    5  501    0  0.28038072170E+01  0.23905858381E+02  0.62219989173E+02  0.66878759352E+02  0.47000000000E+01 0. -1.
        -11    1    6    6    0    0 -0.23147130364E+01 -0.37345707170E+01 -0.19438155639E+02  0.19928542584E+02  0.00000000000E+00 0.  1.
         12    1    6    6    0    0 -0.11102461589E+03 -0.98670352593E+01 -0.40482365006E+02  0.11858602613E+03  0.00000000000E+00 0. -1.
         -5    1    3    3    0  503 -0.21816539275E+02 -0.25888166398E+02 -0.26469369938E+03  0.26689136936E+03  0.47000000000E+01 0.  1.
         13    1    4    4    0    0  0.54844533601E+01  0.18623925247E+02 -0.11696162293E+03  0.11856201356E+03  0.00000000000E+00 0. -1.
        -14    1    4    4    0    0  0.12686760762E+03 -0.30400112533E+01 -0.28271021445E+03  0.30988658714E+03  0.00000000000E+00 0.  1.
</event>
<event>
12    1  0.8133495E-002  0.2038141E+03  0.7818608E-02  0.1147928E+00
         21   -1    0    0  501  502  0.00000000000E+00  0.00000000000E+00  0.94936452662E+03  0.94936452662E+03  0.00000000000E+00 0.  1.
         21   -1    0    0  502  503 -0.00000000000E+00 -0.00000000000E+00 -0.46916014922E+02  0.46916014922E+02  0.00000000000E+00 0.  1.
         -6    2    1    2    0  503 -0.85653658785E+02 -0.70471899168E+02  0.28945665979E+03  0.35029353926E+03  0.16314891330E+03 0.  0.
        -24    2    3    3    0    0 -0.78056491821E+02 -0.54176288742E+02  0.10263489263E+03  0.16254976026E+03  0.82828842796E+02 0.  0.
          6    2    1    2  501    0  0.85653658785E+02  0.70471899168E+02  0.61299185190E+03  0.64598700228E+03  0.17098935284E+03 0.  0.
         24    2    5    5    0    0  0.12615241914E+03  0.46288424017E+02  0.46087029497E+03  0.48665072849E+03  0.79815109527E+02 0.  0.
          5    1    5    5  501    0 -0.40498760353E+02  0.24183475151E+02  0.15212155694E+03  0.15933627379E+03  0.47000000000E+01 0. -1.
        -13    1    6    6    0    0  0.31783410439E+01 -0.22203378891E+01  0.13406010764E+03  0.13411615940E+03  0.00000000000E+00 0.  1.
         14    1    6    6    0    0  0.12297407809E+03  0.48508761906E+02  0.32681018733E+03  0.35253456909E+03  0.00000000000E+00 0. -1.
         -5    1    3    3    0  503 -0.75971669638E+01 -0.16295610426E+02  0.18682176716E+03  0.18774377899E+03  0.47000000000E+01 0.  1.
         11    1    4    4    0    0 -0.27130557994E+02  0.15900334344E+02  0.46926811699E+01  0.31794796207E+02  0.00000000000E+00 0. -1.
        -12    1    4    4    0    0 -0.50925933827E+02 -0.70076623086E+02  0.97942211460E+02  0.13075496406E+03  0.00000000000E+00 0.  1.
</event>
<event>
12    1  0.8133495E-002  0.2117454E+03  0.7818608E-02  0.1140343E+00
         21   -1    0    0  503  502  0.00000000000E+00  0.00000000000E+00  0.15076014394E+03  0.15076014394E+03  0.00000000000E+00 0.  1.
         21   -1    0    0  501  503 -0.00000000000E+00 -0.00000000000E+00 -0.34605683223E+03  0.34605683223E+03  0.00000000000E+00 0. -1.
          6    2    1    2  501    0  0.12508555845E+03 -0.29950363290E+00 -0.19167625879E+03  0.28504065203E+03  0.16988789977E+03 0.  0.
         24    2    3    3    0    0  0.47222957960E+02  0.12293189381E+02 -0.16996000208E+03  0.20309648641E+03  0.99903204264E+02 0.  0.
         -6    2    1    2    0  502 -0.12508555845E+03  0.29950363290E+00 -0.36204295033E+01  0.21177632413E+03  0.17084969218E+03 0.  0.
        -24    2    5    5    0    0 -0.66472866599E+02 -0.62208594732E+02  0.20424641766E+02  0.12265300811E+03  0.79611827976E+02 0.  0.
          5    1    3    3  501    0  0.77862600494E+02 -0.12592693014E+02 -0.21716256707E+02  0.81944165615E+02  0.47000000000E+01 0. -1.
        -11    1    4    4    0    0  0.24182753571E+02 -0.28648401836E+02 -0.13680729071E+02  0.39908631221E+02  0.00000000000E+00 0.  1.
         12    1    4    4    0    0  0.23040204389E+02  0.40941591217E+02 -0.15627927301E+03  0.16318785519E+03  0.00000000000E+00 0. -1.
         -5    1    5    5    0  502 -0.58612691855E+02  0.62508098365E+02 -0.24045071269E+02  0.89123316029E+02  0.47000000000E+01 0.  1.
         11    1    6    6    0    0 -0.24305031598E+02 -0.17776182228E+02 -0.30598555190E+02  0.42930161836E+02  0.00000000000E+00 0. -1.
        -12    1    6    6    0    0 -0.42167835001E+02 -0.44432412504E+02  0.51023196956E+02  0.79722846269E+02  0.00000000000E+00 0.  1.
</event>
<event>
12    1  0.8133495E-002  0.2014746E+03  0.7818608E-02  0.1148716E+00
         21   -1    0    0  503  502  0.00000000000E+00  0.00000000000E+00  0.19127265802E+04  0.19127265802E+04  0.00000000000E+00 0.  1.
         21   -1    0    0  501  503 -0.00000000000E+00 -0.00000000000E+00 -0.39288169346E+02  0.39288169346E+02  0.00000000000E+00 0. -1.
          6    2    1    2  501    0 -0.84686237625E+02 -0.62205401604E+02  0.27162107315E+03  0.33757651814E+03  0.17070040244E+03 0.  0.
         24    2    3    3    0    0 -0.98346323946E+02 -0.66134443154E+02  0.12431265830E+03  0.18950932255E+03  0.80089839021E+02 0.  0.
         -6    2    1    2    0  502  0.84686237625E+02  0.62205401604E+02  0.16018173377E+04  0.16144382314E+04  0.17190331238E+03 0.  0.
        -24    2    5    5    0    0 -0.19292614379E+02  0.45374114621E+02  0.61043524901E+03  0.61746509752E+03  0.78746035967E+02 0.  0.
          5    1    3    3  501    0  0.13660086321E+02  0.39290415496E+01  0.14730841485E+03  0.14806719559E+03  0.47000000000E+01 0. -1.
        -11    1    4    4    0    0 -0.34992622068E+02 -0.64730500503E+02  0.39129702797E+02  0.83340595964E+02  0.00000000000E+00 0.  1.
         12    1    4    4    0    0 -0.63353701878E+02 -0.14039426505E+01  0.85182955500E+02  0.10616872658E+03  0.00000000000E+00 0. -1.
         -5    1    5    5    0  502  0.10397885200E+03  0.16831286983E+02  0.99138208869E+03  0.99697313387E+03  0.47000000000E+01 0.  1.
         11    1    6    6    0    0  0.19523598685E+02  0.22902851378E+01  0.45545531663E+02  0.49606569788E+02  0.00000000000E+00 0. -1.
        -12    1    6    6    0    0 -0.38816213064E+02  0.43083829483E+02  0.56488971734E+03  0.56785852773E+03  0.00000000000E+00 0.  1.
</event>
<event>
12    1  0.8133495E-002  0.1774943E+03  0.7818608E-02  0.1170365E+00
         21   -1    0    0  501  502  0.00000000000E+00  0.00000000000E+00  0.43301947891E+03  0.43301947891E+03  0.00000000000E+00 0. -1.
         21   -1    0    0  502  503 -0.00000000000E+00 -0.00000000000E+00 -0.97359789212E+02  0.97359789212E+02  0.00000000000E+00 0. -1.
         -6    2    1    2    0  503 -0.37404979751E+02 -0.13033405272E+02  0.33838653216E+02  0.18023619959E+03  0.17254283824E+03 0.  0.
        -24    2    3    3    0    0 -0.10069264906E+01 -0.54070306083E+02 -0.21240843961E+02  0.10236010237E+03  0.84272208963E+02 0.  0.
          6    2    1    2  501    0  0.37404979751E+02  0.13033405272E+02  0.30182103648E+03  0.35014306853E+03  0.17301799969E+03 0.  0.
         24    2    5    5    0    0 -0.32344076662E+02  0.48851609610E+02  0.18388348166E+03  0.20844186363E+03  0.78754407061E+02 0.  0.
          5    1    5    5  501    0  0.69749056413E+02 -0.35818204337E+02  0.11793755482E+03  0.14170120490E+03  0.47000000000E+01 0. -1.
        -11    1    6    6    0    0  0.87578992009E+01 -0.16863705513E+02  0.53311346329E+02  0.56596687265E+02  0.00000000000E+00 0.  1.
         12    1    6    6    0    0 -0.41101975863E+02  0.65715315123E+02  0.13057213533E+03  0.15184517637E+03  0.00000000000E+00 0. -1.
         -5    1    3    3    0  503 -0.36398053260E+02  0.41036900811E+02  0.55079497176E+02  0.77876097222E+02  0.47000000000E+01 0.  1.
         13    1    4    4    0    0  0.30959816229E+02  0.50439617838E+01 -0.15281810909E+02  0.34892485094E+02  0.00000000000E+00 0. -1.
        -14    1    4    4    0    0 -0.31966742719E+02 -0.59114267867E+02 -0.59590330518E+01  0.67467617273E+02  0.00000000000E+00 0.  1.
</event>
<event>
12    1  0.8133495E-002  0.1730151E+03  0.7818608E-02  0.1174744E+00
         21   -1    0    0  503  502  0.00000000000E+00  0.00000000000E+00  0.14627004669E+03  0.14627004669E+03  0.00000000000E+00 0.  1.
         21   -1    0    0  501  503 -0.00000000000E+00 -0.00000000000E+00 -0.23699108873E+03  0.23699108873E+03  0.00000000000E+00 0.  1.
          6    2    1    2  501    0 -0.16445961522E+02 -0.15752016784E+02 -0.11617026831E+03  0.20838435675E+03  0.17149318709E+03 0.  0.
         24    2    3    3    0    0 -0.39350821609E+02  0.36638946479E+02 -0.12547143609E+03  0.15026338490E+03  0.62810062930E+02 0.  0.
         -6    2    1    2    0  502  0.16445961522E+02  0.15752016784E+02  0.25449226270E+02  0.17487677866E+03  0.17150985078E+03 0.  0.
        -24    2    5    5    0    0 -0.10782438916E+02  0.54988979706E+02  0.59926271540E+02  0.11578632512E+03  0.81702302205E+02 0.  0.
          5    1    3    3  501    0  0.22904860087E+02 -0.52390963263E+02  0.93011677867E+01  0.58120971855E+02  0.47000000000E+01 0. -1.
        -11    1    4    4    0    0  0.98370551598E+01  0.16449063816E+02 -0.69946078504E+01  0.20402546253E+02  0.00000000000E+00 0.  1.
         12    1    4    4    0    0 -0.49187876769E+02  0.20189882663E+02 -0.11847682824E+03  0.12986083864E+03  0.00000000000E+00 0. -1.
         -5    1    5    5    0  502  0.27228400438E+02 -0.39236962922E+02 -0.34477045270E+02  0.59090453546E+02  0.47000000000E+01 0.  1.
         13    1    6    6    0    0  0.34442806765E+02  0.11532925782E+02  0.23361237292E+02  0.43186371956E+02  0.00000000000E+00 0. -1.
        -14    1    6    6    0    0 -0.45225245681E+02  0.43456053923E+02  0.36565034248E+02  0.72599953161E+02  0.00000000000E+00 0.  1.
</event>
<event>
12    1  0.8133495E-002  0.2164015E+03  0.7818608E-02  0.1137023E+00
         21   -1    0    0  501  502  0.00000000000E+00  0.00000000000E+00  0.16944033980E+03  0.16944033980E+03  0.00000000000E+00 0.  1.
         21   -1    0    0  502  503 -0.00000000000E+00 -0.00000000000E+00 -0.53010254117E+03  0.53010254117E+03  0.00000000000E+00 0.  1.
         -6    2    1    2    0  503 -0.71028388077E+02  0.10898365626E+03 -0.42318434132E+03  0.47429048825E+03  0.17012939563E+03 0.  0.
        -24    2    3    3    0    0 -0.51995073264E+02  0.57263801085E+02 -0.11123379134E+03  0.15747438051E+03  0.80265768673E+02 0.  0.
          6    2    1    2  501    0  0.71028388077E+02 -0.10898365626E+03  0.62522139954E+02  0.22525239273E+03  0.17293684743E+03 0.  0.
         24    2    5    5    0    0  0.54408396899E+00 -0.77605417643E+02 -0.19299643522E+02  0.11269340715E+03  0.79400446466E+02 0.  0.
          5    1    5    5  501    0  0.70484304108E+02 -0.31378238620E+02  0.81821783476E+02  0.11255898558E+03  0.47000000000E+01 0. -1.
        -11    1    6    6    0    0  0.28485964892E+02 -0.76938275494E+02 -0.75999032914E+01  0.82393609958E+02  0.00000000000E+00 0.  1.
         12    1    6    6    0    0 -0.27941880923E+02 -0.66714214926E+00 -0.11699740231E+02  0.30299797188E+02  0.00000000000E+00 0. -1.
         -5    1    3    3    0  503 -0.19033314814E+02  0.51719855179E+02 -0.31195054998E+03  0.31681610774E+03  0.47000000000E+01 0.  1.
         11    1    4    4    0    0 -0.72538585802E+02  0.37984602785E+02 -0.93027008494E+02  0.12393022548E+03  0.00000000000E+00 0. -1.
        -12    1    4    4    0    0  0.20543512538E+02  0.19279198299E+02 -0.18206782850E+02  0.33544155023E+02  0.00000000000E+00 0.  1.
</event>
<event>
12    1  0.8133495E-002  0.2090392E+03  0.7818608E-02  0.1142415E+00
         21   -1    0    0  501  502  0.00000000000E+00  0.00000000000E+00  0.14165615873E+03  0.14165615873E+03  0.00000000000E+00 0.  1.
         21   -1    0    0  502  503 -0.00000000000E+00 -0.00000000000E+00 -0.30786292544E+03  0.30786292544E+03  0.00000000000E+00 0.  1.
         -6    2    1    2    0  503  0.27175399371E+02 -0.11584965740E+03 -0.81299623647E+02  0.22429226423E+03  0.17186548675E+03 0.  0.
        -24    2    3    3    0    0  0.53556800137E+02 -0.32513705508E+02 -0.91021082863E+02  0.13621584313E+03  0.79652033912E+02 0.  0.
          6    2    1    2  501    0 -0.27175399371E+02  0.11584965740E+03 -0.84907143063E+02  0.22522681995E+03  0.17134249920E+03 0.  0.
         24    2    5    5    0    0  0.61132052010E+01 -0.49190754173E+01 -0.15397148151E+02  0.81884755597E+02  0.80040442572E+02 0.  0.
          5    1    5    5  501    0 -0.33288604572E+02  0.12076873282E+03 -0.69509994912E+02  0.14334206436E+03  0.47000000000E+01 0. -1.
        -13    1    6    6    0    0  0.29194106865E+02  0.21544242988E+02  0.11046009654E+02  0.37927095998E+02  0.00000000000E+00 0.  1.
         14    1    6    6    0    0 -0.23080901664E+02 -0.26463318406E+02 -0.26443157806E+02  0.43957659599E+02  0.00000000000E+00 0. -1.
         -5    1    3    3    0  503 -0.26381400766E+02 -0.83335951894E+02  0.97214592155E+01  0.88076421100E+02  0.47000000000E+01 0.  1.
         13    1    4    4    0    0 -0.22762293409E+01  0.13989984389E+02 -0.51675574476E+02  0.53584194317E+02  0.00000000000E+00 0. -1.
        -14    1    4    4    0    0  0.55833029478E+02 -0.46503689897E+02 -0.39345508387E+02  0.82631648809E+02  0.00000000000E+00 0.  1.
</event>
<event>
12    1  0.8133495E-002  0.2035310E+03  0.7818608E-02  0.1146842E+00
         21   -1    0    0  503  502  0.00000000000E+00  0.00000000000E+00  0.17495466702E+04  0.17495466702E+04  0.00000000000E+00 0.  1.
         21   -1    0    0  501  503 -0.00000000000E+00 -0.00000000000E+00 -0.26711725806E+02  0.26711725806E+02  0.00000000000E+00 0. -1.
          6    2    1    2  501    0 -0.61448261266E+02  0.90456851281E+02  0.56119156978E+03  0.59695968326E+03  0.17165824969E+03 0.  0.
         24    2    3    3    0    0  0.55625837822E+01 -0.51245903858E+01  0.18411944116E+03  0.20220438497E+03  0.83243263525E+02 0.  0.
         -6    2    1    2    0  502  0.61448261266E+02 -0.90456851281E+02  0.11616433747E+04  0.11792987128E+04  0.17138201000E+03 0.  0.
        -24    2    5    5    0    0  0.10906025307E+03 -0.67998551784E+02  0.87190246620E+03  0.88477679338E+03  0.78090471216E+02 0.  0.
          5    1    3    3  501    0 -0.67010845048E+02  0.95581441667E+02  0.37707212863E+03  0.39475529830E+03  0.47000000000E+01 0. -1.
        -13    1    4    4    0    0  0.29544772753E+02  0.19147447555E+02  0.14952414679E+03  0.15361311408E+03  0.00000000000E+00 0.  1.
         14    1    4    4    0    0 -0.23982188971E+02 -0.24272037941E+02  0.34595294368E+02  0.48591270883E+02  0.00000000000E+00 0. -1.
         -5    1    5    5    0  502 -0.47611991806E+02 -0.22458299497E+02  0.28974090845E+03  0.29452191941E+03  0.47000000000E+01 0.  1.
         13    1    6    6    0    0 -0.30680025625E+01 -0.17535767082E+02  0.39302776941E+02  0.43146541486E+02  0.00000000000E+00 0. -1.
        -14    1    6    6    0    0  0.11212825563E+03 -0.50462784703E+02  0.83259968926E+03  0.84163025190E+03  0.00000000000E+00 0.  1.
</event>
<event>
12    1  0.8133495E-002  0.3321042E+03  0.7818608E-02  0.1070234E+00
         21   -1    0    0  501  502  0.00000000000E+00  0.00000000000E+00  0.11369836832E+03  0.11369836832E+03  0.00000000000E+00 0. -1.
         21   -1    0    0  502  503 -0.00000000000E+00 -0.00000000000E+00 -0.11976763140E+04  0.11976763140E+04  0.00000000000E+00 0.  1.
         -6    2    1    2    0  503 -0.25137208896E+03  0.13172883795E+03 -0.82839512041E+03  0.89248622997E+03  0.17248994554E+03 0.  0.
        -24    2    3    3    0    0 -0.53702275286E+02  0.14735197847E+02 -0.17535199537E+03  0.20020862653E+03  0.78956389421E+02 0.  0.
          6    2    1    2  501    0  0.25137208896E+03 -0.13172883795E+03 -0.25558282523E+03  0.41888845230E+03  0.17205970202E+03 0.  0.
         24    2    5    5    0    0  0.97918861698E+02 -0.12513861496E+03 -0.14391176713E+03  0.22893098544E+03  0.80318260362E+02 0.  0.
          5    1    5    5  501    0  0.15345322727E+03 -0.65902229945E+01 -0.11167105810E+03  0.18995746686E+03  0.47000000000E+01 0. -1.
        -11    1    6    6    0    0  0.61592030188E+02 -0.79237497609E+02 -0.13723240857E+03  0.17001439107E+03  0.00000000000E+00 0.  1.
         12    1    6    6    0    0  0.36326831510E+02 -0.45901117351E+02 -0.66793585619E+01  0.58916594372E+02  0.00000000000E+00 0. -1.
         -5    1    3    3    0  503 -0.19766981368E+03  0.11699364011E+03 -0.65304312503E+03  0.69227760344E+03  0.47000000000E+01 0.  1.
         13    1    4    4    0    0  0.11730636677E+02  0.27298824335E+02 -0.61286469503E+02  0.68109213701E+02  0.00000000000E+00 0. -1.
        -14    1    4    4    0    0 -0.65432911962E+02 -0.12563626487E+02 -0.11406552587E+03  0.13209941283E+03  0.00000000000E+00 0.  1.
</event>
<event>
12    1  0.8133495E-002  0.1750102E+03  0.7818608E-02  0.1172961E+00
         21   -1    0    0  501  502  0.00000000000E+00  0.00000000000E+00  0.11661877654E+04  0.11661877654E+04  0.00000000000E+00 0.  1.
         21   -1    0    0  502  503 -0.00000000000E+00 -0.00000000000E+00 -0.38291783080E+02  0.38291783080E+02  0.00000000000E+00 0.  1.
         -6    2    1    2    0  503  0.28387952158E+02  0.94752186630E+01  0.22337671005E+03  0.28318497353E+03  0.17146696196E+03 0.  0.
        -24    2    3    3    0    0  0.41945171628E+02 -0.17470526751E+02  0.23355218782E+03  0.25100576063E+03  0.79954053698E+02 0.  0.
          6    2    1    2  501    0 -0.28387952158E+02 -0.94752186630E+01  0.90451927225E+03  0.92129457493E+03  0.17243237610E+03 0.  0.
         24    2    5    5    0    0  0.17210717131E+02 -0.21955107514E+02  0.21055873929E+03  0.22570971485E+03  0.76365287640E+02 0.  0.
          5    1    5    5  501    0 -0.45598669289E+02  0.12479888851E+02  0.69396053296E+03  0.69558486008E+03  0.47000000000E+01 0. -1.
        -11    1    6    6    0    0 -0.17219535548E+02 -0.39129151023E+02  0.11564725616E+03  0.12329594771E+03  0.00000000000E+00 0.  1.
         12    1    6    6    0    0  0.34430252680E+02  0.17174043509E+02  0.94911483123E+02  0.10241376713E+03  0.00000000000E+00 0. -1.
         -5    1    3    3    0  503 -0.13557219470E+02  0.26945745414E+02 -0.10175477767E+02  0.32179212909E+02  0.47000000000E+01 0.  1.
         11    1    4    4    0    0 -0.18285967310E+02 -0.63435854405E+01  0.16362520799E+02  0.25344620013E+02  0.00000000000E+00 0. -1.
        -12    1    4    4    0    0  0.60231138938E+02 -0.11126941311E+02  0.21718966702E+03  0.22566114061E+03  0.00000000000E+00 0.  1.
</event>
<event>
12    1  0.8133495E-002  0.1965124E+03  0.7818608E-02  0.1157711E+00
         21   -1    0    0  501  502  0.00000000000E+00  0.00000000000E+00  0.28290343584E+03  0.28290343584E+03  0.00000000000E+00 0.  1.
         21   -1    0    0  502  503 -0.00000000000E+00 -0.00000000000E+00 -0.18837390453E+03  0.18837390453E+03  0.00000000000E+00 0.  1.
         -6    2    1    2    0  503  0.24043851067E+02  0.14267967514E+02 -0.94438789159E+02  0.19864907952E+03  0.17251402907E+03 0.  0.
        -24    2    3    3    0    0 -0.22818983925E+02  0.56066115651E+02 -0.95019994248E+02  0.13567576541E+03  0.75597610148E+02 0.  0.
          6    2    1    2  501    0 -0.24043851067E+02 -0.14267967514E+02  0.18896832047E+03  0.27262826086E+03  0.19451339492E+03 0.  0.
         24    2    5    5    0    0  0.79115355390E+00  0.30555731157E+02  0.20262404215E+03  0.21938814298E+03  0.78360552519E+02 0.  0.
          5    1    5    5  501    0 -0.24835004621E+02 -0.44823698671E+02 -0.13655721681E+02  0.53240117878E+02  0.47000000000E+01 0. -1.
        -11    1    6    6    0    0  0.16955635090E+01 -0.12766293086E+02  0.15286487848E+03  0.15340640224E+03  0.00000000000E+00 0.  1.
         12    1    6    6    0    0 -0.90440995508E+00  0.43322024243E+02  0.49759163671E+02  0.65981740740E+02  0.00000000000E+00 0. -1.
         -5    1    3    3    0  503  0.46862834992E+02 -0.41798148137E+02  0.58120508909E+00  0.62973314114E+02  0.47000000000E+01 0.  1.
         13    1    4    4    0    0 -0.47287734410E+02  0.19659652590E+02 -0.38178371094E+02  0.63876598101E+02  0.00000000000E+00 0. -1.
        -14    1    4    4    0    0  0.24468750485E+02  0.36406463061E+02 -0.56841623154E+02  0.71799167305E+02  0.00000000000E+00 0.  1.
</event>
<event>
12    1  0.8133495E-002  0.2288584E+03  0.7818608E-02  0.1128373E+00
         21   -1    0    0  501  502  0.00000000000E+00  0.00000000000E+00  0.15623964829E+03  0.15623964829E+03  0.00000000000E+00 0. -1.
         21   -1    0    0  502  503 -0.00000000000E+00 -0.00000000000E+00 -0.38304417631E+03  0.38304417631E+03  0.00000000000E+00 0.  1.
         -6    2    1    2    0  503 -0.14354305697E+03 -0.15303044162E+02 -0.21478211936E+03  0.31010983332E+03  0.17087409858E+03 0.  0.
        -24    2    3    3    0    0 -0.85784639900E+02 -0.71171782407E+02 -0.16719370470E+03  0.21659995221E+03  0.80854049711E+02 0.  0.
          6    2    1    2  501    0  0.14354305697E+03  0.15303044162E+02 -0.12022408674E+02  0.22917399128E+03  0.17758768990E+03 0.  0.
         24    2    5    5    0    0  0.84455618548E+02 -0.43385461510E+02  0.40314997755E+02  0.13070084677E+03  0.80264329114E+02 0.  0.
          5    1    5    5  501    0  0.59087438421E+02  0.58688505673E+02 -0.52337406428E+02  0.98473144506E+02  0.47000000000E+01 0. -1.
        -11    1    6    6    0    0  0.11893739682E+02  0.20936592231E+02 -0.34321280831E+01  0.24322447267E+02  0.00000000000E+00 0.  1.
         12    1    6    6    0    0  0.72561878865E+02 -0.64322053742E+02  0.43747125838E+02  0.10637839950E+03  0.00000000000E+00 0. -1.
         -5    1    3    3    0  503 -0.57758417069E+02  0.55868738245E+02 -0.47588414657E+02  0.93509881108E+02  0.47000000000E+01 0.  1.
         13    1    4    4    0    0 -0.41303001756E+01 -0.80625478669E+01  0.87684852323E+01  0.12607552931E+02  0.00000000000E+00 0. -1.
        -14    1    4    4    0    0 -0.81654339724E+02 -0.63109234540E+02 -0.17596218993E+03  0.20399239928E+03  0.00000000000E+00 0.  1.
</event>
<event>
12    1  0.8133495E-002  0.1964275E+03  0.7818608E-02  0.1153230E+00
         21   -1    0    0  501  502  0.00000000000E+00  0.00000000000E+00  0.92760516155E+03  0.92760516155E+03  0.00000000000E+00 0. -1.
         21   -1    0    0  502  503 -0.00000000000E+00 -0.00000000000E+00 -0.41738857462E+02  0.41738857462E+02  0.00000000000E+00 0. -1.
         -6    2    1    2    0  503  0.73125258855E+02 -0.59852099050E+02  0.49745270855E+03  0.53408677093E+03  0.16988203082E+03 0.  0.
        -24    2    3    3    0    0  0.96932456147E+02  0.36901374301E+01  0.33652129606E+03  0.35937155126E+03  0.80571775344E+02 0.  0.
          6    2    1    2  501    0 -0.73125258855E+02  0.59852099050E+02  0.38841359554E+03  0.43525724808E+03  0.17220387210E+03 0.  0.
         24    2    5    5    0    0 -0.78304875485E+01 -0.14583461485E+02  0.21193228943E+03  0.23284232462E+03  0.95006625821E+02 0.  0.
          5    1    5    5  501    0 -0.65294771307E+02  0.74435560535E+02  0.17648130611E+03  0.20241492346E+03  0.47000000000E+01 0. -1.
        -13    1    6    6    0    0  0.18190124060E+02  0.29704948881E+02  0.14115858577E+03  0.14539260964E+03  0.00000000000E+00 0.  1.
         14    1    6    6    0    0 -0.26020611608E+02 -0.44288410366E+02  0.70773703656E+02  0.87449714982E+02  0.00000000000E+00 0. -1.
         -5    1    3    3    0  503 -0.23807197292E+02 -0.63542236480E+02  0.16093141248E+03  0.17471521967E+03  0.47000000000E+01 0.  1.
         13    1    4    4    0    0  0.56125049458E+01  0.13962025541E+02  0.15678338557E+03  0.15750386776E+03  0.00000000000E+00 0. -1.
        -14    1    4    4    0    0  0.91319951201E+02 -0.10271888111E+02  0.17973791050E+03  0.20186768350E+03  0.00000000000E+00 0.  1.
</event>
<event>
12    1  0.8133495E-002  0.1737257E+03  0.7818608E-02  0.1174879E+00
         21   -1    0    0  503  502  0.00000000000E+00  0.00000000000E+00  0.58944585529E+02  0.58944585529E+02  0.00000000000E+00 0.  1.
         21   -1    0    0  501  503 -0.00000000000E+00 -0.00000000000E+00 -0.64533953009E+03  0.64533953009E+03  0.00000000000E+00 0.  1.
          6    2    1    2  501    0 -0.24609558630E+02  0.19251505414E+01 -0.45683676949E+03  0.48756782727E+03  0.16856220114E+03 0.  0.
         24    2    3    3    0    0 -0.30071003810E+02 -0.32510230464E+02 -0.43771958303E+03  0.44752810116E+03  0.81986508712E+02 0.  0.
         -6    2    1    2    0  502  0.24609558630E+02 -0.19251505414E+01 -0.12955817507E+03  0.21671628835E+03  0.17196305512E+03 0.  0.
        -24    2    5    5    0    0  0.63993420612E+02 -0.47203736824E+02 -0.83529980913E+02  0.14094080671E+03  0.81016681199E+02 0.  0.
          5    1    3    3  501    0  0.54614451804E+01  0.34435381006E+02 -0.19117186459E+02  0.40039726105E+02  0.47000000000E+01 0. -1.
        -13    1    4    4    0    0  0.23018938425E+02 -0.32610352277E+02 -0.17436205369E+03  0.17887267083E+03  0.00000000000E+00 0.  1.
         14    1    4    4    0    0 -0.53089942235E+02  0.10012181242E+00 -0.26335752933E+03  0.26865543033E+03  0.00000000000E+00 0. -1.
         -5    1    5    5    0  502 -0.39383861982E+02  0.45278586282E+02 -0.46028194161E+02  0.75775481642E+02  0.47000000000E+01 0.  1.
         11    1    6    6    0    0  0.30634872094E+02  0.98662529557E+01 -0.64609816503E+02  0.72182177331E+02  0.00000000000E+00 0. -1.
        -12    1    6    6    0    0  0.33358548518E+02 -0.57069989779E+02 -0.18920164410E+02  0.68758629378E+02  0.00000000000E+00 0.  1.
</event>
<event>
12    1  0.8133495E-002  0.1863347E+03  0.7818608E-02  0.1162270E+00
         21   -1    0    0  501  502  0.00000000000E+00  0.00000000000E+00  0.54540948739E+03  0.54540948739E+03  0.00000000000E+00 0. -1.
         21   -1    0    0  502  503 -0.00000000000E+00 -0.00000000000E+00 -0.19076361855E+03  0.19076361855E+03  0.00000000000E+00 0.  1.
         -6    2    1    2    0  503 -0.30719771164E+02  0.58262952852E+02 -0.12361629779E+03  0.22361037447E+03  0.17430529101E+03 0.  0.
        -24    2    3    3    0    0  0.82956934630E+01 -0.32471386089E+02 -0.39898518846E+02  0.94050800314E+02  0.78297201668E+02 0.  0.
          6    2    1    2  501    0  0.30719771164E+02 -0.58262952852E+02  0.47826216663E+03  0.51256273147E+03  0.17218471955E+03 0.  0.
         24    2    5    5    0    0 -0.28640852066E+02 -0.71553181524E+02  0.39209834218E+03  0.40698523191E+03  0.77173265210E+02 0.  0.
          5    1    5    5  501    0  0.59360623230E+02  0.13290228671E+02  0.86163824453E+02  0.10557749956E+03  0.47000000000E+01 0. -1.
        -13    1    6    6    0    0 -0.41343776168E+02 -0.62172565293E+02  0.18810179795E+03  0.20237841312E+03  0.00000000000E+00 0.  1.
         14    1    6    6    0    0  0.12702924102E+02 -0.93806162306E+01  0.20399654423E+03  0.20460681880E+03  0.00000000000E+00 0. -1.
         -5    1    3    3    0  503 -0.39015464627E+02  0.90734338941E+02 -0.83717778944E+02  0.12955957415E+03  0.47000000000E+01 0.  1.
         13    1    4    4    0    0  0.35517748090E+02 -0.21509084518E+02 -0.48135553985E+02  0.63570297338E+02  0.00000000000E+00 0. -1.
        -14    1    4    4    0    0 -0.27222054627E+02 -0.10962301571E+02  0.82370351385E+01  0.30480502977E+02  0.00000000000E+00 0.  1.
</event>
<event>
12    1  0.8133495E-002  0.1950359E+03  0.7818608E-02  0.1154594E+00
         21   -1    0    0  503  502  0.00000000000E+00  0.00000000000E+00  0.22714023748E+03  0.22714023748E+03  0.00000000000E+00 0. -1.
         21   -1    0    0  501  503 -0.00000000000E+00 -0.00000000000E+00 -0.16798189585E+03  0.16798189585E+03  0.00000000000E+00 0. -1.
          6    2    1    2  501    0 -0.76164742928E+02 -0.39871798047E+02  0.55485075483E+02  0.20277473325E+03  0.17506618891E+03 0.  0.
         24    2    3    3    0    0  0.24392320871E+02 -0.21577301749E+02 -0.27132985981E+01  0.85065122685E+02  0.78537556875E+02 0.  0.
         -6    2    1    2    0  502  0.76164742928E+02  0.39871798047E+02  0.36732661433E+01  0.19234740008E+03  0.17202674527E+03 0.  0.
        -24    2    5    5    0    0  0.62252504608E+02  0.59884556203E+02 -0.55256225493E+02  0.12840339450E+03  0.77282901491E+02 0.  0.
          5    1    3    3  501    0 -0.10055706380E+03 -0.18294496298E+02  0.58198374081E+02  0.11770961057E+03  0.47000000000E+01 0. -1.
        -11    1    4    4    0    0  0.12439812816E+02 -0.35430047092E+02  0.29678688659E+02  0.47862947468E+02  0.00000000000E+00 0.  1.
         12    1    4    4    0    0  0.11952508056E+02  0.13852745343E+02 -0.32391987257E+02  0.37202175216E+02  0.00000000000E+00 0. -1.
         -5    1    5    5    0  502  0.13912238321E+02 -0.20012758156E+02  0.58929491636E+02  0.63944005572E+02  0.47000000000E+01 0.  1.
         13    1    6    6    0    0  0.43653805611E+02 -0.75313333281E+01 -0.32204834096E+02  0.54767938296E+02  0.00000000000E+00 0. -1.
        -14    1    6    6    0    0  0.18598698997E+02  0.67415889532E+02 -0.23051391397E+02  0.73635456209E+02  0.00000000000E+00 0.  1.
</event>
<event>
12    1  0.8133495E-002  0.2226986E+03  0.7818608E-02  0.1132239E+00
         21   -1    0    0  501  502  0.00000000000E+00  0.00000000000E+00  0.28856050631E+03  0.28856050631E+03  0.00000000000E+00 0. -1.
         21   -1    0    0  502  503 -0.00000000000E+00 -0.00000000000E+00 -0.17448340380E+03  0.17448340380E+03  0.00000000000E+00 0. -1.
         -6    2    1    2    0  503  0.11697472224E+03 -0.73587558624E+02  0.92229060685E+02  0.23927617598E+03  0.17218790414E+03 0.  0.
        -24    2    3    3    0    0 -0.13550927963E+02 -0.65273462944E+01 -0.37124093123E+01  0.63888396753E+02  0.61981540465E+02 0.  0.
          6    2    1    2  501    0 -0.11697472224E+03  0.73587558624E+02  0.21848041819E+02  0.22376773413E+03  0.17463232084E+03 0.  0.
         24    2    5    5    0    0 -0.11710235695E+02 -0.13088012827E+01  0.47953098434E+02  0.91882781105E+02  0.77486148654E+02 0.  0.
          5    1    5    5  501    0 -0.10526448654E+03  0.74896359907E+02 -0.26105056615E+02  0.13188495303E+03  0.47000000000E+01 0. -1.
        -11    1    6    6    0    0  0.31031939666E+02  0.45976329552E+01  0.34625390804E+02  0.46722983600E+02  0.00000000000E+00 0.  1.
         12    1    6    6    0    0 -0.42742175361E+02 -0.59064342378E+01  0.13327707630E+02  0.45159797504E+02  0.00000000000E+00 0. -1.
         -5    1    3    3    0  503  0.13052565020E+03 -0.67060212330E+02  0.95941469997E+02  0.17538777923E+03  0.47000000000E+01 0.  1.
         11    1    4    4    0    0  0.13355548181E+02  0.93613989596E+01 -0.22225983184E+02  0.27568111763E+02  0.00000000000E+00 0. -1.
        -12    1    4    4    0    0 -0.26906476144E+02 -0.15888745254E+02  0.18513573872E+02  0.36320284990E+02  0.00000000000E+00 0.  1.
</event>
<event>
12    1  0.8133495E-002  0.1805004E+03  0.7818608E-02  0.1167988E+00
         21   -1    0    0  503  502  0.00000000000E+00  0.00000000000E+00  0.99200695151E+03  0.99200695151E+03  0.00000000000E+00 0. -1.
         21   -1    0    0  501  503 -0.00000000000E+00 -0.00000000000E+00 -0.55465648030E+02  0.55465648030E+02  0.00000000000E+00 0. -1.
          6    2    1    2  501    0  0.28199938201E+02  0.40446607719E+02  0.13222660703E+03  0.22375049969E+03  0.17363538209E+03 0.  0.
         24    2    3    3    0    0 -0.65968579100E+01  0.55660092483E+02  0.15220996247E+03  0.18058000476E+03  0.79370655874E+02 0.  0.
         -6    2    1    2    0  502 -0.28199938201E+02 -0.40446607719E+02  0.80431469645E+03  0.82372209985E+03  0.17077705426E+03 0.  0.
        -24    2    5    5    0    0  0.13357935205E+02 -0.92115923344E+00  0.18523359723E+03  0.20197229861E+03  0.79385394741E+02 0.  0.
          5    1    3    3  501    0  0.34796796111E+02 -0.15213484764E+02 -0.19983355440E+02  0.43170494934E+02  0.47000000000E+01 0. -1.
        -13    1    4    4    0    0 -0.37390727450E+02  0.47333267525E+02  0.70034866507E+02  0.92430445419E+02  0.00000000000E+00 0.  1.
         14    1    4    4    0    0  0.30793869540E+02  0.83268249584E+01  0.82175095960E+02  0.88149559336E+02  0.00000000000E+00 0. -1.
         -5    1    5    5    0  502 -0.41557873406E+02 -0.39525448485E+02  0.61908109922E+03  0.62174980123E+03  0.47000000000E+01 0.  1.
         13    1    6    6    0    0 -0.13091842414E+02  0.29974278907E+02  0.12560624258E+03  0.12979515364E+03  0.00000000000E+00 0. -1.
        -14    1    6    6    0    0  0.26449777619E+02 -0.30895438141E+02  0.59627354645E+02  0.72177144970E+02  0.00000000000E+00 0.  1.
</event>
<event>
12    1  0.8133495E-002  0.1794644E+03  0.7818608E-02  0.1169198E+00
         21   -1    0    0  501  502  0.00000000000E+00  0.00000000000E+00  0.47392696571E+03  0.47392696571E+03  0.00000000000E+00 0. -1.
         21   -1    0    0  502  503 -0.00000000000E+00 -0.00000000000E+00 -0.10710079030E+03  0.10710079030E+03  0.00000000000E+00 0. -1.
         -6    2    1    2    0  503 -0.37463278967E+02  0.37133546860E+02  0.36559034468E+01  0.17593501410E+03  0.16780156729E+03 0.  0.
        -24    2    3    3    0    0 -0.22760629960E+02 -0.34387332365E+02  0.36370795957E+02  0.95786662624E+02  0.78432869607E+02 0.  0.
          6    2    1    2  501    0  0.37463278967E+02 -0.37133546860E+02  0.36317027196E+03  0.40509274190E+03  0.17153741730E+03 0.  0.
         24    2    5    5    0    0  0.40172149222E+02 -0.93536813906E+00  0.83199743490E+02  0.12273971300E+03  0.80797050337E+02 0.  0.
          5    1    5    5  501    0 -0.27088702547E+01 -0.36198178721E+02  0.27997052847E+03  0.28235302890E+03  0.47000000000E+01 0. -1.
        -13    1    6    6    0    0 -0.21554991130E+02 -0.94987118165E+01  0.75678511069E+01  0.24740968840E+02  0.00000000000E+00 0.  1.
         14    1    6    6    0    0  0.61727140351E+02  0.85633436775E+01  0.75631892383E+02  0.97998744157E+02  0.00000000000E+00 0. -1.
         -5    1    3    3    0  503 -0.14702649007E+02  0.71520879225E+02 -0.32714892511E+02  0.80148351480E+02  0.47000000000E+01 0.  1.
         13    1    4    4    0    0 -0.64861855665E+01  0.18874601803E+02 -0.10897081877E+02  0.22739120252E+02  0.00000000000E+00 0. -1.
        -14    1    4    4    0    0 -0.16274444393E+02 -0.53261934168E+02  0.47267877834E+02  0.73047542372E+02  0.00000000000E+00 0.  1.
</event>
<event>
12    1  0.8133495E-002  0.1836709E+03  0.7818608E-02  0.1164591E+00
         21   -1    0    0  501  502  0.00000000000E+00  0.00000000000E+00  0.97860612865E+03  0.97860612865E+03  0.00000000000E+00 0. -1.
         21   -1    0    0  502  503 -0.00000000000E+00 -0.00000000000E+00 -0.35212772719E+02  0.35212772719E+02  0.00000000000E+00 0. -1.
         -6    2    1    2    0  503 -0.12085513071E+02 -0.69001732153E+02  0.38584626383E+03  0.42679780739E+03  0.16843910002E+03 0.  0.
        -24    2    3    3    0    0 -0.41954608065E+02 -0.10097648548E+03  0.25904757790E+03  0.29257953576E+03  0.80874578033E+02 0.  0.
          6    2    1    2  501    0  0.12085513071E+02  0.69001732153E+02  0.55754709210E+03  0.58702109398E+03  0.16978723804E+03 0.  0.
         24    2    5    5    0    0 -0.36962907341E+01 -0.25194112591E+02  0.30158880082E+03  0.31378372580E+03  0.82801062298E+02 0.  0.
          5    1    5    5  501    0  0.15781803805E+02  0.94195844744E+02  0.25595829128E+03  0.27323736818E+03  0.47000000000E+01 0. -1.
        -13    1    6    6    0    0 -0.91438505001E+01 -0.34031045612E+02  0.45813839576E+02  0.57798183052E+02  0.00000000000E+00 0.  1.
         14    1    6    6    0    0  0.54475597659E+01  0.88369330208E+01  0.25577496125E+03  0.25598554274E+03  0.00000000000E+00 0. -1.
         -5    1    3    3    0  503  0.29869094994E+02  0.31974753324E+02  0.12679868593E+03  0.13421827163E+03  0.47000000000E+01 0.  1.
         11    1    4    4    0    0  0.19626498335E+02 -0.56921995474E+02  0.10988036851E+03  0.12529568384E+03  0.00000000000E+00 0. -1.
        -12    1    4    4    0    0 -0.61581106400E+02 -0.44054490003E+02  0.14916720939E+03  0.16728385192E+03  0.00000000000E+00 0.  1.
</event>
<event>
12    1  0.8133495E-002  0.1844809E+03  0.7818608E-02  0.1163886E+00
         21   -1    0    0  503  502  0.00000000000E+00  0.00000000000E+00  0.36519024919E+03  0.36519024919E+03  0.00000000000E+00 0. -1.
         21   -1    0    0  501  503 -0.00000000000E+00 -0.00000000000E+00 -0.93250974853E+02  0.93250974853E+02  0.00000000000E+00 0.  1.
          6    2    1    2  501    0  0.49178421964E+02 -0.42481570103E+02  0.11408032151E+03  0.21563956871E+03  0.17106403144E+03 0.  0.
         24    2    3    3    0    0  0.14156128188E+02 -0.47984507880E+01 -0.84181634688E+01  0.82693913025E+02  0.80894973144E+02 0.  0.
         -6    2    1    2    0  502 -0.49178421964E+02  0.42481570103E+02  0.15785895282E+03  0.24280165533E+03  0.17265570903E+03 0.  0.
        -24    2    5    5    0    0 -0.27101372623E+02  0.61529811106E+02  0.17955023597E+03  0.20615696462E+03  0.75776017106E+02 0.  0.
          5    1    3    3  501    0  0.35022293776E+02 -0.37683119315E+02  0.12249848498E+03  0.13294565569E+03  0.47000000000E+01 0. -1.
        -11    1    4    4    0    0  0.47716508587E+02  0.23042954691E+01 -0.76558544719E+01  0.48381681213E+02  0.00000000000E+00 0.  1.
         12    1    4    4    0    0 -0.33560380399E+02 -0.71027462571E+01 -0.76230899691E+00  0.34312231812E+02  0.00000000000E+00 0. -1.
         -5    1    5    5    0  502 -0.22077049341E+02 -0.19048241002E+02 -0.21691283152E+02  0.36644690716E+02  0.47000000000E+01 0.  1.
         11    1    6    6    0    0  0.25711677454E+02  0.11574850542E+02  0.58828186392E+02  0.65236669418E+02  0.00000000000E+00 0. -1.
        -12    1    6    6    0    0 -0.52813050077E+02  0.49954960563E+02  0.12072204958E+03  0.14092029520E+03  0.00000000000E+00 0.  1.
</event>
<event>
12    1  0.8133495E-002  0.2869708E+03  0.7818608E-02  0.1091970E+00
         21   -1    0    0  503  502  0.00000000000E+00  0.00000000000E+00  0.12371468337E+04  0.12371468337E+04  0.00000000000E+00 0.  1.
         21   -1    0    0  501  503 -0.00000000000E+00 -0.00000000000E+00 -0.82474069306E+02  0.82474069306E+02  0.00000000000E+00 0.  1.
          6    2    1    2  501    0  0.21432657840E+03  0.82192622398E+02  0.28727508072E+03  0.40605324628E+03  0.17222298749E+03 0.  0.
         24    2    3    3    0    0  0.22590261875E+03  0.96199293791E+02  0.22474270363E+03  0.34076481132E+03  0.72973121870E+02 0.  0.
         -6    2    1    2    0  502 -0.21432657840E+03 -0.82192622398E+02  0.86739768371E+03  0.91356765677E+03  0.17185928083E+03 0.  0.
        -24    2    5    5    0    0 -0.12564916643E+03  0.13189675632E+02  0.47122460928E+03  0.49651051311E+03  0.92240862282E+02 0.  0.
          5    1    3    3  501    0 -0.11576040351E+02 -0.14006671394E+02  0.62532377097E+02  0.65288434957E+02  0.47000000000E+01 0. -1.
        -13    1    4    4    0    0  0.20210207048E+03  0.57710834025E+02  0.17479703745E+03  0.27336750274E+03  0.00000000000E+00 0.  1.
         14    1    4    4    0    0  0.23800548272E+02  0.38488459766E+02  0.49945666176E+02  0.67397308573E+02  0.00000000000E+00 0. -1.
         -5    1    5    5    0  502 -0.88677411963E+02 -0.95382298030E+02  0.39617307443E+03  0.41705714365E+03  0.47000000000E+01 0.  1.
         11    1    6    6    0    0 -0.57396392389E+01  0.90034089429E-01  0.19515411442E+03  0.19523852064E+03  0.00000000000E+00 0. -1.
        -12    1    6    6    0    0 -0.11990952720E+03  0.13099641543E+02  0.27607049485E+03  0.30127199247E+03  0.00000000000E+00 0.  1.
</event>
<event>
12    1  0.8133495E-002  0.2083764E+03  0.7818608E-02  0.1143293E+00
         21   -1    0    0  503  502  0.00000000000E+00  0.00000000000E+00  0.25006721213E+03  0.25006721213E+03  0.00000000000E+00 0. -1.
         21   -1    0    0  501  503 -0.00000000000E+00 -0.00000000000E+00 -0.17315705961E+03  0.17315705961E+03  0.00000000000E+00 0. -1.
          6    2    1    2  501    0 -0.11319021905E+03  0.22897445505E+02  0.19807727736E+02  0.20716545405E+03  0.17084747751E+03 0.  0.
         24    2    3    3    0    0 -0.32792670455E+01  0.47036414061E+02  0.16923622555E+02  0.94499952509E+02  0.80128984667E+02 0.  0.
         -6    2    1    2    0  502  0.11319021905E+03 -0.22897445505E+02  0.57102424785E+02  0.21605881768E+03  0.17344857187E+03 0.  0.
        -24    2    5    5    0    0  0.83445761901E+02  0.36325476500E+02  0.82232435346E+02  0.14502576444E+03  0.77379348064E+02 0.  0.
          5    1    3    3  501    0 -0.10991095201E+03 -0.24138968556E+02  0.28841051811E+01  0.11266550154E+03  0.47000000000E+01 0. -1.
        -11    1    4    4    0    0  0.32721873525E+02  0.46617491324E+02  0.95902117062E+01  0.57757109215E+02  0.00000000000E+00 0.  1.
         12    1    4    4    0    0 -0.36001140571E+02  0.41892273758E+00  0.73334108485E+01  0.36742843294E+02  0.00000000000E+00 0. -1.
         -5    1    5    5    0  502  0.29744457152E+02 -0.59222922005E+02 -0.25130010561E+02  0.71033053242E+02  0.47000000000E+01 0.  1.
         11    1    6    6    0    0  0.66354598519E+02 -0.12485842491E+02  0.50926954450E+02  0.84571766547E+02  0.00000000000E+00 0. -1.
        -12    1    6    6    0    0  0.17091163383E+02  0.48811318990E+02  0.31305480895E+02  0.60453997895E+02  0.00000000000E+00 0.  1.
</event>
<event>
12    1  0.8133495E-002  0.2939964E+03  0.7818608E-02  0.1088673E+00
         21   -1    0    0  501  502  0.00000000000E+00  0.00000000000E+00  0.10979668016E+03  0.10979668016E+03  0.00000000000E+00 0. -1.
         21   -1    0    0  502  503 -0.00000000000E+00 -0.00000000000E+00 -0.78276986456E+03  0.78276986456E+03  0.00000000000E+00 0. -1.
         -6    2    1    2    0  503  0.89069375745E+02  0.21672129126E+03 -0.36879946874E+03  0.47164277126E+03  0.17757360096E+03 0.  0.
        -24    2    3    3    0    0  0.99797714397E+02  0.23645793404E+03 -0.35338860044E+03  0.44399829296E+03  0.79868910468E+02 0.  0.
          6    2    1    2  501    0 -0.89069375745E+02 -0.21672129126E+03 -0.30417371566E+03  0.42092377346E+03  0.17249261428E+03 0.  0.
         24    2    5    5    0    0 -0.89793506233E+02 -0.19404399313E+03 -0.31984921905E+03  0.39294886288E+03  0.79933352736E+02 0.  0.
          5    1    5    5  501    0  0.72413048830E+00 -0.22677298125E+02  0.15675503390E+02  0.27974910576E+02  0.47000000000E+01 0. -1.
        -13    1    6    6    0    0 -0.26123632238E+02 -0.30410699890E+01 -0.46997754365E+02  0.53856115561E+02  0.00000000000E+00 0.  1.
         14    1    6    6    0    0 -0.63669873995E+02 -0.19100292314E+03 -0.27285146469E+03  0.33909274732E+03  0.00000000000E+00 0. -1.
         -5    1    3    3    0  503 -0.10728338652E+02 -0.19736642786E+02 -0.15410868300E+02  0.27644478299E+02  0.47000000000E+01 0.  1.
         13    1    4    4    0    0  0.22757765149E+02  0.60834241423E+02 -0.15505164467E+03  0.16810631552E+03  0.00000000000E+00 0. -1.
        -14    1    4    4    0    0  0.77039949248E+02  0.17562369262E+03 -0.19833695577E+03  0.27589197744E+03  0.00000000000E+00 0.  1.
</event>
<event>
12    1  0.8133495E-002  0.2423175E+03  0.7818608E-02  0.1118411E+00
         21   -1    0    0  501  502  0.00000000000E+00  0.00000000000E+00  0.45736711260E+02  0.45736711260E+02  0.00000000000E+00 0. -1.
         21   -1    0    0  502  503 -0.00000000000E+00 -0.00000000000E+00 -0.17545016629E+04  0.17545016629E+04  0.00000000000E+00 0.  1.
         -6    2    1    2    0  503  0.15077278355E+03  0.76740450125E+02 -0.13218249611E+04  0.13436857107E+04  0.17218749188E+03 0.  0.
        -24    2    3    3    0    0  0.75752943071E+02  0.33917285898E+02 -0.34714715131E+03  0.36517627140E+03  0.77160053572E+02 0.  0.
          6    2    1    2  501    0 -0.15077278355E+03 -0.76740450125E+02 -0.38693999058E+03  0.45655266352E+03  0.17348270608E+03 0.  0.
         24    2    5    5    0    0 -0.44873019737E+02 -0.33421917498E+02 -0.29003910058E+03  0.30654223812E+03  0.81944196962E+02 0.  0.
          5    1    5    5  501    0 -0.10589976382E+03 -0.43318532627E+02 -0.96900889998E+02  0.15001042540E+03  0.47000000000E+01 0. -1.
        -13    1    6    6    0    0 -0.33244647038E+02 -0.60389340592E+02 -0.18320246070E+03  0.19574274091E+03  0.00000000000E+00 0.  1.
         14    1    6    6    0    0 -0.11628372698E+02  0.26967423094E+02 -0.10683663989E+03  0.11079949721E+03  0.00000000000E+00 0. -1.
         -5    1    3    3    0  503  0.75019840482E+02  0.42823164228E+02 -0.97467780978E+03  0.97850943927E+03  0.47000000000E+01 0.  1.
         11    1    4    4    0    0 -0.68666533498E+01 -0.83118794511E+01 -0.10994267148E+03  0.11047003793E+03  0.00000000000E+00 0. -1.
        -12    1    4    4    0    0  0.82619596421E+02  0.42229165349E+02 -0.23720447983E+03  0.25470623348E+03  0.00000000000E+00 0.  1.
</event>
<event>
12    1  0.8133495E-002  0.2495679E+03  0.7818608E-02  0.1113648E+00
         21   -1    0    0  503  502  0.00000000000E+00  0.00000000000E+00  0.25861944411E+03  0.25861944411E+03  0.00000000000E+00 0. -1.
         21   -1    0    0  501  503 -0.00000000000E+00 -0.00000000000E+00 -0.41377122847E+03  0.41377122847E+03  0.00000000000E+00 0.  1.
          6    2    1    2  501    0  0.16483233373E+03  0.74213104003E+02 -0.29523306514E+03  0.38658336523E+03  0.17206641879E+03 0.  0.
         24    2    3    3    0    0  0.12085828472E+03  0.10145307822E+03 -0.28204951870E+03  0.33299578199E+03  0.80217253504E+02 0.  0.
         -6    2    1    2    0  502 -0.16483233373E+03 -0.74213104003E+02  0.14008128078E+03  0.28580730734E+03  0.17142277753E+03 0.  0.
        -24    2    5    5    0    0 -0.62724873112E+01 -0.23465244478E+02  0.48122534456E+02  0.95557284560E+02  0.78901549506E+02 0.  0.
          5    1    3    3  501    0  0.43974049008E+02 -0.27239974214E+02 -0.13183546442E+02  0.53587583246E+02  0.47000000000E+01 0. -1.
        -13    1    4    4    0    0  0.63398128333E+02  0.41954350947E+01 -0.89578836355E+02  0.10982391486E+03  0.00000000000E+00 0.  1.
         14    1    4    4    0    0  0.57460156385E+02  0.97257643122E+02 -0.19247068234E+03  0.22317186713E+03  0.00000000000E+00 0. -1.
         -5    1    5    5    0  502 -0.15855984641E+03 -0.50747859525E+02  0.91958746323E+02  0.19025002278E+03  0.47000000000E+01 0.  1.
         11    1    6    6    0    0 -0.10432765846E+02 -0.25806358612E+02  0.68862229289E+02  0.74275281021E+02  0.00000000000E+00 0. -1.
        -12    1    6    6    0    0  0.41602785344E+01  0.23411141335E+01 -0.20739694833E+02  0.21282003539E+02  0.00000000000E+00 0.  1.
</event>
<event>
12    1  0.8133495E-002  0.2099458E+03  0.7818608E-02  0.1142800E+00
         21   -1    0    0  501  502  0.00000000000E+00  0.00000000000E+00  0.47682095936E+03  0.47682095936E+03  0.00000000000E+00 0. -1.
         21   -1    0    0  502  503 -0.00000000000E+00 -0.00000000000E+00 -0.11721589063E+03  0.11721589063E+03  0.00000000000E+00 0. -1.
         -6    2    1    2    0  503 -0.44517851599E+02 -0.11023029003E+03  0.38271016407E+02  0.21340550880E+03  0.17304532509E+03 0.  0.
        -24    2    3    3    0    0 -0.87132471046E+02 -0.34532910080E+02  0.14452534117E+02  0.12320845108E+03  0.78656578142E+02 0.  0.
          6    2    1    2  501    0  0.44517851599E+02  0.11023029003E+03  0.32133405232E+03  0.38063134120E+03  0.16580738454E+03 0.  0.
         24    2    5    5    0    0 -0.36664437765E+02  0.81338731332E+02  0.13046399739E+03  0.17115877941E+03  0.65682592393E+02 0.  0.
          5    1    5    5  501    0  0.81182289364E+02  0.28891558703E+02  0.19087005494E+03  0.20947256179E+03  0.47000000000E+01 0. -1.
        -13    1    6    6    0    0 -0.15188277524E+02 -0.90555672788E+01  0.24760604758E+02  0.30426544675E+02  0.00000000000E+00 0.  1.
         14    1    6    6    0    0 -0.21476160241E+02  0.90394298611E+02  0.10570339263E+03  0.14073223473E+03  0.00000000000E+00 0. -1.
         -5    1    3    3    0  503  0.42614619447E+02 -0.75697379955E+02  0.23818482289E+02  0.90197057719E+02  0.47000000000E+01 0.  1.
         11    1    4    4    0    0 -0.73462798984E+02 -0.48126733130E+02 -0.13906045639E+02  0.88917621322E+02  0.00000000000E+00 0. -1.
        -12    1    4    4    0    0 -0.13669672062E+02  0.13593823051E+02  0.28358579756E+02  0.34290829754E+02  0.00000000000E+00 0.  1.
</event>
<event>
12    1  0.8133495E-002  0.1917722E+03  0.7818608E-02  0.1157985E+00
         21   -1    0    0  503  502  0.00000000000E+00  0.00000000000E+00  0.41685418188E+02  0.41685418188E+02  0.00000000000E+00 0. -1.
         21   -1    0    0  501  503 -0.00000000000E+00 -0.00000000000E+00 -0.92277204131E+03  0.92277204131E+03  0.00000000000E+00 0. -1.
          6    2    1    2  501    0 -0.19200228191E+02  0.67940007540E+02 -0.30916382067E+03  0.36123920180E+03  0.17299421817E+03 0.  0.
         24    2    3    3    0    0  0.31021273733E+02  0.97286004547E+02 -0.19204098351E+03  0.23038341943E+03  0.75959821587E+02 0.  0.
         -6    2    1    2    0  502  0.19200228191E+02 -0.67940007540E+02 -0.57192280245E+03  0.60321825770E+03  0.17830334003E+03 0.  0.
        -24    2    5    5    0    0  0.22228083634E+02  0.12201516718E+02 -0.13281416474E+03  0.15682121745E+03  0.79437567797E+02 0.  0.
          5    1    3    3  501    0 -0.50221501924E+02 -0.29345997006E+02 -0.11712283717E+03  0.13085578238E+03  0.47000000000E+01 0. -1.
        -11    1    4    4    0    0  0.29561115536E+02  0.60978322370E+02 -0.17962667957E+03  0.19198426853E+03  0.00000000000E+00 0.  1.
         12    1    4    4    0    0  0.14601581967E+01  0.36307682177E+02 -0.12414303936E+02  0.38399150892E+02  0.00000000000E+00 0. -1.
         -5    1    5    5    0  502 -0.30278554429E+01 -0.80141524258E+02 -0.43910863772E+03  0.44639704024E+03  0.47000000000E+01 0.  1.
         13    1    6    6    0    0  0.27128417960E+02 -0.24221290856E+02 -0.10383361958E+03  0.11001837368E+03  0.00000000000E+00 0. -1.
        -14    1    6    6    0    0 -0.49003343254E+01  0.36422807574E+02 -0.28980545153E+02  0.46802843775E+02  0.00000000000E+00 0.  1.
</event>
<event>
12    1  0.8133495E-002  0.1740183E+03  0.7818608E-02  0.1174004E+00
         21   -1    0    0  503  502  0.00000000000E+00  0.00000000000E+00  0.65509536950E+02  0.65509536950E+02  0.00000000000E+00 0. -1.
         21   -1    0    0  501  503 -0.00000000000E+00 -0.00000000000E+00 -0.11478168280E+04  0.11478168280E+04  0.00000000000E+00 0. -1.
          6    2    1    2  501    0  0.28970386880E+02 -0.51631505842E+01 -0.10117100268E+04  0.10265668671E+04  0.17151213642E+03 0.  0.
         24    2    3    3    0    0  0.24986832008E+02 -0.51350872729E+01 -0.22828853186E+03  0.24312114584E+03  0.79633704410E+02 0.  0.
         -6    2    1    2    0  502 -0.28970386880E+02  0.51631505842E+01 -0.70597264275E+02  0.18675949784E+03  0.17037956118E+03 0.  0.
        -24    2    5    5    0    0 -0.70992430783E+02  0.23311500326E+02 -0.84827139700E+02  0.13859525667E+03  0.80185100027E+02 0.  0.
          5    1    3    3  501    0  0.39835548717E+01 -0.28063311299E-01 -0.78342149493E+03  0.78344572129E+03  0.47000000000E+01 0. -1.
        -11    1    4    4    0    0 -0.72753945701E+01  0.31820643707E+02 -0.11765385494E+03  0.12209797015E+03  0.00000000000E+00 0.  1.
         12    1    4    4    0    0  0.32262226578E+02 -0.36955730980E+02 -0.11063467692E+03  0.12102317569E+03  0.00000000000E+00 0. -1.
         -5    1    5    5    0  502  0.42022043904E+02 -0.18148349742E+02  0.14229875425E+02  0.48164241163E+02  0.47000000000E+01 0.  1.
         11    1    6    6    0    0 -0.10002394137E+02  0.18036668311E+02  0.12131581058E+02  0.23927903193E+02  0.00000000000E+00 0. -1.
        -12    1    6    6    0    0 -0.60990036646E+02  0.52748320154E+01 -0.96958720758E+02  0.11466735348E+03  0.00000000000E+00 0.  1.
</event>
<event>
12    1  0.8133495E-002  0.2097282E+03  0.7818608E-02  0.1142455E+00
         21   -1    0    0  503  502  0.00000000000E+00  0.00000000000E+00  0.53771749983E+02  0.53771749983E+02  0.00000000000E+00 0.  1.
         21   -1    0    0  501  503 -0.00000000000E+00 -0.00000000000E+00 -0.84359948242E+03  0.84359948242E+03  0.00000000000E+00 0. -1.
          6    2    1    2  501    0 -0.10970535198E+03 -0.29375008873E+02 -0.48791973569E+03  0.52976496086E+03  0.17229941926E+03 0.  0.
         24    2    3    3    0    0 -0.50897734646E+01  0.36334670191E+02 -0.18088169785E+03  0.19877156535E+03  0.73795884184E+02 0.  0.
         -6    2    1    2    0  502  0.10970535198E+03  0.29375008873E+02 -0.30190799674E+03  0.36760627154E+03  0.17631726229E+03 0.  0.
        -24    2    5    5    0    0  0.13972724216E+03  0.72408683579E+01 -0.18575385445E+03  0.24551979056E+03  0.78735892317E+02 0.  0.
          5    1    3    3  501    0 -0.10461557851E+03 -0.65709679064E+02 -0.30703803784E+03  0.33099339551E+03  0.47000000000E+01 0. -1.
        -11    1    4    4    0    0  0.74283181969E+00  0.56536907419E+02 -0.96829372793E+02  0.11212894869E+03  0.00000000000E+00 0.  1.
         12    1    4    4    0    0 -0.58326052843E+01 -0.20202237229E+02 -0.84052325058E+02  0.86642616657E+02  0.00000000000E+00 0. -1.
         -5    1    5    5    0  502 -0.30021890182E+02  0.22134140515E+02 -0.11615414229E+03  0.12208648098E+03  0.47000000000E+01 0.  1.
         13    1    6    6    0    0 -0.10272885731E+02 -0.99135250862E+00 -0.12149424160E+02  0.15941250530E+02  0.00000000000E+00 0. -1.
        -14    1    6    6    0    0  0.15000012789E+03  0.82322208665E+01 -0.17360443029E+03  0.22957854003E+03  0.00000000000E+00 0.  1.
</event>
<event>
12    1  0.8133495E-002  0.1771088E+03  0.7818608E-02  0.1170734E+00
         21   -1    0    0  503  502  0.00000000000E+00  0.00000000000E+00  0.34268214780E+02  0.34268214780E+02  0.00000000000E+00 0. -1.
         21   -1    0    0  501  503 -0.00000000000E+00 -0.00000000000E+00 -0.14728253841E+04  0.14728253841E+04  0.00000000000E+00 0. -1.
          6    2    1    2  501    0 -0.25908427080E+02  0.32834009658E+02 -0.11832510726E+04  0.11963707096E+04  0.17166961015E+03 0.  0.
         24    2    3    3    0    0  0.28687802270E+02  0.49988764154E+02 -0.40504037490E+03  0.41604448681E+03  0.75587321466E+02 0.  0.
         -6    2    1    2    0  502  0.25908427080E+02 -0.32834009658E+02 -0.25530609667E+03  0.31072288929E+03  0.17209936708E+03 0.  0.
        -24    2    5    5    0    0 -0.11951179013E+02  0.31593027476E+02 -0.67094641364E+02  0.10816466360E+03  0.77826431801E+02 0.  0.
          5    1    3    3  501    0 -0.54596229351E+02 -0.17154754495E+02 -0.77821069774E+03  0.78032622276E+03  0.47000000000E+01 0. -1.
        -11    1    4    4    0    0  0.47233916239E+02  0.10611677655E+02 -0.26535174750E+03  0.26973171940E+03  0.00000000000E+00 0.  1.
         12    1    4    4    0    0 -0.18546113968E+02  0.39377086499E+02 -0.13968862739E+03  0.14631276741E+03  0.00000000000E+00 0. -1.
         -5    1    5    5    0  502  0.37859606093E+02 -0.64427037134E+02 -0.18821145530E+03  0.20255822569E+03  0.47000000000E+01 0.  1.
         13    1    6    6    0    0 -0.48364183483E+01  0.57484386964E+02 -0.49943542742E+02  0.76303362630E+02  0.00000000000E+00 0. -1.
        -14    1    6    6    0    0 -0.71147606644E+01 -0.25891359488E+02 -0.17151098622E+02  0.31861300969E+02  0.00000000000E+00 0.  1.
</event>
<event>
12    1  0.8133495E-002  0.2312610E+03  0.7818608E-02  0.1125756E+00
         21   -1    0    0  503  502  0.00000000000E+00  0.00000000000E+00  0.10754743683E+03  0.10754743683E+03  0.00000000000E+00 0. -1.
         21   -1    0    0  501  503 -0.00000000000E+00 -0.00000000000E+00 -0.12962578084E+04  0.12962578084E+04  0.00000000000E+00 0. -1.
          6    2    1    2  501    0 -0.91506242213E+02 -0.12479383006E+03 -0.11454196771E+04  0.11685323593E+04  0.17185675924E+03 0.  0.
         24    2    3    3    0    0  0.12860286651E+02 -0.86456293252E+02 -0.63677351473E+03  0.64785477427E+03  0.81210971348E+02 0.  0.
         -6    2    1    2    0  502  0.91506242213E+02  0.12479383006E+03 -0.43290694493E+02  0.23527288594E+03  0.17184980141E+03 0.  0.
        -24    2    5    5    0    0  0.11971273723E+03  0.12799089633E+03 -0.11438047860E+02  0.19234843264E+03  0.78449229435E+02 0.  0.
          5    1    3    3  501    0 -0.10436652886E+03 -0.38337536803E+02 -0.50864616236E+03  0.52067758503E+03  0.47000000000E+01 0. -1.
        -13    1    4    4    0    0 -0.20203336144E+02 -0.59780117976E+02 -0.21849918718E+03  0.22742852085E+03  0.00000000000E+00 0.  1.
         14    1    4    4    0    0  0.33063622795E+02 -0.26676175277E+02 -0.41827432755E+03  0.42042625342E+03  0.00000000000E+00 0. -1.
         -5    1    5    5    0  502 -0.28206495018E+02 -0.31970662777E+01 -0.31852646632E+02  0.42924453304E+02  0.47000000000E+01 0.  1.
         13    1    6    6    0    0  0.52020287201E+02  0.22502256479E+02  0.24812068516E+02  0.61871645939E+02  0.00000000000E+00 0. -1.
        -14    1    6    6    0    0  0.67692450030E+02  0.10548863985E+03 -0.36250116377E+02  0.13047678670E+03  0.00000000000E+00 0.  1.
</event>
<event>
12    1  0.8133495E-002  0.3180184E+03  0.7818608E-02  0.1076671E+00
         21   -1    0    0  501  502  0.00000000000E+00  0.00000000000E+00  0.56553332559E+03  0.56553332559E+03  0.00000000000E+00 0.  1.
         21   -1    0    0  502  503 -0.00000000000E+00 -0.00000000000E+00 -0.19709252379E+03  0.19709252379E+03  0.00000000000E+00 0. -1.
         -6    2    1    2    0  503  0.88276382423E+02  0.25096543538E+03  0.66776782880E+02  0.32495359443E+03  0.17423929049E+03 0.  0.
        -24    2    3    3    0    0  0.97813950494E+02  0.25036974437E+03  0.94560585873E+02  0.29519876690E+03  0.77123470977E+02 0.  0.
          6    2    1    2  501    0 -0.88276382423E+02 -0.25096543538E+03  0.30166401892E+03  0.43767225495E+03  0.17256724194E+03 0.  0.
         24    2    5    5    0    0 -0.12091932836E+03 -0.17240099207E+03  0.17658400536E+03  0.28632816532E+03  0.80363681301E+02 0.  0.
          5    1    5    5  501    0  0.32642945935E+02 -0.78564443318E+02  0.12508001356E+03  0.15134408963E+03  0.47000000000E+01 0. -1.
        -11    1    6    6    0    0 -0.71097046337E+02 -0.13415996373E+03  0.16164027834E+03  0.22176849516E+03  0.00000000000E+00 0.  1.
         12    1    6    6    0    0 -0.49822282022E+02 -0.38241028333E+02  0.14943727026E+02  0.64559670161E+02  0.00000000000E+00 0. -1.
         -5    1    3    3    0  503 -0.95375680708E+01  0.59569101762E+00 -0.27783802992E+02  0.29754827528E+02  0.47000000000E+01 0.  1.
         13    1    4    4    0    0  0.47145845379E+02  0.19497579685E+03  0.46035380051E+02  0.20580949519E+03  0.00000000000E+00 0. -1.
        -14    1    4    4    0    0  0.50668105116E+02  0.55393947515E+02  0.48525205822E+02  0.89389271713E+02  0.00000000000E+00 0.  1.
</event>
<event>
12    1  0.8133495E-002  0.2268744E+03  0.7818608E-02  0.1129623E+00
         21   -1    0    0  501  502  0.00000000000E+00  0.00000000000E+00  0.31481840527E+03  0.31481840527E+03  0.00000000000E+00 0.  1.
         21   -1    0    0  502  503 -0.00000000000E+00 -0.00000000000E+00 -0.22090155160E+03  0.22090155160E+03  0.00000000000E+00 0. -1.
         -6    2    1    2    0  503 -0.77851254042E+02  0.11904034752E+03  0.18737523481E+03  0.29424731296E+03  0.17675005084E+03 0.  0.
        -24    2    3    3    0    0 -0.13753373061E+02 -0.11011878831E+02  0.61622754277E+02  0.10226320871E+03  0.79686782246E+02 0.  0.
          6    2    1    2  501    0  0.77851254042E+02 -0.11904034752E+03 -0.93458381143E+02  0.24147264390E+03  0.17129841404E+03 0.  0.
         24    2    5    5    0    0  0.23124792505E+02  0.37211348096E+01 -0.20358824715E+02  0.88400757893E+02  0.82774448833E+02 0.  0.
          5    1    5    5  501    0  0.54726461536E+02 -0.12276148233E+03 -0.73099556428E+02  0.15307188601E+03  0.47000000000E+01 0. -1.
        -11    1    6    6    0    0 -0.20863665482E+02 -0.23449819538E+00  0.19757740353E+02  0.28735271542E+02  0.00000000000E+00 0.  1.
         12    1    6    6    0    0  0.43988457987E+02  0.39556330050E+01 -0.40116565069E+02  0.59665486351E+02  0.00000000000E+00 0. -1.
         -5    1    3    3    0  503 -0.64097880981E+02  0.13005222635E+03  0.12575248053E+03  0.19198410425E+03  0.47000000000E+01 0.  1.
         13    1    4    4    0    0  0.30486394342E+02 -0.15267861897E+02  0.13268302950E+02  0.36586550946E+02  0.00000000000E+00 0. -1.
        -14    1    4    4    0    0 -0.44239767403E+02  0.42559830660E+01  0.48354451327E+02  0.65676657762E+02  0.00000000000E+00 0.  1.
</event>
<event>
12    1  0.8133495E-002  0.1990475E+03  0.7818608E-02  0.1152469E+00
         21   -1    0    0  503  502  0.00000000000E+00  0.00000000000E+00  0.20086867050E+03  0.20086867050E+03  0.00000000000E+00 0.  1.
         21   -1    0    0  501  503 -0.00000000000E+00 -0.00000000000E+00 -0.27851522437E+03  0.27851522437E+03  0.00000000000E+00 0. -1.
          6    2    1    2  501    0  0.79054378524E+02 -0.43672189233E+01 -0.17441143939E+03  0.25806202680E+03  0.17293927293E+03 0.  0.
         24    2    3    3    0    0  0.25435797360E+02 -0.32023819009E+01 -0.80690315505E+01  0.83224400025E+02  0.78765198229E+02 0.  0.
         -6    2    1    2    0  502 -0.79054378524E+02  0.43672189233E+01  0.96764885515E+02  0.22132186807E+03  0.18262327029E+03 0.  0.
        -24    2    5    5    0    0 -0.99035743188E+02  0.59504084555E+02  0.68014177035E+02  0.15583887697E+03  0.79441883089E+02 0.  0.
          5    1    3    3  501    0  0.53618581164E+02 -0.11648370224E+01 -0.16634240784E+03  0.17483762678E+03  0.47000000000E+01 0. -1.
        -11    1    4    4    0    0 -0.25093862359E+02 -0.19434653392E+00  0.13157611808E+02  0.28334827459E+02  0.00000000000E+00 0.  1.
         12    1    4    4    0    0  0.50529659719E+02 -0.30080353670E+01 -0.21226643359E+02  0.54889572565E+02  0.00000000000E+00 0. -1.
         -5    1    5    5    0  502  0.19981364664E+02 -0.55136865632E+02  0.28750708479E+02  0.65482991102E+02  0.47000000000E+01 0.  1.
         13    1    6    6    0    0 -0.47533138132E+02 -0.11488671910E+02  0.79681318143E+01  0.49546744874E+02  0.00000000000E+00 0. -1.
        -14    1    6    6    0    0 -0.51502605055E+02  0.70992756466E+02  0.60046045221E+02  0.10629213209E+03  0.00000000000E+00 0.  1.
</event>
<event>
12    1  0.8133495E-002  0.2557014E+03  0.7818608E-02  0.1110311E+00
         21   -1    0    0  503  502  0.00000000000E+00  0.00000000000E+00  0.49952434803E+02  0.49952434803E+02  0.00000000000E+00 0.  1.
         21   -1    0    0  501  503 -0.00000000000E+00 -0.00000000000E+00 -0.13000421238E+04  0.13000421238E+04  0.00000000000E+00 0. -1.
          6    2    1    2  501    0  0.13098294587E+03 -0.12293708791E+03 -0.67835095278E+03  0.72368124765E+03  0.17687417384E+03 0.  0.
         24    2    3    3    0    0  0.10360147607E+03 -0.15894748357E+03 -0.53198921722E+03  0.57041565751E+03  0.79774223393E+02 0.  0.
         -6    2    1    2    0  502 -0.13098294587E+03  0.12293708791E+03 -0.57173873621E+03  0.62631331094E+03  0.18197011099E+03 0.  0.
        -24    2    5    5    0    0 -0.14258592492E+03  0.14971959500E+03 -0.47296174004E+03  0.52320697369E+03  0.85475298567E+02 0.  0.
          5    1    3    3  501    0  0.27381469797E+02  0.36010395666E+02 -0.14636173556E+03  0.15326559014E+03  0.47000000000E+01 0. -1.
        -13    1    4    4    0    0  0.54027808688E+02 -0.63146385203E+02 -0.13071605641E+03  0.15489724814E+03  0.00000000000E+00 0.  1.
         14    1    4    4    0    0  0.49573667386E+02 -0.95801098370E+02 -0.40127316080E+03  0.41551840937E+03  0.00000000000E+00 0. -1.
         -5    1    5    5    0  502  0.11602979053E+02 -0.26782507097E+02 -0.98776996168E+02  0.10310633725E+03  0.47000000000E+01 0.  1.
         11    1    6    6    0    0 -0.23090757783E+02  0.30362931374E+00 -0.11528915230E+03  0.11757918151E+03  0.00000000000E+00 0. -1.
        -12    1    6    6    0    0 -0.11949516714E+03  0.14941596569E+03 -0.35767258774E+03  0.40562779218E+03  0.00000000000E+00 0.  1.
</event>
<event>
12    1  0.8133495E-002  0.2092700E+03  0.7818608E-02  0.1143034E+00
         21   -1    0    0  503  502  0.00000000000E+00  0.00000000000E+00  0.42964444707E+03  0.42964444707E+03  0.00000000000E+00 0. -1.
         21   -1    0    0  501  503 -0.00000000000E+00 -0.00000000000E+00 -0.10576877946E+03  0.10576877946E+03  0.00000000000E+00 0. -1.
          6    2    1    2  501    0  0.45977405484E+02  0.10470528373E+03  0.99925045615E+02  0.23190291908E+03  0.17526217755E+03 0.  0.
         24    2    3    3    0    0  0.39561112731E+02 -0.16243955731E+02  0.47397439237E+02  0.99800206118E+02  0.76711251826E+02 0.  0.
         -6    2    1    2    0  502 -0.45977405484E+02 -0.10470528373E+03  0.22395062199E+03  0.30351030746E+03  0.16996325304E+03 0.  0.
        -24    2    5    5    0    0 -0.30568383192E+02 -0.53473209447E+02  0.22830080939E+03  0.24962916480E+03  0.79997813537E+02 0.  0.
          5    1    3    3  501    0  0.64162927537E+01  0.12094923947E+03  0.52527606378E+02  0.13210271296E+03  0.47000000000E+01 0. -1.
        -11    1    4    4    0    0 -0.70909090415E+01  0.12974125893E+01  0.49396070413E+02  0.49919295295E+02  0.00000000000E+00 0.  1.
         12    1    4    4    0    0  0.46652021772E+02 -0.17541368321E+02 -0.19986311765E+01  0.49880910823E+02  0.00000000000E+00 0. -1.
         -5    1    5    5    0  502 -0.15409022292E+02 -0.51232074288E+02 -0.43501873963E+01  0.53881142659E+02  0.47000000000E+01 0.  1.
         11    1    6    6    0    0 -0.42129759841E+02  0.19719723412E+01  0.12349870747E+03  0.13050186239E+03  0.00000000000E+00 0. -1.
        -12    1    6    6    0    0  0.11561376649E+02 -0.55445181788E+02  0.10480210191E+03  0.11912730241E+03  0.00000000000E+00 0.  1.
</event>
<event>
12    1  0.8133495E-002  0.2212926E+03  0.7818608E-02  0.1133026E+00
         21   -1    0    0  501  502  0.00000000000E+00  0.00000000000E+00  0.55863475215E+02  0.55863475215E+02  0.00000000000E+00 0.  1.
         21   -1    0    0  502  503 -0.00000000000E+00 -0.00000000000E+00 -0.14074477862E+04  0.14074477862E+04  0.00000000000E+00 0.  1.
         -6    2    1    2    0  503 -0.12738012661E+03 -0.55270285138E+02 -0.11265810423E+04  0.11481094312E+04  0.17230763218E+03 0.  0.
        -24    2    3    3    0    0 -0.10838984034E+03 -0.78334405413E+02 -0.10882649277E+04  0.10992955064E+04  0.79027976097E+02 0.  0.
          6    2    1    2  501    0  0.12738012661E+03  0.55270285138E+02 -0.22500326872E+03  0.31520183024E+03  0.17159610070E+03 0.  0.
         24    2    5    5    0    0  0.15897878590E+03  0.34716415639E+02 -0.17562240643E+03  0.25290017391E+03  0.81460324339E+02 0.  0.
          5    1    5    5  501    0 -0.31598659292E+02  0.20553869498E+02 -0.49380862294E+02  0.62301656328E+02  0.47000000000E+01 0. -1.
        -13    1    6    6    0    0  0.57516286954E+02  0.88250015836E+01 -0.12219774309E+03  0.13534508611E+03  0.00000000000E+00 0.  1.
         14    1    6    6    0    0  0.10146249895E+03  0.25891414056E+02 -0.53424663339E+02  0.11755508780E+03  0.00000000000E+00 0. -1.
         -5    1    3    3    0  503 -0.18990286272E+02  0.23064120276E+02 -0.38316114615E+02  0.48813924816E+02  0.47000000000E+01 0.  1.
         11    1    4    4    0    0 -0.81972396035E+01  0.69366043179E+01 -0.29490626756E+03  0.29510170766E+03  0.00000000000E+00 0. -1.
        -12    1    4    4    0    0 -0.10019260073E+03 -0.85271009731E+02 -0.79335866013E+03  0.80419379875E+03  0.00000000000E+00 0.  1.
</event>
<event>
12    1  0.8133495E-002  0.2744510E+03  0.7818608E-02  0.1098870E+00
         21   -1    0    0  501  502  0.00000000000E+00  0.00000000000E+00  0.14402343720E+03  0.14402343720E+03  0.00000000000E+00 0.  1.
         21   -1    0    0  502  503 -0.00000000000E+00 -0.00000000000E+00 -0.62318743034E+03  0.62318743034E+03  0.00000000000E+00 0. -1.
         -6    2    1    2    0  503  0.15688844898E+03  0.14517681353E+03 -0.84329027934E+02  0.28635952736E+03  0.17088037145E+03 0.  0.
        -24    2    3    3    0    0  0.40416632964E+01  0.58127917304E+02 -0.30650560787E+02  0.10239453595E+03  0.78421899390E+02 0.  0.
          6    2    1    2  501    0 -0.15688844898E+03 -0.14517681353E+03 -0.39483496521E+03  0.48085134018E+03  0.17214258334E+03 0.  0.
         24    2    5    5    0    0 -0.40487980946E+01 -0.32120924877E+02 -0.12794536397E+03  0.15314149583E+03  0.77679823644E+02 0.  0.
          5    1    5    5  501    0 -0.15283965088E+03 -0.11305588865E+03 -0.26688960123E+03  0.32770984436E+03  0.47000000000E+01 0. -1.
        -13    1    6    6    0    0 -0.11517776523E+02  0.24105148037E+02 -0.32015815361E+02  0.41698078746E+02  0.00000000000E+00 0.  1.
         14    1    6    6    0    0  0.74689784284E+01 -0.56226072914E+02 -0.95929548611E+02  0.11144341708E+03  0.00000000000E+00 0. -1.
         -5    1    3    3    0  503  0.15284678568E+03  0.87048896226E+02 -0.53678467147E+02  0.18396499140E+03  0.47000000000E+01 0.  1.
         13    1    4    4    0    0  0.20888753849E+02 -0.84360676354E+01 -0.24767066877E+02  0.33480066849E+02  0.00000000000E+00 0. -1.
        -14    1    4    4    0    0 -0.16847090553E+02  0.66563984940E+02 -0.58834939103E+01  0.68914469103E+02  0.00000000000E+00 0.  1.
</event>
<event>
12    1  0.8133495E-002  0.1732453E+03  0.7818608E-02  0.1175030E+00
         21   -1    0    0  503  502  0.00000000000E+00  0.00000000000E+00  0.16247432953E+03  0.16247432953E+03  0.00000000000E+00 0. -1.
         21   -1    0    0  501  503 -0.00000000000E+00 -0.00000000000E+00 -0.31454129565E+03  0.31454129565E+03  0.00000000000E+00 0. -1.
          6    2    1    2  501    0 -0.29569448500E+01 -0.47181777982E+01 -0.23079729750E+03  0.28858502790E+03  0.17315577112E+03 0.  0.
         24    2    3    3    0    0  0.22798067792E+02 -0.65868672786E+02 -0.12515634870E+03  0.16374591634E+03  0.79310652166E+02 0.  0.
         -6    2    1    2    0  502  0.29569448500E+01  0.47181777982E+01  0.78730331373E+02  0.18843059728E+03  0.17110412090E+03 0.  0.
        -24    2    5    5    0    0 -0.57622076927E+02  0.92561092724E+01  0.20997396406E+02  0.10449256966E+03  0.84094156455E+02 0.  0.
          5    1    3    3  501    0 -0.25755012642E+02  0.61150494988E+02 -0.10564094879E+03  0.12483911156E+03  0.47000000000E+01 0. -1.
        -11    1    4    4    0    0 -0.75453962754E+01 -0.39543026500E+02 -0.95708657957E+01  0.41378562346E+02  0.00000000000E+00 0.  1.
         12    1    4    4    0    0  0.30343464067E+02 -0.26325646285E+02 -0.11558548291E+03  0.12236735399E+03  0.00000000000E+00 0. -1.
         -5    1    5    5    0  502  0.60579021777E+02 -0.45379314742E+01  0.57732934966E+02  0.83938027624E+02  0.47000000000E+01 0.  1.
         13    1    6    6    0    0 -0.39583477832E+02  0.23914475118E+02  0.49481332380E+02  0.67728547095E+02  0.00000000000E+00 0. -1.
        -14    1    6    6    0    0 -0.18038599095E+02 -0.14658365846E+02 -0.28483935973E+02  0.36764022564E+02  0.00000000000E+00 0.  1.
</event>
<event>
12    1  0.8133495E-002  0.2206658E+03  0.7818608E-02  0.1133516E+00
         21   -1    0    0  501  502  0.00000000000E+00  0.00000000000E+00  0.68338745594E+03  0.68338745594E+03  0.00000000000E+00 0.  1.
         21   -1    0    0  502  503 -0.00000000000E+00 -0.00000000000E+00 -0.20835873944E+03  0.20835873944E+03  0.00000000000E+00 0. -1.
         -6    2    1    2    0  503  0.13623803042E+03  0.22240800580E+02 -0.12459338332E+03  0.25280952195E+03  0.17127080626E+03 0.  0.
        -24    2    3    3    0    0  0.12080659551E+03  0.70016296416E+02 -0.62334984424E+02  0.17269194947E+03  0.80251752924E+02 0.  0.
          6    2    1    2  501    0 -0.13623803042E+03 -0.22240800580E+02  0.59962209982E+03  0.63893667344E+03  0.17215677720E+03 0.  0.
         24    2    5    5    0    0 -0.46002460822E+02  0.35241951156E+02  0.37465463069E+03  0.38977974110E+03  0.90575563771E+02 0.  0.
          5    1    5    5  501    0 -0.90235569593E+02 -0.57482751736E+02  0.22496746913E+03  0.24915693234E+03  0.47000000000E+01 0. -1.
        -11    1    6    6    0    0 -0.45300008523E+02 -0.17815506776E+02  0.24312619463E+03  0.24795126451E+03  0.00000000000E+00 0.  1.
         12    1    6    6    0    0 -0.70245229921E+00  0.53057457932E+02  0.13152843605E+03  0.14182847659E+03  0.00000000000E+00 0. -1.
         -5    1    3    3    0  503  0.15431434908E+02 -0.47775495836E+02 -0.62258398898E+02  0.80117572474E+02  0.47000000000E+01 0.  1.
         11    1    4    4    0    0  0.13487066555E+02  0.16017463278E+02 -0.47158457074E+02  0.51598257409E+02  0.00000000000E+00 0. -1.
        -12    1    4    4    0    0  0.10731952895E+03  0.53998833139E+02 -0.15176527350E+02  0.12109369206E+03  0.00000000000E+00 0.  1.
</event>
<event>
12    1  0.8133495E-002  0.2061381E+03  0.7818608E-02  0.1144858E+00
         21   -1    0    0  501  502  0.00000000000E+00  0.00000000000E+00  0.65108366928E+03  0.65108366928E+03  0.00000000000E+00 0.  1.
         21   -1    0    0  502  503 -0.00000000000E+00 -0.00000000000E+00 -0.65487156534E+02  0.65487156534E+02  0.00000000000E+00 0. -1.
         -6    2    1    2    0  503 -0.28993060624E+02  0.10966585545E+03  0.26129761542E+03  0.33282033036E+03  0.17212126847E+03 0.  0.
        -24    2    3    3    0    0  0.14830585372E+01  0.10638512918E+03  0.94681002470E+02  0.16334247719E+03  0.79976730686E+02 0.  0.
          6    2    1    2  501    0  0.28993060624E+02 -0.10966585545E+03  0.32429889732E+03  0.38375049545E+03  0.17096043560E+03 0.  0.
         24    2    5    5    0    0  0.71684980863E+02 -0.10899985185E+03  0.19853291485E+03  0.25085122548E+03  0.80568696513E+02 0.  0.
          5    1    5    5  501    0 -0.42691920239E+02 -0.66600359823E+00  0.12576598247E+03  0.13289926998E+03  0.47000000000E+01 0. -1.
        -13    1    6    6    0    0  0.44836592592E+02 -0.25956159437E+02  0.12980830710E+03  0.13976494138E+03  0.00000000000E+00 0.  1.
         14    1    6    6    0    0  0.26848388272E+02 -0.83043692414E+02  0.68724607754E+02  0.11108628409E+03  0.00000000000E+00 0. -1.
         -5    1    3    3    0  503 -0.30476119161E+02  0.32807262684E+01  0.16661661295E+03  0.16947785317E+03  0.47000000000E+01 0.  1.
         11    1    4    4    0    0  0.52085604438E+01  0.87780086412E+02  0.10865348229E+03  0.13977858164E+03  0.00000000000E+00 0. -1.
        -12    1    4    4    0    0 -0.37255019066E+01  0.18605042768E+02 -0.13972479819E+02  0.23563895543E+02  0.00000000000E+00 0.  1.
</event>
<event>
12    1  0.8133495E-002  0.2217375E+03  0.7818608E-02  0.1132641E+00
         21   -1    0    0  501  502  0.00000000000E+00  0.00000000000E+00  0.12057376347E+04  0.12057376347E+04  0.00000000000E+00 0. -1.
         21   -1    0    0  502  503 -0.00000000000E+00 -0.00000000000E+00 -0.64203423114E+03  0.64203423114E+03  0.00000000000E+00 0. -1.
         -6    2    1    2    0  503  0.75880040447E+02 -0.11773009423E+03 -0.61223740904E+03  0.65115447471E+03  0.17189924166E+03 0.  0.
        -24    2    3    3    0    0  0.39975757914E+02  0.82898992533E+01 -0.28223465421E+03  0.29605721416E+03  0.79540495119E+02 0.  0.
          6    2    1    2  501    0 -0.75880040447E+02  0.11773009423E+03  0.11759408126E+04  0.11966173912E+04  0.17157572783E+03 0.  0.
         24    2    5    5    0    0 -0.83295142016E+01  0.45256166712E+02  0.26700079266E+03  0.28228178883E+03  0.79221736883E+02 0.  0.
          5    1    5    5  501    0 -0.67550526246E+02  0.72473927522E+02  0.90894001998E+03  0.91433560233E+03  0.47000000000E+01 0. -1.
        -13    1    6    6    0    0 -0.15786926491E+02  0.66369303208E+02  0.18150644910E+03  0.19390384865E+03  0.00000000000E+00 0.  1.
         14    1    6    6    0    0  0.74574122897E+01 -0.21113136495E+02  0.85494343553E+02  0.88377940179E+02  0.00000000000E+00 0. -1.
         -5    1    3    3    0  503  0.35904282533E+02 -0.12601999349E+03 -0.33000275483E+03  0.35509726056E+03  0.47000000000E+01 0.  1.
         11    1    4    4    0    0 -0.68405075122E+00 -0.32913076044E+01 -0.22436217902E+03  0.22438736151E+03  0.00000000000E+00 0. -1.
        -12    1    4    4    0    0  0.40659808665E+02  0.11581206858E+02 -0.57872475192E+02  0.71669852643E+02  0.00000000000E+00 0.  1.
</event>
<event>
12    1  0.8133495E-002  0.2562404E+03  0.7818608E-02  0.1109785E+00
         21   -1    0    0  503  502  0.00000000000E+00  0.00000000000E+00  0.23090446026E+04  0.23090446026E+04  0.00000000000E+00 0. -1.
         21   -1    0    0  501  503 -0.00000000000E+00 -0.00000000000E+00 -0.29066088921E+02  0.29066088921E+02  0.00000000000E+00 0.  1.
          6    2    1    2  501    0  0.18713576551E+03  0.32676301816E+02  0.93021208508E+03  0.96423713657E+03  0.16843751627E+03 0.  0.
         24    2    3    3    0    0  0.18011545424E+03  0.73112434123E+02  0.75434711204E+03  0.78358569232E+03  0.84734685323E+02 0.  0.
         -6    2    1    2    0  502 -0.18713576551E+03 -0.32676301816E+02  0.13497664286E+04  0.13738735549E+04  0.17196394325E+03 0.  0.
        -24    2    5    5    0    0 -0.16789590047E+03 -0.43641939810E+02  0.13310683757E+04  0.13445115930E+04  0.76646923004E+02 0.  0.
          5    1    3    3  501    0  0.70203112667E+01 -0.40436132307E+02  0.17586497304E+03  0.18065144425E+03  0.47000000000E+01 0. -1.
        -13    1    4    4    0    0  0.13243013114E+03  0.48487822137E+02  0.37837520261E+03  0.40380267765E+03  0.00000000000E+00 0.  1.
         14    1    4    4    0    0  0.47685323100E+02  0.24624611986E+02  0.37597190943E+03  0.37978301467E+03  0.00000000000E+00 0. -1.
         -5    1    5    5    0  502 -0.19239865031E+02  0.10965637995E+02  0.18698052900E+02  0.29361961877E+02  0.47000000000E+01 0.  1.
         11    1    6    6    0    0 -0.65864372049E+01  0.15297720354E+01  0.28785414649E+03  0.28793355311E+03  0.00000000000E+00 0. -1.
        -12    1    6    6    0    0 -0.16130946327E+03 -0.45171711846E+02  0.10432142292E+04  0.10565780399E+04  0.00000000000E+00 0.  1.
</event>
<event>
12    1  0.8133495E-002  0.4420039E+03  0.7818608E-02  0.1030148E+00
         21   -1    0    0  503  502  0.00000000000E+00  0.00000000000E+00  0.81669328292E+03  0.81669328292E+03  0.00000000000E+00 0. -1.
         21   -1    0    0  501  503 -0.00000000000E+00 -0.00000000000E+00 -0.24019730175E+03  0.24019730175E+03  0.00000000000E+00 0.  1.
          6    2    1    2  501    0  0.38942253926E+03  0.11948302841E+03  0.25287257533E+03  0.50922686687E+03  0.17158483159E+03 0.  0.
         24    2    3    3    0    0  0.12931368198E+03  0.39320417219E+02  0.33288568749E+02  0.15948140541E+03  0.77833580830E+02 0.  0.
         -6    2    1    2    0  502 -0.38942253926E+03 -0.11948302841E+03  0.32362340583E+03  0.54766371780E+03  0.17110619751E+03 0.  0.
        -24    2    5    5    0    0 -0.22183110732E+03 -0.66705480256E+02  0.26709748271E+03  0.36302995156E+03  0.82407640352E+02 0.  0.
          5    1    3    3  501    0  0.26010885728E+03  0.80162611194E+02  0.21958400658E+03  0.34974546146E+03  0.47000000000E+01 0. -1.
        -11    1    4    4    0    0  0.80351685424E+01  0.25629218748E+02 -0.11844368427E+02  0.29354894832E+02  0.00000000000E+00 0.  1.
         12    1    4    4    0    0  0.12127851344E+03  0.13691198471E+02  0.45132937176E+02  0.13012651058E+03  0.00000000000E+00 0. -1.
         -5    1    5    5    0  502 -0.16759143194E+03 -0.52777548157E+02  0.56525923117E+02  0.18463376624E+03  0.47000000000E+01 0.  1.
         11    1    6    6    0    0 -0.20671056746E+03 -0.77719803060E+02  0.26379953733E+03  0.34403462382E+03  0.00000000000E+00 0. -1.
        -12    1    6    6    0    0 -0.15120539854E+02  0.11014322805E+02  0.32979453815E+01  0.18995327743E+02  0.00000000000E+00 0.  1.
</event>
<event>
12    1  0.8133495E-002  0.2260527E+03  0.7818608E-02  0.1129477E+00
         21   -1    0    0  501  502  0.00000000000E+00  0.00000000000E+00  0.11163878444E+04  0.11163878444E+04  0.00000000000E+00 0.  1.
         21   -1    0    0  502  503 -0.00000000000E+00 -0.00000000000E+00 -0.84982535591E+02  0.84982535591E+02  0.00000000000E+00 0. -1.
         -6    2    1    2    0  503  0.71633294366E+02 -0.12754454883E+03  0.10742762629E+03  0.25014244471E+03  0.17213833668E+03 0.  0.
        -24    2    3    3    0    0 -0.47626362293E+01 -0.64387835438E+02  0.10775474894E+03  0.15090885328E+03  0.83629659944E+02 0.  0.
          6    2    1    2  501    0 -0.71633294366E+02  0.12754454883E+03  0.92397768255E+03  0.95122793531E+03  0.17233945072E+03 0.  0.
         24    2    5    5    0    0 -0.82713097184E+02  0.13203640886E+03  0.55881967991E+03  0.58584403346E+03  0.81601024412E+02 0.  0.
          5    1    5    5  501    0  0.11079802818E+02 -0.44918600251E+01  0.36515800264E+03  0.36538390185E+03  0.47000000000E+01 0. -1.
        -11    1    6    6    0    0 -0.30449423018E+02 -0.14732881132E-01  0.61214106140E+02  0.68369103912E+02  0.00000000000E+00 0.  1.
         12    1    6    6    0    0 -0.52263674166E+02  0.13205114174E+03  0.49760557377E+03  0.51747492955E+03  0.00000000000E+00 0. -1.
         -5    1    3    3    0  503  0.76395930595E+02 -0.63156713392E+02 -0.32712265542E+00  0.99233591426E+02  0.47000000000E+01 0.  1.
         13    1    4    4    0    0  0.51145593936E+01 -0.68046150998E+02  0.33694935059E+02  0.76103784610E+02  0.00000000000E+00 0. -1.
        -14    1    4    4    0    0 -0.98771956229E+01  0.36583155597E+01  0.74059813884E+02  0.74805068670E+02  0.00000000000E+00 0.  1.
</event>
<event>
12    1  0.8133495E-002  0.2144216E+03  0.7818608E-02  0.1138179E+00
         21   -1    0    0  503  502  0.00000000000E+00  0.00000000000E+00  0.37244475882E+03  0.37244475882E+03  0.00000000000E+00 0. -1.
         21   -1    0    0  501  503 -0.00000000000E+00 -0.00000000000E+00 -0.13330941542E+03  0.13330941542E+03  0.00000000000E+00 0.  1.
          6    2    1    2  501    0 -0.27287012700E+02 -0.12544219530E+03  0.49991784250E+02  0.21983129282E+03  0.17130759875E+03 0.  0.
         24    2    3    3    0    0 -0.41918498988E+02 -0.12956147734E+03 -0.11296994671E+02  0.15651104885E+03  0.76320045561E+02 0.  0.
         -6    2    1    2    0  502  0.27287012700E+02  0.12544219530E+03  0.18914355914E+03  0.28592288141E+03  0.17174481863E+03 0.  0.
        -24    2    5    5    0    0 -0.21579884528E+02  0.96908927040E+02  0.19545370430E+03  0.22879120041E+03  0.65469315755E+02 0.  0.
          5    1    3    3  501    0  0.14631486288E+02  0.41192820440E+01  0.61288778921E+02  0.63320243976E+02  0.47000000000E+01 0. -1.
        -11    1    4    4    0    0  0.91322645144E+01 -0.84794380054E+02  0.87033398147E+01  0.85727669208E+02  0.00000000000E+00 0.  1.
         12    1    4    4    0    0 -0.51050763502E+02 -0.44767097289E+02 -0.20000334486E+02  0.70783379641E+02  0.00000000000E+00 0. -1.
         -5    1    5    5    0  502  0.48866897228E+02  0.28533268259E+02 -0.63101451534E+01  0.57131681002E+02  0.47000000000E+01 0.  1.
         11    1    6    6    0    0 -0.84842081443E+00  0.53105635461E+02  0.41538014047E+02  0.67426515160E+02  0.00000000000E+00 0. -1.
        -12    1    6    6    0    0 -0.20731463714E+02  0.43803291579E+02  0.15391569025E+03  0.16136468525E+03  0.00000000000E+00 0.  1.
</event>
<event>
12    1  0.8133495E-002  0.1727348E+03  0.7818608E-02  0.1175645E+00
         21   -1    0    0  501  502  0.00000000000E+00  0.00000000000E+00  0.10687038730E+03  0.10687038730E+03  0.00000000000E+00 0. -1.
         21   -1    0    0  502  503 -0.00000000000E+00 -0.00000000000E+00 -0.33007632448E+03  0.33007632448E+03  0.00000000000E+00 0. -1.
         -6    2    1    2    0  503 -0.46789686599E+01 -0.11527391191E+02 -0.19993728886E+03  0.26265171149E+03  0.16987121173E+03 0.  0.
        -24    2    3    3    0    0  0.22538502333E+02 -0.26717542110E+02 -0.33892705072E+02  0.93641578012E+02  0.79988865048E+02 0.  0.
          6    2    1    2  501    0  0.46789686599E+01  0.11527391191E+02 -0.23268648321E+02  0.17429500029E+03  0.17228622591E+03 0.  0.
         24    2    5    5    0    0  0.45422084398E+01  0.34753388156E+02 -0.76467375840E+02  0.11605703803E+03  0.79959657724E+02 0.  0.
          5    1    5    5  501    0  0.13676022012E+00 -0.23225996965E+02  0.53198727519E+02  0.58237962258E+02  0.47000000000E+01 0. -1.
        -11    1    6    6    0    0  0.31892372219E+02 -0.74063908498E+00 -0.60668234204E+02  0.68544194454E+02  0.00000000000E+00 0.  1.
         12    1    6    6    0    0 -0.27350163779E+02  0.35494027241E+02 -0.15799141636E+02  0.47512843579E+02  0.00000000000E+00 0. -1.
         -5    1    3    3    0  503 -0.27217470993E+02  0.15190150919E+02 -0.16604458379E+03  0.16901013348E+03  0.47000000000E+01 0.  1.
         11    1    4    4    0    0 -0.10854230483E+02 -0.37092612975E+02 -0.42688839534E+02  0.57584835482E+02  0.00000000000E+00 0. -1.
        -12    1    4    4    0    0  0.33392732816E+02  0.10375070865E+02  0.87961344629E+01  0.36056742530E+02  0.00000000000E+00 0.  1.
</event>
<event>
12    1  0.8133495E-002  0.1910572E+03  0.7818608E-02  0.1157868E+00
         21   -1    0    0  501  502  0.00000000000E+00  0.00000000000E+00  0.16376655946E+03  0.16376655946E+03  0.00000000000E+00 0. -1.
         21   -1    0    0  502  503 -0.00000000000E+00 -0.00000000000E+00 -0.29173934197E+03  0.29173934197E+03  0.00000000000E+00 0. -1.
         -6    2    1    2    0  503  0.36410286321E+02 -0.71414228732E+02 -0.17629890132E+03  0.25996952347E+03  0.17342764920E+03 0.  0.
        -24    2    3    3    0    0  0.58670244237E+02 -0.91429752058E+02 -0.18479423818E+03  0.22849909848E+03  0.79128568921E+02 0.  0.
          6    2    1    2  501    0 -0.36410286321E+02  0.71414228732E+02  0.48326118817E+02  0.19553637797E+03  0.17167807179E+03 0.  0.
         24    2    5    5    0    0  0.78313353991E+01  0.59277571379E+01  0.76457455835E+02  0.11151696845E+03  0.80584263847E+02 0.  0.
          5    1    5    5  501    0 -0.44241621720E+02  0.65486471594E+02 -0.28131337018E+02  0.84019409523E+02  0.47000000000E+01 0. -1.
        -11    1    6    6    0    0  0.39797743801E+02 -0.14230533569E+02  0.31075903606E+02  0.52460273372E+02  0.00000000000E+00 0.  1.
         12    1    6    6    0    0 -0.31966408402E+02  0.20158290707E+02  0.45381552229E+02  0.59056695074E+02  0.00000000000E+00 0. -1.
         -5    1    3    3    0  503 -0.22259957916E+02  0.20015523326E+02  0.84953368603E+01  0.31470424986E+02  0.47000000000E+01 0.  1.
         13    1    4    4    0    0  0.78116708235E+02 -0.65701909496E+02 -0.14362715902E+03  0.17620363738E+03  0.00000000000E+00 0. -1.
        -14    1    4    4    0    0 -0.19446463998E+02 -0.25727842562E+02 -0.41167079160E+02  0.52295461098E+02  0.00000000000E+00 0.  1.
</event>
<event>
12    1  0.8133495E-002  0.1941061E+03  0.7818608E-02  0.1155430E+00
         21   -1    0    0  503  502  0.00000000000E+00  0.00000000000E+00  0.49574727234E+02  0.49574727234E+02  0.00000000000E+00 0. -1.
         21   -1    0    0  501  503 -0.00000000000E+00 -0.00000000000E+00 -0.11319062034E+04  0.11319062034E+04  0.00000000000E+00 0. -1.
          6    2    1    2  501    0  0.81710303846E+02  0.20355847907E+02 -0.88733410473E+03  0.90831656919E+03  0.17488922822E+03 0.  0.
         24    2    3    3    0    0  0.96194904537E+01  0.30525080935E+02 -0.72888389916E+03  0.73387730663E+03  0.79245489283E+02 0.  0.
         -6    2    1    2    0  502 -0.81710303846E+02 -0.20355847907E+02 -0.19499737140E+03  0.27316436141E+03  0.17176687455E+03 0.  0.
        -24    2    5    5    0    0 -0.31735015089E+02 -0.75544151793E+02 -0.10029500984E+03  0.15260771225E+03  0.80721711985E+02 0.  0.
          5    1    3    3  501    0  0.72090813392E+02 -0.10169233028E+02 -0.15845020557E+03  0.17443926256E+03  0.47000000000E+01 0. -1.
        -11    1    4    4    0    0 -0.16969917716E+02 -0.18970369845E+02 -0.34055775378E+03  0.34150759391E+03  0.00000000000E+00 0.  1.
         12    1    4    4    0    0  0.26589408170E+02  0.49495450780E+02 -0.38832614538E+03  0.39236971272E+03  0.00000000000E+00 0. -1.
         -5    1    5    5    0  502 -0.49975288758E+02  0.55188303886E+02 -0.94702361559E+02  0.12055664916E+03  0.47000000000E+01 0.  1.
         13    1    6    6    0    0 -0.46569902750E+02 -0.20851558857E+02 -0.74611523047E+02  0.90390390642E+02  0.00000000000E+00 0. -1.
        -14    1    6    6    0    0  0.14834887662E+02 -0.54692592936E+02 -0.25683486792E+02  0.62217321606E+02  0.00000000000E+00 0.  1.
</event>
<event>
12    1  0.8133495E-002  0.2202827E+03  0.7818608E-02  0.1135126E+00
         21   -1    0    0  503  502  0.00000000000E+00  0.00000000000E+00  0.37700379233E+03  0.37700379233E+03  0.00000000000E+00 0. -1.
         21   -1    0    0  501  503 -0.00000000000E+00 -0.00000000000E+00 -0.14512348826E+03  0.14512348826E+03  0.00000000000E+00 0.  1.
          6    2    1    2  501    0 -0.11984416612E+03 -0.41396088223E+02  0.18750129592E+02  0.22107921536E+03  0.18013381646E+03 0.  0.
         24    2    3    3    0    0 -0.10122818956E+03 -0.44581925556E+02 -0.53508285204E+02  0.14624558220E+03  0.79309137435E+02 0.  0.
         -6    2    1    2    0  502  0.11984416612E+03  0.41396088223E+02  0.21313017448E+03  0.30104806522E+03  0.17067280401E+03 0.  0.
        -24    2    5    5    0    0  0.87715734004E+01 -0.14679168200E+02  0.49449672675E+02  0.95390699912E+02  0.79760247135E+02 0.  0.
          5    1    3    3  501    0 -0.18615976558E+02  0.31858373328E+01  0.72258414796E+02  0.74833633158E+02  0.47000000000E+01 0. -1.
        -13    1    4    4    0    0 -0.80856860496E+02  0.18373241835E+00 -0.11709976164E+02  0.81700607028E+02  0.00000000000E+00 0.  1.
         14    1    4    4    0    0 -0.20371329061E+02 -0.44765657975E+02 -0.41798309040E+02  0.64544975174E+02  0.00000000000E+00 0. -1.
         -5    1    5    5    0  502  0.11107259271E+03  0.56075256423E+02  0.16368050180E+03  0.20565736531E+03  0.47000000000E+01 0.  1.
         11    1    6    6    0    0 -0.33483439235E+02 -0.27557458980E+01  0.36516360715E+02  0.49620353065E+02  0.00000000000E+00 0. -1.
        -12    1    6    6    0    0  0.42255012635E+02 -0.11923422302E+02  0.12933311960E+02  0.45770346847E+02  0.00000000000E+00 0.  1.
</event>
<event>
12    1  0.8133495E-002  0.1849365E+03  0.7818608E-02  0.1163592E+00
         21   -1    0    0  503  502  0.00000000000E+00  0.00000000000E+00  0.70867005616E+02  0.70867005616E+02  0.00000000000E+00 0. -1.
         21   -1    0    0  501  503 -0.00000000000E+00 -0.00000000000E+00 -0.50021573449E+03  0.50021573449E+03  0.00000000000E+00 0.  1.
          6    2    1    2  501    0 -0.29899604931E+02 -0.62603554131E+02 -0.27698256088E+03  0.33304782874E+03  0.17143023605E+03 0.  0.
         24    2    3    3    0    0 -0.20989731652E+01  0.57938585801E+01 -0.23723461093E+03  0.24906526676E+03  0.75599417970E+02 0.  0.
         -6    2    1    2    0  502  0.29899604931E+02  0.62603554131E+02 -0.15236616799E+03  0.23803491137E+03  0.16920986530E+03 0.  0.
        -24    2    5    5    0    0  0.56377795740E+02  0.93744181897E+02 -0.14053763960E+03  0.19522326143E+03  0.79967907106E+02 0.  0.
          5    1    3    3  501    0 -0.27800631765E+02 -0.68397412711E+02 -0.39747949957E+02  0.83982561987E+02  0.47000000000E+01 0. -1.
        -11    1    4    4    0    0  0.20536887110E+02  0.32386977917E+02 -0.91634213405E+02  0.99335336799E+02  0.00000000000E+00 0.  1.
         12    1    4    4    0    0 -0.22635860275E+02 -0.26593119337E+02 -0.14560039752E+03  0.14972992996E+03  0.00000000000E+00 0. -1.
         -5    1    5    5    0  502 -0.26478190809E+02 -0.31140627766E+02 -0.11828528390E+02  0.42811649934E+02  0.47000000000E+01 0.  1.
         13    1    6    6    0    0  0.44912425730E+02  0.21955430778E+02 -0.18758789265E+02  0.53395309722E+02  0.00000000000E+00 0. -1.
        -14    1    6    6    0    0  0.11465370010E+02  0.71788751119E+02 -0.12177885034E+03  0.14182795171E+03  0.00000000000E+00 0.  1.
</event>
<event>
12    1  0.8133495E-002  0.1789034E+03  0.7818608E-02  0.1168898E+00
         21   -1    0    0  503  502  0.00000000000E+00  0.00000000000E+00  0.67236589435E+02  0.67236589435E+02  0.00000000000E+00 0.  1.
         21   -1    0    0  501  503 -0.00000000000E+00 -0.00000000000E+00 -0.64080850978E+03  0.64080850978E+03  0.00000000000E+00 0.  1.
          6    2    1    2  501    0  0.47809603593E+02  0.11812474431E+02 -0.10715879856E+03  0.20854116517E+03  0.17199161814E+03 0.  0.
         24    2    3    3    0    0  0.59071830896E+02 -0.52205370803E+02 -0.55592454873E+02  0.12543701320E+03  0.80181302658E+02 0.  0.
         -6    2    1    2    0  502 -0.47809603593E+02 -0.11812474431E+02 -0.46641312178E+03  0.49950393405E+03  0.17186531707E+03 0.  0.
        -24    2    5    5    0    0 -0.16739857898E+02 -0.73224546248E+02 -0.30759594185E+03  0.32635152054E+03  0.79044256592E+02 0.  0.
          5    1    3    3  501    0 -0.11262227303E+02  0.64017845234E+02 -0.51566343690E+02  0.83104151965E+02  0.47000000000E+01 0. -1.
        -11    1    4    4    0    0  0.28051897501E+01 -0.34961614085E+02 -0.56591201175E+02  0.66578882533E+02  0.00000000000E+00 0.  1.
         12    1    4    4    0    0  0.56266641146E+02 -0.17243756718E+02  0.99874630180E+00  0.58858130668E+02  0.00000000000E+00 0. -1.
         -5    1    5    5    0  502 -0.31069745695E+02  0.61412071818E+02 -0.15881717993E+03  0.17315241351E+03  0.47000000000E+01 0.  1.
         13    1    6    6    0    0  0.25076804175E+02 -0.27691450509E+01 -0.49421110797E+02  0.55488381345E+02  0.00000000000E+00 0. -1.
        -14    1    6    6    0    0 -0.41816662073E+02 -0.70455401197E+02 -0.25817483105E+03  0.27086313919E+03  0.00000000000E+00 0.  1.
</event>
<event>
12    1  0.8133495E-002  0.2231804E+03  0.7818608E-02  0.1131814E+00
         21   -1    0    0  501  502  0.00000000000E+00  0.00000000000E+00  0.48544652438E+02  0.48544652438E+02  0.00000000000E+00 0. -1.
         21   -1    0    0  502  503 -0.00000000000E+00 -0.00000000000E+00 -0.15867949632E+04  0.15867949632E+04  0.00000000000E+00 0. -1.
         -6    2    1    2    0  503  0.96354676838E+02  0.10420671479E+03 -0.12599113668E+04  0.12795257445E+04  0.17223883277E+03 0.  0.
        -24    2    3    3    0    0  0.10151934261E+02  0.12048083650E+03 -0.77918642263E+03  0.79083942200E+03  0.60636758151E+02 0.  0.
          6    2    1    2  501    0 -0.96354676838E+02 -0.10420671479E+03 -0.27833894392E+03  0.35581387108E+03  0.17025768705E+03 0.  0.
         24    2    5    5    0    0 -0.13916784472E+01 -0.97324897622E+02 -0.16824352065E+03  0.21018275251E+03  0.79980214733E+02 0.  0.
          5    1    5    5  501    0 -0.94962998391E+02 -0.68818171722E+01 -0.11009542327E+03  0.14563111857E+03  0.47000000000E+01 0. -1.
        -11    1    6    6    0    0 -0.66519953079E+01 -0.50857668672E+02 -0.15241298835E+03  0.16081191038E+03  0.00000000000E+00 0.  1.
         12    1    6    6    0    0  0.52603168607E+01 -0.46467228951E+02 -0.15830532300E+02  0.49370842131E+02  0.00000000000E+00 0. -1.
         -5    1    3    3    0  503  0.86202742577E+02 -0.16274121704E+02 -0.48072494420E+03  0.48868632255E+03  0.47000000000E+01 0.  1.
         13    1    4    4    0    0  0.18196113908E+02  0.64410456228E+02 -0.57697091185E+03  0.58084011445E+03  0.00000000000E+00 0. -1.
        -14    1    4    4    0    0 -0.80441796474E+01  0.56070380270E+02 -0.20221551078E+03  0.20999930755E+03  0.00000000000E+00 0.  1.
</event>
<event>
12    1  0.8133495E-002  0.1810525E+03  0.7818608E-02  0.1167405E+00
         21   -1    0    0  501  502  0.00000000000E+00  0.00000000000E+00  0.22270499725E+03  0.22270499725E+03  0.00000000000E+00 0.  1.
         21   -1    0    0  502  503 -0.00000000000E+00 -0.00000000000E+00 -0.78450467765E+03  0.78450467765E+03  0.00000000000E+00 0.  1.
         -6    2    1    2    0  503 -0.34786199955E+02  0.42193834538E+02 -0.73591014575E+03  0.75785469240E+03  0.17259661871E+03 0.  0.
        -24    2    3    3    0    0  0.27128914399E+02  0.70247928678E+02 -0.48764675616E+03  0.50041088456E+03  0.83312334691E+02 0.  0.
          6    2    1    2  501    0  0.34786199955E+02 -0.42193834538E+02  0.17411046536E+03  0.24935498250E+03  0.16992072790E+03 0.  0.
         24    2    5    5    0    0 -0.11514378948E+02  0.16466512935E+02  0.15050437407E+03  0.17084308838E+03  0.78307517280E+02 0.  0.
          5    1    5    5  501    0  0.46300578903E+02 -0.58660347473E+02  0.23606091284E+02  0.78511894119E+02  0.47000000000E+01 0. -1.
        -13    1    6    6    0    0  0.14140633845E+02  0.42100416423E+02  0.88258012896E+02  0.98802223805E+02  0.00000000000E+00 0.  1.
         14    1    6    6    0    0 -0.25655012792E+02 -0.25633903488E+02  0.62246361177E+02  0.72040864578E+02  0.00000000000E+00 0. -1.
         -5    1    3    3    0  503 -0.61915114354E+02 -0.28054094140E+02 -0.24826338959E+03  0.25744380784E+03  0.47000000000E+01 0.  1.
         11    1    4    4    0    0  0.30209054605E+01  0.44302793488E+02 -0.82263035156E+02  0.93482994890E+02  0.00000000000E+00 0. -1.
        -12    1    4    4    0    0  0.24108008938E+02  0.25945135190E+02 -0.40538372100E+03  0.40692788967E+03  0.00000000000E+00 0.  1.
</event>
<event>
12    1  0.8133495E-002  0.1786374E+03  0.7818608E-02  0.1169219E+00
         21   -1    0    0  503  502  0.00000000000E+00  0.00000000000E+00  0.48709731055E+03  0.48709731055E+03  0.00000000000E+00 0.  1.
         21   -1    0    0  501  503 -0.00000000000E+00 -0.00000000000E+00 -0.65441510944E+02  0.65441510944E+02  0.00000000000E+00 0.  1.
          6    2    1    2  501    0  0.59303128393E+01  0.55045291598E+02  0.20240533545E+03  0.26996155166E+03  0.16984159331E+03 0.  0.
         24    2    3    3    0    0  0.49377557626E+02  0.82529336122E+02  0.16136208988E+03  0.20400949491E+03  0.79579617008E+02 0.  0.
         -6    2    1    2    0  502 -0.59303128393E+01 -0.55045291598E+02  0.21925046416E+03  0.28257726984E+03  0.16945204235E+03 0.  0.
        -24    2    5    5    0    0  0.47155863598E+02 -0.58793764239E+02  0.65874628011E+02  0.12016289150E+03  0.66477602947E+02 0.  0.
          5    1    3    3  501    0 -0.43447244786E+02 -0.27484044525E+02  0.41043245564E+02  0.65952056749E+02  0.47000000000E+01 0. -1.
        -11    1    4    4    0    0 -0.58738807907E+01  0.46112969609E+02  0.25815884054E+02  0.53173003594E+02  0.00000000000E+00 0.  1.
         12    1    4    4    0    0  0.55251438417E+02  0.36416366513E+02  0.13554620583E+03  0.15083649131E+03  0.00000000000E+00 0. -1.
         -5    1    5    5    0  502 -0.53086176437E+02  0.37484726411E+01  0.15337583615E+03  0.16241437833E+03  0.47000000000E+01 0.  1.
         13    1    6    6    0    0  0.14999986947E+02  0.88574938005E+01 -0.38374142763E+01  0.17837616241E+02  0.00000000000E+00 0. -1.
        -14    1    6    6    0    0  0.32155876651E+02 -0.67651258039E+02  0.69712042288E+02  0.10232527526E+03  0.00000000000E+00 0.  1.
</event>
<event>
12    1  0.8133495E-002  0.2014387E+03  0.7818608E-02  0.1148951E+00
         21   -1    0    0  503  502  0.00000000000E+00  0.00000000000E+00  0.35568672125E+03  0.35568672125E+03  0.00000000000E+00 0.  1.
         21   -1    0    0  501  503 -0.00000000000E+00 -0.00000000000E+00 -0.21439776401E+03  0.21439776401E+03  0.00000000000E+00 0.  1.
          6    2    1    2  501    0 -0.52392463084E+02 -0.89635393733E+02 -0.12561290992E+03  0.23569825642E+03  0.17028091773E+03 0.  0.
         24    2    3    3    0    0 -0.26175483707E+02 -0.12124349484E+03 -0.12614600153E+03  0.19436090951E+03  0.80487318608E+02 0.  0.
         -6    2    1    2    0  502  0.52392463084E+02  0.89635393733E+02  0.26690186717E+03  0.33438622884E+03  0.17262117292E+03 0.  0.
        -24    2    5    5    0    0 -0.57317244873E+01  0.75335113678E+02  0.24903234382E+03  0.27174176336E+03  0.78219215451E+02 0.  0.
          5    1    3    3  501    0 -0.26216979377E+02  0.31608101102E+02  0.53309161105E+00  0.41337346911E+02  0.47000000000E+01 0. -1.
        -13    1    4    4    0    0 -0.48594886024E+02 -0.68190324097E+02 -0.45612863422E+02  0.95351541979E+02  0.00000000000E+00 0.  1.
         14    1    4    4    0    0  0.22419402317E+02 -0.53053170738E+02 -0.80533138109E+02  0.99009367533E+02  0.00000000000E+00 0. -1.
         -5    1    5    5    0  502  0.58124187572E+02  0.14300280055E+02  0.17869523347E+02  0.62644465479E+02  0.47000000000E+01 0.  1.
         11    1    6    6    0    0  0.26703594428E+02  0.12433976512E+01  0.46173789402E+02  0.53353976617E+02  0.00000000000E+00 0. -1.
        -12    1    6    6    0    0 -0.32435318915E+02  0.74091716027E+02  0.20285855442E+03  0.21838778674E+03  0.00000000000E+00 0.  1.
</event>
<event>
12    1  0.8133495E-002  0.1840190E+03  0.7818608E-02  0.1164186E+00
         21   -1    0    0  503  502  0.00000000000E+00  0.00000000000E+00  0.98528902630E+02  0.98528902630E+02  0.00000000000E+00 0. -1.
         21   -1    0    0  501  503 -0.00000000000E+00 -0.00000000000E+00 -0.66482762074E+03  0.66482762074E+03  0.00000000000E+00 0. -1.
          6    2    1    2  501    0  0.67950871766E+02  0.28406620642E+01 -0.54876393328E+03  0.57850396117E+03  0.16999878906E+03 0.  0.
         24    2    3    3    0    0  0.82464667992E+02  0.31051683720E+02 -0.52178782702E+03  0.53659558095E+03  0.88924982630E+02 0.  0.
         -6    2    1    2    0  502 -0.67950871766E+02 -0.28406620642E+01 -0.17534784827E+02  0.18485256220E+03  0.17099008959E+03 0.  0.
        -24    2    5    5    0    0 -0.98661518217E+02 -0.36753070536E+02  0.85302730422E+01  0.13198790013E+03  0.79140109000E+02 0.  0.
          5    1    3    3  501    0 -0.14513796226E+02 -0.28211021656E+02 -0.26976106262E+02  0.41908380222E+02  0.47000000000E+01 0. -1.
        -13    1    4    4    0    0 -0.13220589276E+02  0.26183669218E+02 -0.11611819233E+03  0.11976561737E+03  0.00000000000E+00 0.  1.
         14    1    4    4    0    0  0.95685257268E+02  0.48680145026E+01 -0.40566963469E+03  0.41682996358E+03  0.00000000000E+00 0. -1.
         -5    1    5    5    0  502  0.30710646452E+02  0.33912408472E+02 -0.26065057869E+02  0.52864662068E+02  0.47000000000E+01 0.  1.
         13    1    6    6    0    0 -0.60289664747E+02  0.11433866378E+02  0.27909270767E+02  0.67412939191E+02  0.00000000000E+00 0. -1.
        -14    1    6    6    0    0 -0.38371853471E+02 -0.48186936914E+02 -0.19378997724E+02  0.64574960942E+02  0.00000000000E+00 0.  1.
</event>
<event>
12    1  0.8133495E-002  0.2097962E+03  0.7818608E-02  0.1142365E+00
         21   -1    0    0  503  502  0.00000000000E+00  0.00000000000E+00  0.13018916974E+03  0.13018916974E+03  0.00000000000E+00 0. -1.
         21   -1    0    0  501  503 -0.00000000000E+00 -0.00000000000E+00 -0.42188743677E+03  0.42188743677E+03  0.00000000000E+00 0. -1.
          6    2    1    2  501    0  0.90628595336E+02 -0.74450953858E+02 -0.27169887014E+03  0.34132930501E+03  0.17008507167E+03 0.  0.
         24    2    3    3    0    0 -0.10429209471E+02 -0.40688781497E+02 -0.74720483144E+02  0.11733122659E+03  0.80119415761E+02 0.  0.
         -6    2    1    2    0  502 -0.90628595336E+02  0.74450953858E+02 -0.19999396889E+02  0.21074730150E+03  0.17394816006E+03 0.  0.
        -24    2    5    5    0    0 -0.80211212021E+02  0.67721648904E+02 -0.77536686619E+02  0.15170125904E+03  0.77338696386E+02 0.  0.
          5    1    3    3  501    0  0.10105780481E+03 -0.33762172362E+02 -0.19697838699E+03  0.22399807842E+03  0.47000000000E+01 0. -1.
        -11    1    4    4    0    0 -0.22354347666E+02  0.14316771388E+02 -0.38398746592E+01  0.26822219147E+02  0.00000000000E+00 0.  1.
         12    1    4    4    0    0  0.11925138195E+02 -0.55005552885E+02 -0.70880608484E+02  0.90509007443E+02  0.00000000000E+00 0. -1.
         -5    1    5    5    0  502 -0.10417383315E+02  0.67293049539E+01  0.57537289730E+02  0.59046042457E+02  0.47000000000E+01 0.  1.
         13    1    6    6    0    0 -0.22472739234E+02  0.19785718737E+02  0.14235062915E+02  0.33153215391E+02  0.00000000000E+00 0. -1.
        -14    1    6    6    0    0 -0.57738472787E+02  0.47935930168E+02 -0.91771749533E+02  0.11854804365E+03  0.00000000000E+00 0.  1.
</event>
<event>
12    1  0.8133495E-002  0.2469806E+03  0.7818608E-02  0.1115448E+00
         21   -1    0    0  501  502  0.00000000000E+00  0.00000000000E+00  0.25339894808E+03  0.25339894808E+03  0.00000000000E+00 0.  1.
         21   -1    0    0  502  503 -0.00000000000E+00 -0.00000000000E+00 -0.25424154201E+03  0.25424154201E+03  0.00000000000E+00 0. -1.
         -6    2    1    2    0  503  0.14479035086E+03 -0.10057623249E+03 -0.61756721341E+02  0.25325898266E+03  0.17101577536E+03 0.  0.
        -24    2    3    3    0    0  0.50562350159E+02 -0.14308132803E+02 -0.75061375844E+02  0.12472803319E+03  0.84626226448E+02 0.  0.
          6    2    1    2  501    0 -0.14479035086E+03  0.10057623249E+03  0.60914127410E+02  0.25438150743E+03  0.17297281914E+03 0.  0.
         24    2    5    5    0    0 -0.15288584348E+03  0.41698419770E+02  0.13611001176E+02  0.17827756809E+03  0.80528209851E+02 0.  0.
          5    1    5    5  501    0  0.80954926237E+01  0.58877812718E+02  0.47303126234E+02  0.76103939339E+02  0.47000000000E+01 0. -1.
        -11    1    6    6    0    0 -0.17653253101E+02  0.60575318587E+01  0.32179222570E+02  0.37199911324E+02  0.00000000000E+00 0.  1.
         12    1    6    6    0    0 -0.13523259038E+03  0.35640887911E+02 -0.18568221394E+02  0.14107765677E+03  0.00000000000E+00 0. -1.
         -5    1    3    3    0  503  0.94228000702E+02 -0.86268099685E+02  0.13304654502E+02  0.12853094947E+03  0.47000000000E+01 0.  1.
         11    1    4    4    0    0 -0.20172931168E+02 -0.68785681372E+01  0.11277293175E-01  0.21313422501E+02  0.00000000000E+00 0. -1.
        -12    1    4    4    0    0  0.70735281327E+02 -0.74295646660E+01 -0.75072653137E+02  0.10341461069E+03  0.00000000000E+00 0.  1.
</event>
<event>
12    1  0.8133495E-002  0.2137141E+03  0.7818608E-02  0.1139136E+00
         21   -1    0    0  501  502  0.00000000000E+00  0.00000000000E+00  0.54523775838E+03  0.54523775838E+03  0.00000000000E+00 0. -1.
         21   -1    0    0  502  503 -0.00000000000E+00 -0.00000000000E+00 -0.88804535723E+02  0.88804535723E+02  0.00000000000E+00 0. -1.
         -6    2    1    2    0  503  0.71677288846E+02 -0.11046894766E+03  0.31181335148E+03  0.37802286921E+03  0.16832320503E+03 0.  0.
        -24    2    3    3    0    0  0.20364625372E+02 -0.87491596160E+02  0.91600285590E+02  0.15069748017E+03  0.79054543471E+02 0.  0.
          6    2    1    2  501    0 -0.71677288846E+02  0.11046894766E+03  0.14461987119E+03  0.25601942490E+03  0.16519690267E+03 0.  0.
         24    2    5    5    0    0 -0.53501548258E+02  0.64060703855E+02  0.56048411892E+01  0.10826506387E+03  0.68729326824E+02 0.  0.
          5    1    5    5  501    0 -0.18175740588E+02  0.46408243802E+02  0.13901503000E+03  0.14775436103E+03  0.47000000000E+01 0. -1.
        -13    1    6    6    0    0 -0.10892481698E+02 -0.13277983377E+02 -0.79609392856E+01  0.18929541844E+02  0.00000000000E+00 0.  1.
         14    1    6    6    0    0 -0.42609066560E+02  0.77338687232E+02  0.13565780475E+02  0.89335522027E+02  0.00000000000E+00 0. -1.
         -5    1    3    3    0  503  0.51312663474E+02 -0.22977351497E+02  0.22021306589E+03  0.22732538904E+03  0.47000000000E+01 0.  1.
         11    1    4    4    0    0  0.28428154681E+02 -0.73865900705E+02  0.10392574492E+03  0.13063265948E+03  0.00000000000E+00 0. -1.
        -12    1    4    4    0    0 -0.80635293091E+01 -0.13625695455E+02 -0.12325459330E+02  0.20064820688E+02  0.00000000000E+00 0.  1.
</event>
<event>
12    1  0.8133495E-002  0.1849036E+03  0.7818608E-02  0.1163300E+00
         21   -1    0    0  503  502  0.00000000000E+00  0.00000000000E+00  0.48772235636E+03  0.48772235636E+03  0.00000000000E+00 0.  1.
         21   -1    0    0  501  503 -0.00000000000E+00 -0.00000000000E+00 -0.72392000088E+02  0.72392000088E+02  0.00000000000E+00 0.  1.
          6    2    1    2  501    0 -0.61766219996E+02  0.20826151840E+02  0.25986502693E+03  0.31853867499E+03  0.17230281690E+03 0.  0.
         24    2    3    3    0    0 -0.89980129594E+02 -0.28097163349E+02  0.19134483710E+03  0.22961948764E+03  0.85008164972E+02 0.  0.
         -6    2    1    2    0  502  0.61766219996E+02 -0.20826151840E+02  0.15546532934E+03  0.24157568146E+03  0.17303336878E+03 0.  0.
        -24    2    5    5    0    0  0.14211373274E+02 -0.73852641349E+02  0.67485864424E+02  0.12828072003E+03  0.79028004347E+02 0.  0.
          5    1    3    3  501    0  0.28213909598E+02  0.48923315189E+02  0.68520189832E+02  0.88919187347E+02  0.47000000000E+01 0. -1.
        -13    1    4    4    0    0 -0.76538551416E+02 -0.56694818209E+02  0.13996738315E+03  0.16930245306E+03  0.00000000000E+00 0.  1.
         14    1    4    4    0    0 -0.13441578177E+02  0.28597654860E+02  0.51377453945E+02  0.60317034586E+02  0.00000000000E+00 0. -1.
         -5    1    5    5    0  502  0.47554846722E+02  0.53026489509E+02  0.87979464920E+02  0.11329496142E+03  0.47000000000E+01 0.  1.
         13    1    6    6    0    0 -0.28963111153E+02 -0.37036816272E+02  0.50620635171E+02  0.69087164310E+02  0.00000000000E+00 0. -1.
        -14    1    6    6    0    0  0.43174484427E+02 -0.36815825076E+02  0.16865229253E+02  0.59193555725E+02  0.00000000000E+00 0.  1.
</event>
<event>
12    1  0.8133495E-002  0.1883265E+03  0.7818608E-02  0.1160206E+00
         21   -1    0    0  501  502  0.00000000000E+00  0.00000000000E+00  0.35482843831E+03  0.35482843831E+03  0.00000000000E+00 0. -1.
         21   -1    0    0  502  503 -0.00000000000E+00 -0.00000000000E+00 -0.12307748621E+03  0.12307748621E+03  0.00000000000E+00 0. -1.
         -6    2    1    2    0  503 -0.32970643971E+02 -0.67395941386E+02  0.10888307908E+02  0.18765227197E+03  0.17165530475E+03 0.  0.
        -24    2    3    3    0    0 -0.57657667141E+02 -0.86738310132E+02  0.45569063519E+02  0.14065843034E+03  0.82827009183E+02 0.  0.
          6    2    1    2  501    0  0.32970643971E+02  0.67395941386E+02  0.22086264419E+03  0.29025365255E+03  0.17273563310E+03 0.  0.
         24    2    5    5    0    0 -0.38070455385E+02  0.69993720096E+02  0.10787696625E+03  0.15668180046E+03  0.81013988436E+02 0.  0.
          5    1    5    5  501    0  0.71041099356E+02 -0.25977787102E+01  0.11298567794E+03  0.13357185209E+03  0.47000000000E+01 0. -1.
        -13    1    6    6    0    0 -0.27066176278E+02  0.41283434272E+02  0.53621409214E+01  0.49655336056E+02  0.00000000000E+00 0.  1.
         14    1    6    6    0    0 -0.11004279107E+02  0.28710285824E+02  0.10251482533E+03  0.10702646441E+03  0.00000000000E+00 0. -1.
         -5    1    3    3    0  503  0.24687023170E+02  0.19342368746E+02 -0.34680755611E+02  0.46993841634E+02  0.47000000000E+01 0.  1.
         11    1    4    4    0    0 -0.16440542368E+02 -0.79153871438E+00 -0.19295964053E+02  0.25362416991E+02  0.00000000000E+00 0. -1.
        -12    1    4    4    0    0 -0.41217124773E+02 -0.85946771417E+02  0.64865027572E+02  0.11529601335E+03  0.00000000000E+00 0.  1.
</event>
<event>
12    1  0.8133495E-002  0.1993515E+03  0.7818608E-02  0.1150366E+00
         21   -1    0    0  501  502  0.00000000000E+00  0.00000000000E+00  0.82504925949E+03  0.82504925949E+03  0.00000000000E+00 0.  1.
         21   -1    0    0  502  503 -0.00000000000E+00 -0.00000000000E+00 -0.66179299730E+02  0.66179299730E+02  0.00000000000E+00 0. -1.
         -6    2    1    2    0  503 -0.92888928614E+02  0.42758243637E+02  0.61274444459E+03  0.64435763447E+03  0.17112681341E+03 0.  0.
        -24    2    3    3    0    0 -0.16550057920E+01 -0.23547225595E+02  0.19352082750E+03  0.21020262177E+03  0.78597841240E+02 0.  0.
          6    2    1    2  501    0  0.92888928614E+02 -0.42758243637E+02  0.14612551517E+03  0.24687092475E+03  0.17069260923E+03 0.  0.
         24    2    5    5    0    0  0.11923047698E+03 -0.35303159724E+02  0.59283976193E+02  0.15569527922E+03  0.72554878611E+02 0.  0.
          5    1    5    5  501    0 -0.26341548362E+02 -0.74550839136E+01  0.86841538979E+02  0.91175645533E+02  0.47000000000E+01 0. -1.
        -13    1    6    6    0    0  0.43672754971E+02 -0.44092282733E+02  0.48717672258E+02  0.78897721853E+02  0.00000000000E+00 0.  1.
         14    1    6    6    0    0  0.75557722006E+02  0.87891230094E+01  0.10566303934E+02  0.76797557362E+02  0.00000000000E+00 0. -1.
         -5    1    3    3    0  503 -0.91233922822E+02  0.66305469232E+02  0.41922361709E+03  0.43415501270E+03  0.47000000000E+01 0.  1.
         11    1    4    4    0    0 -0.34107788417E+02  0.56909491009E+01  0.55087779254E+02  0.65041460282E+02  0.00000000000E+00 0. -1.
        -12    1    4    4    0    0  0.32452782625E+02 -0.29238174696E+02  0.13843304824E+03  0.14516116149E+03  0.00000000000E+00 0.  1.
</event>
<event>
12    1  0.8133495E-002  0.1787619E+03  0.7818608E-02  0.1169138E+00
         21   -1    0    0  503  502  0.00000000000E+00  0.00000000000E+00  0.32310432419E+03  0.32310432419E+03  0.00000000000E+00 0. -1.
         21   -1    0    0  501  503 -0.00000000000E+00 -0.00000000000E+00 -0.13343945066E+03  0.13343945066E+03  0.00000000000E+00 0. -1.
          6    2    1    2  501    0  0.25199004937E+02 -0.40731170817E+02 -0.21692959172E+02  0.18007329606E+03  0.17222598338E+03 0.  0.
         24    2    3    3    0    0  0.10884205468E+02 -0.80070373025E+02  0.26093208098E+02  0.11637012427E+03  0.79570218975E+02 0.  0.
         -6    2    1    2    0  502 -0.25199004937E+02  0.40731170817E+02  0.21135783270E+03  0.27647047879E+03  0.17166762674E+03 0.  0.
        -24    2    5    5    0    0  0.36349335632E+02  0.63240524487E+02  0.99921650794E+02  0.14710672085E+03  0.79595306915E+02 0.  0.
          5    1    3    3  501    0  0.14314799469E+02  0.39339202207E+02 -0.47786167270E+02  0.63703171793E+02  0.47000000000E+01 0. -1.
        -13    1    4    4    0    0  0.33705255997E+02 -0.31612199279E+02  0.39904376727E+02  0.61055177561E+02  0.00000000000E+00 0.  1.
         14    1    4    4    0    0 -0.22821050529E+02 -0.48458173746E+02 -0.13811168629E+02  0.55314946705E+02  0.00000000000E+00 0. -1.
         -5    1    5    5    0  502 -0.61548340569E+02 -0.22509353670E+02  0.11143618191E+03  0.12936375794E+03  0.47000000000E+01 0.  1.
         13    1    6    6    0    0  0.51586793141E+02  0.99525867402E+01  0.49002479664E+02  0.71843539881E+02  0.00000000000E+00 0. -1.
        -14    1    6    6    0    0 -0.15237457509E+02  0.53287937747E+02  0.50919171130E+02  0.75263180967E+02  0.00000000000E+00 0.  1.
</event>
<event>
12    1  0.8133495E-002  0.1931898E+03  0.7818608E-02  0.1155855E+00
         21   -1    0    0  503  502  0.00000000000E+00  0.00000000000E+00  0.10484121392E+03  0.10484121392E+03  0.00000000000E+00 0.  1.
         21   -1    0    0  501  503 -0.00000000000E+00 -0.00000000000E+00 -0.36693392952E+03  0.36693392952E+03  0.00000000000E+00 0.  1.
          6    2    1    2  501    0 -0.22306388604E+02 -0.83461486343E+02 -0.87103666307E+02  0.21191821304E+03  0.17279723857E+03 0.  0.
         24    2    3    3    0    0 -0.15248240038E+02 -0.10294024228E+03 -0.78997750323E+01  0.12991464124E+03  0.77370571015E+02 0.  0.
         -6    2    1    2    0  502  0.22306388604E+02  0.83461486343E+02 -0.17498904929E+03  0.25985693040E+03  0.17158398010E+03 0.  0.
        -24    2    5    5    0    0  0.64644216661E+02  0.90586325857E+02 -0.87508604255E+02  0.16229580450E+03  0.79356254691E+02 0.  0.
          5    1    3    3  501    0 -0.70581485657E+01  0.19478755936E+02 -0.79203891274E+02  0.82003571794E+02  0.47000000000E+01 0. -1.
        -11    1    4    4    0    0 -0.25038456724E+02 -0.97341146166E+02 -0.30179506786E+02  0.10494296395E+03  0.00000000000E+00 0.  1.
         12    1    4    4    0    0  0.97902166859E+01 -0.55990961133E+01  0.22279731753E+02  0.24971677297E+02  0.00000000000E+00 0. -1.
         -5    1    5    5    0  502 -0.42337828057E+02 -0.71248395149E+01 -0.87480445038E+02  0.97561125900E+02  0.47000000000E+01 0.  1.
         13    1    6    6    0    0  0.46791415988E+02  0.96938986925E+01 -0.56123539355E+02  0.73710650192E+02  0.00000000000E+00 0. -1.
        -14    1    6    6    0    0  0.17852800673E+02  0.80892427165E+02 -0.31385064900E+02  0.88585154305E+02  0.00000000000E+00 0.  1.
</event>
<event>
12    1  0.8133495E-002  0.5932899E+03  0.7818608E-02  0.9919453E-01
         21   -1    0    0  501  502  0.00000000000E+00  0.00000000000E+00  0.53176318834E+03  0.53176318834E+03  0.00000000000E+00 0.  1.
         21   -1    0    0  502  503 -0.00000000000E+00 -0.00000000000E+00 -0.70722336058E+03  0.70722336058E+03  0.00000000000E+00 0.  1.
         -6    2    1    2    0  503  0.43871066255E+03  0.36029286975E+03  0.69137166624E+02  0.59725391032E+03  0.17220420481E+03 0.  0.
        -24    2    3    3    0    0  0.21497523133E+03  0.15421741512E+03  0.95364902422E+02  0.29191046384E+03  0.78229745444E+02 0.  0.
          6    2    1    2  501    0 -0.43871066255E+03 -0.36029286975E+03 -0.24459733886E+03  0.64173263860E+03  0.17238017240E+03 0.  0.
         24    2    5    5    0    0 -0.41794800287E+03 -0.37238101345E+03 -0.24672812656E+03  0.61715945177E+03  0.81626393935E+02 0.  0.
          5    1    5    5  501    0 -0.20762659679E+02  0.12088143695E+02  0.21307877013E+01  0.24573186834E+02  0.47000000000E+01 0. -1.
        -11    1    6    6    0    0 -0.29902557186E+03 -0.31252036240E+03 -0.18628155352E+03  0.47094170204E+03  0.00000000000E+00 0.  1.
         12    1    6    6    0    0 -0.11892243101E+03 -0.59860651047E+02 -0.60446573048E+02  0.14621774973E+03  0.00000000000E+00 0. -1.
         -5    1    3    3    0  503  0.22373543122E+03  0.20607545463E+03 -0.26227735798E+02  0.30534344648E+03  0.47000000000E+01 0.  1.
         13    1    4    4    0    0  0.14417212437E+03  0.97154678077E+02  0.22336788892E+02  0.17528138822E+03  0.00000000000E+00 0. -1.
        -14    1    4    4    0    0  0.70803106960E+02  0.57062737039E+02  0.73028113530E+02  0.11662907562E+03  0.00000000000E+00 0.  1.
</event>
<event>
12    1  0.8133495E-002  0.1928252E+03  0.7818608E-02  0.1156060E+00
         21   -1    0    0  501  502  0.00000000000E+00  0.00000000000E+00  0.12173274103E+04  0.12173274103E+04  0.00000000000E+00 0.  1.
         21   -1    0    0  502  503 -0.00000000000E+00 -0.00000000000E+00 -0.60907879837E+02  0.60907879837E+02  0.00000000000E+00 0. -1.
         -6    2    1    2    0  503  0.10786126656E+02 -0.86421415093E+02  0.12588459759E+03  0.22981562653E+03  0.17141554414E+03 0.  0.
        -24    2    3    3    0    0  0.13716631400E+02 -0.94963888682E+02  0.25942673459E+02  0.12935648104E+03  0.82787624386E+02 0.  0.
          6    2    1    2  501    0 -0.10786126656E+02  0.86421415093E+02  0.10305349329E+04  0.10484196636E+04  0.17203645441E+03 0.  0.
         24    2    5    5    0    0  0.46570594297E+02  0.80888847617E+01  0.39246191158E+03  0.40298566292E+03  0.78337999480E+02 0.  0.
          5    1    5    5  501    0 -0.57356720953E+02  0.78332530331E+02  0.63807302129E+03  0.64543400069E+03  0.47000000000E+01 0. -1.
        -13    1    6    6    0    0  0.13957466666E+02 -0.18285760084E+02  0.30624379117E+03  0.30710656054E+03  0.00000000000E+00 0.  1.
         14    1    6    6    0    0  0.32613127631E+02  0.26374644846E+02  0.86218120417E+02  0.95879102378E+02  0.00000000000E+00 0. -1.
         -5    1    3    3    0  503 -0.29305047442E+01  0.85424735894E+01  0.99941924131E+02  0.10045914549E+03  0.47000000000E+01 0.  1.
         13    1    4    4    0    0 -0.17328248809E+01 -0.22297509297E+01 -0.23133801591E+02  0.23305519675E+02  0.00000000000E+00 0. -1.
        -14    1    4    4    0    0  0.15449456281E+02 -0.92734137753E+02  0.49076475050E+02  0.10605096137E+03  0.00000000000E+00 0.  1.
</event>
<event>
12    1  0.8133495E-002  0.2171203E+03  0.7818608E-02  0.1136076E+00
         21   -1    0    0  503  502  0.00000000000E+00  0.00000000000E+00  0.23661429356E+03  0.23661429356E+03  0.00000000000E+00 0.  1.
         21   -1    0    0  501  503 -0.00000000000E+00 -0.00000000000E+00 -0.21860082450E+03  0.21860082450E+03  0.00000000000E+00 0.  1.
          6    2    1    2  501    0 -0.11016610879E+03 -0.74952425593E+02 -0.58978047119E+02  0.22498810931E+03  0.17142579053E+03 0.  0.
         24    2    3    3    0    0 -0.10606565061E+03 -0.10380667598E+03 -0.12881761694E+02  0.17024928348E+03  0.82420449669E+02 0.  0.
         -6    2    1    2    0  502  0.11016610879E+03  0.74952425593E+02  0.76991516185E+02  0.23022700875E+03  0.17123768384E+03 0.  0.
        -24    2    5    5    0    0  0.33351321319E+02 -0.24124645592E+02  0.16740347375E+02  0.91054199082E+02  0.79475271510E+02 0.  0.
          5    1    3    3  501    0 -0.41004581810E+01  0.28854250389E+02 -0.46096285425E+02  0.54738825826E+02  0.47000000000E+01 0. -1.
        -11    1    4    4    0    0 -0.53391668288E+02 -0.54552813327E-01 -0.31076800876E+01  0.53482061424E+02  0.00000000000E+00 0.  1.
         12    1    4    4    0    0 -0.52673982321E+02 -0.10375212317E+03 -0.97740816059E+01  0.11676722206E+03  0.00000000000E+00 0. -1.
         -5    1    5    5    0  502  0.76814787472E+02  0.99077071186E+02  0.60251168810E+02  0.13917280967E+03  0.47000000000E+01 0.  1.
         11    1    6    6    0    0  0.20954772817E+02 -0.48406874182E+02  0.30058986351E+02  0.60711371524E+02  0.00000000000E+00 0. -1.
        -12    1    6    6    0    0  0.12396548502E+02  0.24282228590E+02 -0.13318638975E+02  0.30342827558E+02  0.00000000000E+00 0.  1.
</event>
<event>
12    1  0.8133495E-002  0.3666433E+03  0.7818608E-02  0.1056037E+00
         21   -1    0    0  501  502  0.00000000000E+00  0.00000000000E+00  0.29983498029E+03  0.29983498029E+03  0.00000000000E+00 0.  1.
         21   -1    0    0  502  503 -0.00000000000E+00 -0.00000000000E+00 -0.99772897049E+03  0.99772897049E+03  0.00000000000E+00 0. -1.
         -6    2    1    2    0  503 -0.12282927186E+03 -0.29918975441E+03 -0.83055474688E+03  0.90765860062E+03  0.17152669921E+03 0.  0.
        -24    2    3    3    0    0 -0.23539587287E+02 -0.10504863044E+03 -0.20039612101E+03  0.24082188804E+03  0.79039544017E+02 0.  0.
          6    2    1    2  501    0  0.12282927186E+03  0.29918975441E+03  0.13266075669E+03  0.38990535016E+03  0.17270137969E+03 0.  0.
         24    2    5    5    0    0  0.14104295127E+03  0.28791467169E+03  0.91099876562E+02  0.34291319800E+03  0.80636849984E+02 0.  0.
          5    1    5    5  501    0 -0.18213679409E+02  0.11275082722E+02  0.41560880124E+02  0.46992152160E+02  0.47000000000E+01 0. -1.
        -13    1    6    6    0    0  0.12297712470E+03  0.20078303887E+03  0.35832233014E+02  0.23816202640E+03  0.00000000000E+00 0.  1.
         14    1    6    6    0    0  0.18065826569E+02  0.87131632820E+02  0.55267643548E+02  0.10475117160E+03  0.00000000000E+00 0. -1.
         -5    1    3    3    0  503 -0.99289684575E+02 -0.19414112397E+03 -0.63015862587E+03  0.66683671258E+03  0.47000000000E+01 0.  1.
         11    1    4    4    0    0 -0.50139719110E+02 -0.43562128298E+02 -0.94262674654E+02  0.11531306208E+03  0.00000000000E+00 0. -1.
        -12    1    4    4    0    0  0.26600131823E+02 -0.61486502137E+02 -0.10613344636E+03  0.12550882596E+03  0.00000000000E+00 0.  1.
</event>
<event>
12    1  0.8133495E-002  0.1757122E+03  0.7818608E-02  0.1172975E+00
         21   -1    0    0  501  502  0.00000000000E+00  0.00000000000E+00  0.39967650940E+02  0.39967650940E+02  0.00000000000E+00 0.  1.
         21   -1    0    0  502  503 -0.00000000000E+00 -0.00000000000E+00 -0.10121579821E+04  0.10121579821E+04  0.00000000000E+00 0.  1.
         -6    2    1    2    0  503  0.18433204767E+02 -0.85204188453E+00 -0.75471624753E+03  0.77490089301E+03  0.17474058115E+03 0.  0.
        -24    2    3    3    0    0 -0.21649226943E+02  0.60065612669E+02 -0.44880932607E+03  0.46038746474E+03  0.80313384142E+02 0.  0.
          6    2    1    2  501    0 -0.18433204767E+02  0.85204188453E+00 -0.21747408364E+03  0.27722474004E+03  0.17093294129E+03 0.  0.
         24    2    5    5    0    0  0.20349095281E+00 -0.60787697721E+02 -0.91092576063E+02  0.13530518753E+03  0.79463518392E+02 0.  0.
          5    1    5    5  501    0 -0.18636695720E+02  0.61639739605E+02 -0.12638150758E+03  0.14191955251E+03  0.47000000000E+01 0. -1.
        -11    1    6    6    0    0  0.20667060724E+02  0.80465043405E+01 -0.41889716789E+01  0.22570359208E+02  0.00000000000E+00 0.  1.
         12    1    6    6    0    0 -0.20463569771E+02 -0.68834202061E+02 -0.86903604385E+02  0.11273482832E+03  0.00000000000E+00 0. -1.
         -5    1    3    3    0  503  0.40082431711E+02 -0.60917654553E+02 -0.30590692146E+03  0.31451342828E+03  0.47000000000E+01 0.  1.
         13    1    4    4    0    0 -0.23779241257E+02  0.72043222372E+02 -0.25125838761E+03  0.26246229357E+03  0.00000000000E+00 0. -1.
        -14    1    4    4    0    0  0.21300143138E+01 -0.11977609703E+02 -0.19755093846E+03  0.19792517116E+03  0.00000000000E+00 0.  1.
</event>
<event>
12    1  0.8133495E-002  0.2259931E+03  0.7818608E-02  0.1129497E+00
         21   -1    0    0  503  502  0.00000000000E+00  0.00000000000E+00  0.19843634172E+03  0.19843634172E+03  0.00000000000E+00 0. -1.
         21   -1    0    0  501  503 -0.00000000000E+00 -0.00000000000E+00 -0.27560415919E+03  0.27560415919E+03  0.00000000000E+00 0.  1.
          6    2    1    2  501    0 -0.42868864822E+02  0.13932029050E+03  0.22419331747E+02  0.22710239421E+03  0.17269912596E+03 0.  0.
         24    2    3    3    0    0 -0.25847574209E+02  0.12720113327E+01 -0.10531294367E+02  0.84081817108E+02  0.79304027021E+02 0.  0.
         -6    2    1    2    0  502  0.42868864822E+02 -0.13932029050E+03 -0.99587149219E+02  0.24693810669E+03  0.17266425609E+03 0.  0.
        -24    2    5    5    0    0 -0.24796776391E+02 -0.13063846388E+03 -0.52405919285E+02  0.16385879776E+03  0.80137612042E+02 0.  0.
          5    1    3    3  501    0 -0.17021290613E+02  0.13804827917E+03  0.32950626114E+02  0.14302057711E+03  0.47000000000E+01 0. -1.
        -11    1    4    4    0    0 -0.41200585007E+02  0.87251511906E+01  0.21874714965E+02  0.47456502432E+02  0.00000000000E+00 0.  1.
         12    1    4    4    0    0  0.15353010798E+02 -0.74531398578E+01 -0.32406009332E+02  0.36625314676E+02  0.00000000000E+00 0. -1.
         -5    1    5    5    0  502  0.67665641213E+02 -0.86818266231E+01 -0.47181229934E+02  0.83079308930E+02  0.47000000000E+01 0.  1.
         13    1    6    6    0    0  0.67500387205E+00 -0.48949306351E+02  0.18898778916E+02  0.52475271004E+02  0.00000000000E+00 0. -1.
        -14    1    6    6    0    0 -0.25471780263E+02 -0.81689157525E+02 -0.71304698201E+02  0.11138352676E+03  0.00000000000E+00 0.  1.
</event>
<event>
12    1  0.8133495E-002  0.2098371E+03  0.7818608E-02  0.1141726E+00
         21   -1    0    0  503  502  0.00000000000E+00  0.00000000000E+00  0.91284561140E+02  0.91284561140E+02  0.00000000000E+00 0.  1.
         21   -1    0    0  501  503 -0.00000000000E+00 -0.00000000000E+00 -0.75375537505E+03  0.75375537505E+03  0.00000000000E+00 0. -1.
          6    2    1    2  501    0  0.11902315861E+03  0.22597793151E+02 -0.58485893220E+03  0.62130973644E+03  0.17113925759E+03 0.  0.
         24    2    3    3    0    0  0.93465694797E+02 -0.47807133804E+02 -0.33047334873E+03  0.35608501517E+03  0.81009540581E+02 0.  0.
         -6    2    1    2    0  502 -0.11902315861E+03 -0.22597793151E+02 -0.77611881716E+02  0.22373019975E+03  0.17133133267E+03 0.  0.
        -24    2    5    5    0    0 -0.13195582275E+03 -0.19141722896E+02 -0.10808433374E+03  0.19011683105E+03  0.81752318245E+02 0.  0.
          5    1    3    3  501    0  0.25557463814E+02  0.70404926955E+02 -0.25438558347E+03  0.26522472127E+03  0.47000000000E+01 0. -1.
        -11    1    4    4    0    0  0.22052037557E+02 -0.25676269490E+02 -0.26314295586E+02  0.42871964353E+02  0.00000000000E+00 0.  1.
         12    1    4    4    0    0  0.71413657240E+02 -0.22130864314E+02 -0.30415905314E+03  0.31321305082E+03  0.00000000000E+00 0. -1.
         -5    1    5    5    0  502  0.12932664134E+02 -0.34560702545E+01  0.30472452019E+02  0.33613368698E+02  0.47000000000E+01 0.  1.
         13    1    6    6    0    0 -0.93322275927E+00  0.19289717970E+02 -0.18945408026E+02  0.27053513807E+02  0.00000000000E+00 0. -1.
        -14    1    6    6    0    0 -0.13102259999E+03 -0.38431440866E+02 -0.89138925709E+02  0.16306331724E+03  0.00000000000E+00 0.  1.
</event>
<event>
12    1  0.8133495E-002  0.2051289E+03  0.7818608E-02  0.1145677E+00
         21   -1    0    0  501  502  0.00000000000E+00  0.00000000000E+00  0.17430845370E+03  0.17430845370E+03  0.00000000000E+00 0.  1.
         21   -1    0    0  502  503 -0.00000000000E+00 -0.00000000000E+00 -0.24911022751E+03  0.24911022751E+03  0.00000000000E+00 0. -1.
         -6    2    1    2    0  503  0.98812711142E+02  0.50672348440E+02 -0.77337213450E+02  0.21922337946E+03  0.17247088664E+03 0.  0.
        -24    2    3    3    0    0  0.64456859258E+02 -0.24773807304E+02 -0.83165120473E+02  0.13598575891E+03  0.82506127822E+02 0.  0.
          6    2    1    2  501    0 -0.98812711142E+02 -0.50672348440E+02  0.25354396343E+01  0.20419530175E+03  0.17134075412E+03 0.  0.
         24    2    5    5    0    0 -0.28838502375E+02  0.23676465857E+02 -0.36048321600E+02  0.94948184120E+02  0.79520072453E+02 0.  0.
          5    1    5    5  501    0 -0.69974208767E+02 -0.74348814297E+02  0.38583761234E+02  0.10924711763E+03  0.47000000000E+01 0. -1.
        -13    1    6    6    0    0 -0.33875033739E+02  0.95240395687E+01  0.17523361139E+02  0.39310220377E+02  0.00000000000E+00 0.  1.
         14    1    6    6    0    0  0.50365313642E+01  0.14152426289E+02 -0.53571682738E+02  0.55637963743E+02  0.00000000000E+00 0. -1.
         -5    1    3    3    0  503  0.34355851884E+02  0.75446155744E+02  0.58279070232E+01  0.83237620554E+02  0.47000000000E+01 0.  1.
         11    1    4    4    0    0 -0.58271847710E+01 -0.56490618536E+01 -0.58534510069E+02  0.59094473948E+02  0.00000000000E+00 0. -1.
        -12    1    4    4    0    0  0.70284044029E+02 -0.19124745451E+02 -0.24630610404E+02  0.76891284958E+02  0.00000000000E+00 0.  1.
</event>
<event>
12    1  0.8133495E-002  0.3081060E+03  0.7818608E-02  0.1081325E+00
         21   -1    0    0  501  502  0.00000000000E+00  0.00000000000E+00  0.19519849556E+03  0.19519849556E+03  0.00000000000E+00 0.  1.
         21   -1    0    0  502  503 -0.00000000000E+00 -0.00000000000E+00 -0.48548824034E+03  0.48548824034E+03  0.00000000000E+00 0. -1.
         -6    2    1    2    0  503  0.23749985881E+03  0.94094232201E+02 -0.14204695763E+03  0.33927370360E+03  0.17224807783E+03 0.  0.
        -24    2    3    3    0    0  0.79340546393E+02 -0.19441137863E+02 -0.59973506091E+02  0.12793797589E+03  0.78092407434E+02 0.  0.
          6    2    1    2  501    0 -0.23749985881E+03 -0.94094232201E+02 -0.14824278715E+03  0.34141303230E+03  0.17125135684E+03 0.  0.
         24    2    5    5    0    0 -0.87100972607E+02 -0.21170911997E+01 -0.26421062937E+02  0.12707161790E+03  0.88645710589E+02 0.  0.
          5    1    5    5  501    0 -0.15039888620E+03 -0.91977141002E+02 -0.12182172421E+03  0.21434141440E+03  0.47000000000E+01 0. -1.
        -11    1    6    6    0    0 -0.28199154092E+02 -0.16381379709E+02  0.29968625093E+02  0.44290635383E+02  0.00000000000E+00 0.  1.
         12    1    6    6    0    0 -0.58901818514E+02  0.14264288509E+02 -0.56389688030E+02  0.82780982521E+02  0.00000000000E+00 0. -1.
         -5    1    3    3    0  503  0.15815931241E+03  0.11353537006E+03 -0.82073451543E+02  0.21133572771E+03  0.47000000000E+01 0.  1.
         11    1    4    4    0    0  0.92445797674E+02 -0.38705208494E+01 -0.46739994705E+02  0.10366211239E+03  0.00000000000E+00 0. -1.
        -12    1    4    4    0    0 -0.13105251281E+02 -0.15570617014E+02 -0.13233511386E+02  0.24275863506E+02  0.00000000000E+00 0.  1.
</event>
<event>
12    1  0.8133495E-002  0.2320212E+03  0.7818608E-02  0.1125529E+00
         21   -1    0    0  503  502  0.00000000000E+00  0.00000000000E+00  0.25743626752E+03  0.25743626752E+03  0.00000000000E+00 0.  1.
         21   -1    0    0  501  503 -0.00000000000E+00 -0.00000000000E+00 -0.21010901569E+03  0.21010901569E+03  0.00000000000E+00 0.  1.
          6    2    1    2  501    0 -0.66545673327E+02 -0.13802071169E+03 -0.20430022385E+01  0.23203018372E+03  0.17422912731E+03 0.  0.
         24    2    3    3    0    0 -0.45690872365E+02 -0.78044470877E+02 -0.68717619012E+02  0.13983654670E+03  0.81569316396E+02 0.  0.
         -6    2    1    2    0  502  0.66545673327E+02  0.13802071169E+03  0.49370254070E+02  0.23551509949E+03  0.17190665085E+03 0.  0.
        -24    2    5    5    0    0  0.13721735997E+02  0.94328911756E+02 -0.33586377760E+02  0.12779678860E+03  0.78216013538E+02 0.  0.
          5    1    3    3  501    0 -0.20854800962E+02 -0.59976240817E+02  0.66674616773E+02  0.92193637023E+02  0.47000000000E+01 0. -1.
        -13    1    4    4    0    0  0.21402666178E+02 -0.14909906817E+02 -0.21435191210E+01  0.26172010145E+02  0.00000000000E+00 0.  1.
         14    1    4    4    0    0 -0.67093538542E+02 -0.63134564060E+02 -0.66574099891E+02  0.11366453655E+03  0.00000000000E+00 0. -1.
         -5    1    5    5    0  502  0.52823937330E+02  0.43691799938E+02  0.82956631829E+02  0.10771831089E+03  0.47000000000E+01 0.  1.
         11    1    6    6    0    0  0.46353040808E+02  0.54234766227E+02 -0.23599858398E+02  0.75146307801E+02  0.00000000000E+00 0. -1.
        -12    1    6    6    0    0 -0.32631304811E+02  0.40094145529E+02 -0.99865193612E+01  0.52650480799E+02  0.00000000000E+00 0.  1.
</event>
<event>
12    1  0.8133495E-002  0.1834709E+03  0.7818608E-02  0.1164574E+00
         21   -1    0    0  501  502  0.00000000000E+00  0.00000000000E+00  0.18029517805E+03  0.18029517805E+03  0.00000000000E+00 0.  1.
         21   -1    0    0  502  503 -0.00000000000E+00 -0.00000000000E+00 -0.20028215889E+03  0.20028215889E+03  0.00000000000E+00 0.  1.
         -6    2    1    2    0  503 -0.59282489853E+02 -0.21147204898E+02 -0.60224646789E+02  0.19274588053E+03  0.17193704808E+03 0.  0.
        -24    2    3    3    0    0 -0.46618263820E+02 -0.68990120206E+02 -0.43237968119E+00  0.11498642855E+03  0.79301907863E+02 0.  0.
          6    2    1    2  501    0  0.59282489853E+02  0.21147204898E+02  0.40237665956E+02  0.18783145641E+03  0.17233678765E+03 0.  0.
         24    2    5    5    0    0  0.10433805153E+03  0.66279238054E+00  0.45176831345E+02  0.13787047014E+03  0.77977254086E+02 0.  0.
          5    1    5    5  501    0 -0.45055561681E+02  0.20484412518E+02 -0.49391653896E+01  0.49960986272E+02  0.47000000000E+01 0. -1.
        -13    1    6    6    0    0  0.13858251426E+02 -0.14286299287E+02  0.41574563873E+02  0.46093316665E+02  0.00000000000E+00 0.  1.
         14    1    6    6    0    0  0.90479800107E+02  0.14949091667E+02  0.36022674717E+01  0.91777153476E+02  0.00000000000E+00 0. -1.
         -5    1    3    3    0  503 -0.12664226033E+02  0.47842915308E+02 -0.59792267107E+02  0.77759451978E+02  0.47000000000E+01 0.  1.
         13    1    4    4    0    0 -0.17526738604E+02 -0.28728339586E+02  0.39038514619E+02  0.51541339574E+02  0.00000000000E+00 0. -1.
        -14    1    4    4    0    0 -0.29091525216E+02 -0.40261780620E+02 -0.39470894300E+02  0.63445088975E+02  0.00000000000E+00 0.  1.
</event>
<event>
12    1  0.8133495E-002  0.2426692E+03  0.7818608E-02  0.1118048E+00
         21   -1    0    0  501  502  0.00000000000E+00  0.00000000000E+00  0.17049769192E+03  0.17049769192E+03  0.00000000000E+00 0. -1.
         21   -1    0    0  502  503 -0.00000000000E+00 -0.00000000000E+00 -0.92512668619E+03  0.92512668619E+03  0.00000000000E+00 0. -1.
         -6    2    1    2    0  503  0.13117960780E+03  0.10978689050E+03 -0.81107293864E+03  0.84659768726E+03  0.17212519122E+03 0.  0.
        -24    2    3    3    0    0  0.38752365585E+02  0.11964811262E+01 -0.23261864784E+03  0.25080734775E+03  0.85379815857E+02 0.  0.
          6    2    1    2  501    0 -0.13117960780E+03 -0.10978689050E+03  0.56443944365E+02  0.24902669086E+03  0.17195093217E+03 0.  0.
         24    2    5    5    0    0 -0.63636793935E+02  0.10529702961E+01 -0.93498459862E+01  0.10342992134E+03  0.80991226183E+02 0.  0.
          5    1    5    5  501    0 -0.67542813865E+02 -0.11083986080E+03  0.65793790351E+02  0.14559676952E+03  0.47000000000E+01 0. -1.
        -13    1    6    6    0    0 -0.85838790171E+01  0.48054977014E+01  0.32639711475E+02  0.34089977300E+02  0.00000000000E+00 0.  1.
         14    1    6    6    0    0 -0.55052914918E+02 -0.37525274053E+01 -0.41989557462E+02  0.69339944035E+02  0.00000000000E+00 0. -1.
         -5    1    3    3    0  503  0.92427242215E+02  0.10859040938E+03 -0.57845429080E+03  0.59579033951E+03  0.47000000000E+01 0.  1.
         11    1    4    4    0    0  0.47000328790E+02 -0.75531252842E+00 -0.23675486330E+03  0.24137619332E+03  0.00000000000E+00 0. -1.
        -12    1    4    4    0    0 -0.82479632051E+01  0.19517936546E+01  0.41362154631E+01  0.94311544288E+01  0.00000000000E+00 0.  1.
</event>
<event>
12    1  0.8133495E-002  0.2457036E+03  0.7818608E-02  0.1116194E+00
         21   -1    0    0  501  502  0.00000000000E+00  0.00000000000E+00  0.24048710968E+04  0.24048710968E+04  0.00000000000E+00 0. -1.
         21   -1    0    0  502  503 -0.00000000000E+00 -0.00000000000E+00 -0.50139348483E+02  0.50139348483E+02  0.00000000000E+00 0.  1.
         -6    2    1    2    0  503 -0.12049440320E+03 -0.12652942055E+03  0.30734950513E+03  0.39293762648E+03  0.17148663076E+03 0.  0.
        -24    2    3    3    0    0 -0.10069073608E+03 -0.45683542715E+02  0.10466147851E+03  0.17377383538E+03  0.83771775506E+02 0.  0.
          6    2    1    2  501    0  0.12049440320E+03  0.12652942055E+03  0.20473822432E+04  0.20620728188E+04  0.17274740192E+03 0.  0.
         24    2    5    5    0    0  0.58514996395E+02 -0.62526490993E+01  0.83492866027E+03  0.84078730525E+03  0.79714017005E+02 0.  0.
          5    1    5    5  501    0  0.61979406809E+02  0.13278206965E+03  0.12124535829E+04  0.12212855136E+04  0.47000000000E+01 0. -1.
        -13    1    6    6    0    0  0.28117987963E+02 -0.29013237795E+02  0.68267342049E+03  0.68386796113E+03  0.00000000000E+00 0.  1.
         14    1    6    6    0    0  0.30397008432E+02  0.22760588696E+02  0.15225523978E+03  0.15691934412E+03  0.00000000000E+00 0. -1.
         -5    1    3    3    0  503 -0.19803667126E+02 -0.80845877833E+02  0.20268802662E+03  0.21916379110E+03  0.47000000000E+01 0.  1.
         11    1    4    4    0    0 -0.36392314225E+01  0.31660753490E+01  0.53433216376E+02  0.53650504664E+02  0.00000000000E+00 0. -1.
        -12    1    4    4    0    0 -0.97051504656E+02 -0.48849618064E+02  0.51228262139E+02  0.12012333072E+03  0.00000000000E+00 0.  1.
</event>
<event>
12    1  0.8133495E-002  0.1808739E+03  0.7818608E-02  0.1168430E+00
         21   -1    0    0  501  502  0.00000000000E+00  0.00000000000E+00  0.74147103982E+03  0.74147103982E+03  0.00000000000E+00 0. -1.
         21   -1    0    0  502  503 -0.00000000000E+00 -0.00000000000E+00 -0.45448585873E+02  0.45448585873E+02  0.00000000000E+00 0. -1.
         -6    2    1    2    0  503  0.15595966871E+02 -0.53671186694E+02  0.24522638287E+03  0.30119081959E+03  0.16569882465E+03 0.  0.
        -24    2    3    3    0    0  0.65370722661E+02 -0.64723564539E+02  0.16811924649E+03  0.20863120718E+03  0.82464709912E+02 0.  0.
          6    2    1    2  501    0 -0.15595966871E+02  0.53671186694E+02  0.45079607108E+03  0.48572880610E+03  0.17202193148E+03 0.  0.
         24    2    5    5    0    0  0.29397967204E+02 -0.26098263218E+02  0.22679336976E+03  0.24368145652E+03  0.80000374143E+02 0.  0.
          5    1    5    5  501    0 -0.44993934075E+02  0.79769449912E+02  0.22400270132E+03  0.24204734958E+03  0.47000000000E+01 0. -1.
        -13    1    6    6    0    0  0.15424739006E+02 -0.19405415181E+02  0.10644023711E+02  0.26977545339E+02  0.00000000000E+00 0.  1.
         14    1    6    6    0    0  0.13973228197E+02 -0.66928480369E+01  0.21614934605E+03  0.21670391118E+03  0.00000000000E+00 0. -1.
         -5    1    3    3    0  503 -0.49774755790E+02  0.11052377845E+02  0.77107136372E+02  0.92559612410E+02  0.47000000000E+01 0.  1.
         13    1    4    4    0    0  0.93195775138E+01 -0.34622997571E+02  0.85708988892E+01  0.36865523103E+02  0.00000000000E+00 0. -1.
        -14    1    4    4    0    0  0.56051145148E+02 -0.30100566968E+02  0.15954834761E+03  0.17176568408E+03  0.00000000000E+00 0.  1.
</event>
<event>
12    1  0.8133495E-002  0.2200883E+03  0.7818608E-02  0.1134411E+00
         21   -1    0    0  503  502  0.00000000000E+00  0.00000000000E+00  0.18887931454E+04  0.18887931454E+04  0.00000000000E+00 0.  1.
         21   -1    0    0  501  503 -0.00000000000E+00 -0.00000000000E+00 -0.26463910148E+02  0.26463910148E+02  0.00000000000E+00 0.  1.
          6    2    1    2  501    0  0.12232018413E+03 -0.63506363621E+02  0.11274218943E+04  0.11481014786E+04  0.16751594499E+03 0.  0.
         24    2    3    3    0    0  0.14723811064E+03 -0.73720100187E+02  0.87100259701E+03  0.89022908868E+03  0.82149814014E+02 0.  0.
         -6    2    1    2    0  502 -0.12232018413E+03  0.63506363621E+02  0.73490734092E+03  0.76715557689E+03  0.17159135683E+03 0.  0.
        -24    2    5    5    0    0 -0.10039205291E+03 -0.22616407948E+02  0.41552777293E+03  0.43560863727E+03  0.80631808787E+02 0.  0.
          5    1    3    3  501    0 -0.24917926505E+02  0.10213736566E+02  0.25641929731E+03  0.25787238997E+03  0.47000000000E+01 0. -1.
        -11    1    4    4    0    0  0.86701827710E+02 -0.11354064045E+01  0.49448622681E+03  0.50203099962E+03  0.00000000000E+00 0.  1.
         12    1    4    4    0    0  0.60536282928E+02 -0.72584693783E+02  0.37651637020E+03  0.38819808906E+03  0.00000000000E+00 0. -1.
         -5    1    5    5    0  502 -0.21928131227E+02  0.86122771568E+02  0.31937956799E+03  0.33154693962E+03  0.47000000000E+01 0.  1.
         11    1    6    6    0    0 -0.59155213233E+02 -0.51406639354E+02  0.28939378214E+03  0.29981784965E+03  0.00000000000E+00 0. -1.
        -12    1    6    6    0    0 -0.41236839673E+02  0.28790231407E+02  0.12613399079E+03  0.13579078762E+03  0.00000000000E+00 0.  1.
</event>
<event>
12    1  0.8133495E-002  0.2240789E+03  0.7818608E-02  0.1130989E+00
         21   -1    0    0  501  502  0.00000000000E+00  0.00000000000E+00  0.14028428959E+04  0.14028428959E+04  0.00000000000E+00 0.  1.
         21   -1    0    0  502  503 -0.00000000000E+00 -0.00000000000E+00 -0.36873132266E+02  0.36873132266E+02  0.00000000000E+00 0. -1.
         -6    2    1    2    0  503 -0.22465139508E+02  0.14192126911E+03  0.55344517916E+03  0.59685923705E+03  0.17115213524E+03 0.  0.
        -24    2    3    3    0    0  0.46808447815E+02  0.48096228045E+02  0.29884960668E+03  0.31678252656E+03  0.80844318187E+02 0.  0.
          6    2    1    2  501    0  0.22465139508E+02 -0.14192126911E+03  0.81252458442E+03  0.84285679106E+03  0.17194487731E+03 0.  0.
         24    2    5    5    0    0  0.56628296012E+02 -0.44194084465E+02  0.26703301841E+03  0.28760832193E+03  0.79069797731E+02 0.  0.
          5    1    5    5  501    0 -0.34163156504E+02 -0.97727184647E+02  0.54549156601E+03  0.55524846913E+03  0.47000000000E+01 0. -1.
        -11    1    6    6    0    0  0.13355135456E+02 -0.51399628129E+02  0.20408853214E+03  0.21088482725E+03  0.00000000000E+00 0.  1.
         12    1    6    6    0    0  0.43273160556E+02  0.72055436645E+01  0.62944486271E+02  0.76723494680E+02  0.00000000000E+00 0. -1.
         -5    1    3    3    0  503 -0.69273587323E+02  0.93825041067E+02  0.25459557249E+03  0.28007671050E+03  0.47000000000E+01 0.  1.
         11    1    4    4    0    0  0.37352715011E+02  0.46237857308E+02  0.30107980363E+03  0.30689120697E+03  0.00000000000E+00 0. -1.
        -12    1    4    4    0    0  0.94557328043E+01  0.18583707369E+01 -0.22301969498E+01  0.98913195832E+01  0.00000000000E+00 0.  1.
</event>
<event>
12    1  0.8133495E-002  0.3030520E+03  0.7818608E-02  0.1084948E+00
         21   -1    0    0  501  502  0.00000000000E+00  0.00000000000E+00  0.39664901826E+03  0.39664901826E+03  0.00000000000E+00 0.  1.
         21   -1    0    0  502  503 -0.00000000000E+00 -0.00000000000E+00 -0.23513645686E+03  0.23513645686E+03  0.00000000000E+00 0.  1.
         -6    2    1    2    0  503 -0.90261365821E+02 -0.23312849089E+03  0.13759541943E+02  0.30336420413E+03  0.17130238741E+03 0.  0.
        -24    2    3    3    0    0 -0.10362775183E+03 -0.16759223511E+03  0.61438338305E+02  0.22109015768E+03  0.79248471234E+02 0.  0.
          6    2    1    2  501    0  0.90261365821E+02  0.23312849089E+03  0.14775301946E+03  0.32842127098E+03  0.15340654825E+03 0.  0.
         24    2    5    5    0    0  0.43388733981E+02  0.22838849676E+03  0.12650644115E+03  0.27652697216E+03  0.80121151964E+02 0.  0.
          5    1    5    5  501    0  0.46872631841E+02  0.47399941344E+01  0.21246578307E+02  0.51894298818E+02  0.47000000000E+01 0. -1.
        -13    1    6    6    0    0 -0.97945055737E+01  0.14768268077E+03  0.62877179034E+02  0.16080934731E+03  0.00000000000E+00 0.  1.
         14    1    6    6    0    0  0.53183239554E+02  0.80705815988E+02  0.63629262116E+02  0.11571762485E+03  0.00000000000E+00 0. -1.
         -5    1    3    3    0  503  0.13366386008E+02 -0.65536255785E+02 -0.47678796362E+02  0.82274046453E+02  0.47000000000E+01 0.  1.
         11    1    4    4    0    0 -0.75451286527E+02 -0.53310199892E+02  0.43182946406E+02  0.10197862968E+03  0.00000000000E+00 0. -1.
        -12    1    4    4    0    0 -0.28176465303E+02 -0.11428203521E+03  0.18255391900E+02  0.11911152800E+03  0.00000000000E+00 0.  1.
</event>
<event>
12    1  0.8133495E-002  0.1856453E+03  0.7818608E-02  0.1162823E+00
         21   -1    0    0  501  502  0.00000000000E+00  0.00000000000E+00  0.21025266797E+03  0.21025266797E+03  0.00000000000E+00 0. -1.
         21   -1    0    0  502  503 -0.00000000000E+00 -0.00000000000E+00 -0.26427051359E+03  0.26427051359E+03  0.00000000000E+00 0. -1.
         -6    2    1    2    0  503  0.31404184401E+02  0.61264437205E+02 -0.17416827490E+03  0.25338908110E+03  0.17068065026E+03 0.  0.
        -24    2    3    3    0    0  0.57017165848E+01  0.97278902068E+02 -0.16209223921E+03  0.20728507727E+03  0.84838168800E+02 0.  0.
          6    2    1    2  501    0 -0.31404184401E+02 -0.61264437205E+02  0.12015042928E+03  0.22113410047E+03  0.17240826740E+03 0.  0.
         24    2    5    5    0    0  0.19218672763E+02 -0.90302348336E+02  0.61361479086E+02  0.13816359598E+03  0.82462577206E+02 0.  0.
          5    1    5    5  501    0 -0.50622857164E+02  0.29037911131E+02  0.58788950195E+02  0.82970504491E+02  0.47000000000E+01 0. -1.
        -13    1    6    6    0    0 -0.25111936462E+02 -0.87678541460E+01  0.30250360671E+02  0.40281123867E+02  0.00000000000E+00 0.  1.
         14    1    6    6    0    0  0.44330609225E+02 -0.81534494190E+02  0.31111118414E+02  0.97882472109E+02  0.00000000000E+00 0. -1.
         -5    1    3    3    0  503  0.25702467817E+02 -0.36014464863E+02 -0.12076035692E+02  0.46104003831E+02  0.47000000000E+01 0.  1.
         13    1    4    4    0    0  0.35220791806E+02  0.18136364658E+02 -0.81110378102E+02  0.90268074834E+02  0.00000000000E+00 0. -1.
        -14    1    4    4    0    0 -0.29519075221E+02  0.79142537409E+02 -0.80981861111E+02  0.11701700243E+03  0.00000000000E+00 0.  1.
</event>
<event>
12    1  0.8133495E-002  0.2031203E+03  0.7818608E-02  0.1151448E+00
         21   -1    0    0  501  502  0.00000000000E+00  0.00000000000E+00  0.53969320917E+02  0.53969320917E+02  0.00000000000E+00 0. -1.
         21   -1    0    0  502  503 -0.00000000000E+00 -0.00000000000E+00 -0.17661392751E+04  0.17661392751E+04  0.00000000000E+00 0. -1.
         -6    2    1    2    0  503  0.27872350087E+02  0.52674058821E+02 -0.15483229291E+04  0.15591417097E+04  0.17339998199E+03 0.  0.
        -24    2    3    3    0    0  0.74343510192E+01  0.70077573643E+02 -0.15002268667E+04  0.15038613754E+04  0.77150820902E+02 0.  0.
          6    2    1    2  501    0 -0.27872350087E+02 -0.52674058821E+02 -0.16384702504E+03  0.26096688628E+03  0.19418147118E+03 0.  0.
         24    2    5    5    0    0  0.42052129030E+02  0.27109904732E+02 -0.55142745619E+02  0.10900102175E+03  0.79606355629E+02 0.  0.
          5    1    5    5  501    0 -0.69924479117E+02 -0.79783963553E+02 -0.10870427942E+03  0.15196586454E+03  0.47000000000E+01 0. -1.
        -11    1    6    6    0    0 -0.24273722374E+01  0.42098267334E+00 -0.57040930907E+02  0.57094107937E+02  0.00000000000E+00 0.  1.
         12    1    6    6    0    0  0.44479501267E+02  0.26688922059E+02  0.18981852883E+01  0.51906913808E+02  0.00000000000E+00 0. -1.
         -5    1    3    3    0  503  0.20437999068E+02 -0.17403514822E+02 -0.48096062464E+02  0.55280334284E+02  0.47000000000E+01 0.  1.
         13    1    4    4    0    0  0.37458228622E+02  0.60025005492E+02 -0.88689041865E+03  0.88970823020E+03  0.00000000000E+00 0. -1.
        -14    1    4    4    0    0 -0.30023877602E+02  0.10052568151E+02 -0.61333644801E+03  0.61415314524E+03  0.00000000000E+00 0.  1.
</event>
<event>
12    1  0.8133495E-002  0.1763174E+03  0.7818608E-02  0.1171619E+00
         21   -1    0    0  503  502  0.00000000000E+00  0.00000000000E+00  0.77001282553E+03  0.77001282553E+03  0.00000000000E+00 0.  1.
         21   -1    0    0  501  503 -0.00000000000E+00 -0.00000000000E+00 -0.19844149918E+03  0.19844149918E+03  0.00000000000E+00 0.  1.
          6    2    1    2  501    0 -0.33735376935E+02  0.82044342537E+01 -0.14677440798E+03  0.22878653877E+03  0.17203245359E+03 0.  0.
         24    2    3    3    0    0 -0.41597382394E+02 -0.57970410151E+02 -0.85700809132E+02  0.13827137077E+03  0.81752263664E+02 0.  0.
         -6    2    1    2    0  502  0.33735376935E+02 -0.82044342537E+01  0.71834573434E+03  0.73966778593E+03  0.17286541327E+03 0.  0.
        -24    2    5    5    0    0 -0.13275183255E+02 -0.50108382464E+02  0.25624965677E+03  0.27327652471E+03  0.79555589850E+02 0.  0.
          5    1    3    3  501    0  0.78620054595E+01  0.66174844405E+02 -0.61073598852E+02  0.90515168003E+02  0.47000000000E+01 0. -1.
        -11    1    4    4    0    0  0.11897503758E+02 -0.78402282854E+01 -0.58283281294E+02  0.59999672112E+02  0.00000000000E+00 0.  1.
         12    1    4    4    0    0 -0.53494886152E+02 -0.50130181866E+02 -0.27417527838E+02  0.78271698659E+02  0.00000000000E+00 0. -1.
         -5    1    5    5    0  502  0.47010560189E+02  0.41903948211E+02  0.46209607757E+03  0.46639126122E+03  0.47000000000E+01 0.  1.
         13    1    6    6    0    0  0.24197485376E+02 -0.11536905433E+02  0.27945413440E+02  0.38724212295E+02  0.00000000000E+00 0. -1.
        -14    1    6    6    0    0 -0.37472668630E+02 -0.38571477031E+02  0.22830424333E+03  0.23455231241E+03  0.00000000000E+00 0.  1.
</event>
<event>
12    1  0.8133495E-002  0.2067106E+03  0.7818608E-02  0.1144643E+00
         21   -1    0    0  503  502  0.00000000000E+00  0.00000000000E+00  0.75568345169E+02  0.75568345169E+02  0.00000000000E+00 0. -1.
         21   -1    0    0  501  503 -0.00000000000E+00 -0.00000000000E+00 -0.60361589890E+03  0.60361589890E+03  0.00000000000E+00 0.  1.
          6    2    1    2  501    0  0.10944038293E+03 -0.95416514738E+01 -0.17348318396E+03  0.26986237355E+03  0.17510295545E+03 0.  0.
         24    2    3    3    0    0  0.23775022115E+02 -0.71610321149E+01 -0.75848082100E+01  0.83077517442E+02  0.78916490870E+02 0.  0.
         -6    2    1    2    0  502 -0.10944038293E+03  0.95416514738E+01 -0.35456436977E+03  0.40932187052E+03  0.17251162526E+03 0.  0.
        -24    2    5    5    0    0 -0.11453449777E+03 -0.39492263509E+02 -0.20759288232E+03  0.25423162922E+03  0.82831916854E+02 0.  0.
          5    1    3    3  501    0  0.85665360820E+02 -0.23806193589E+01 -0.16589837575E+03  0.18678485610E+03  0.47000000000E+01 0. -1.
        -13    1    4    4    0    0 -0.13479887274E+02 -0.94452360266E+01 -0.33712850425E+02  0.37516344815E+02  0.00000000000E+00 0.  1.
         14    1    4    4    0    0  0.37254909389E+02  0.22842039118E+01  0.26128042215E+02  0.45561172626E+02  0.00000000000E+00 0. -1.
         -5    1    5    5    0  502  0.50941148336E+01  0.49033914983E+02 -0.14697148744E+03  0.15509024130E+03  0.47000000000E+01 0.  1.
         13    1    6    6    0    0 -0.38212971599E+02 -0.23266333023E+02 -0.16262831430E+02  0.47602868998E+02  0.00000000000E+00 0. -1.
        -14    1    6    6    0    0 -0.76321526170E+02 -0.16225930486E+02 -0.19133005089E+03  0.20662876022E+03  0.00000000000E+00 0.  1.
</event>
<event>
12    1  0.8133495E-002  0.1834493E+03  0.7818608E-02  0.1164539E+00
         21   -1    0    0  501  502  0.00000000000E+00  0.00000000000E+00  0.37057080780E+03  0.37057080780E+03  0.00000000000E+00 0.  1.
         21   -1    0    0  502  503 -0.00000000000E+00 -0.00000000000E+00 -0.20969232825E+03  0.20969232825E+03  0.00000000000E+00 0.  1.
         -6    2    1    2    0  503  0.79500235173E+01  0.60258476687E+02 -0.13808851455E+03  0.22949983435E+03  0.17293770332E+03 0.  0.
        -24    2    3    3    0    0  0.63479122169E+02  0.74925013610E+02 -0.96055153813E+02  0.15817325082E+03  0.78414463502E+02 0.  0.
          6    2    1    2  501    0 -0.79500235173E+01 -0.60258476687E+02  0.29896699410E+03  0.35076330171E+03  0.17308767540E+03 0.  0.
         24    2    5    5    0    0 -0.35337685408E+02 -0.24048984505E+02  0.61913270177E+02  0.10935541166E+03  0.79361498034E+02 0.  0.
          5    1    5    5  501    0  0.27387661891E+02 -0.36209492182E+02  0.23705372393E+03  0.24140789004E+03  0.47000000000E+01 0. -1.
        -13    1    6    6    0    0  0.17888874364E+02 -0.14308823636E+02  0.48454121045E+02  0.53596232201E+02  0.00000000000E+00 0.  1.
         14    1    6    6    0    0 -0.53226559772E+02 -0.97401608691E+01  0.13459149132E+02  0.55759179462E+02  0.00000000000E+00 0. -1.
         -5    1    3    3    0  503 -0.55529098652E+02 -0.14666536923E+02 -0.42033360739E+02  0.71326583526E+02  0.47000000000E+01 0.  1.
         11    1    4    4    0    0  0.38891090615E+02  0.32820340778E+02 -0.49355446292E+00  0.50891406878E+02  0.00000000000E+00 0. -1.
        -12    1    4    4    0    0  0.24588031554E+02  0.42104672832E+02 -0.95561599350E+02  0.10728184395E+03  0.00000000000E+00 0.  1.
</event>
<event>
12    1  0.8133495E-002  0.1815044E+03  0.7818608E-02  0.1166491E+00
         21   -1    0    0  503  502  0.00000000000E+00  0.00000000000E+00  0.13697270381E+03  0.13697270381E+03  0.00000000000E+00 0. -1.
         21   -1    0    0  501  503 -0.00000000000E+00 -0.00000000000E+00 -0.30345287545E+03  0.30345287545E+03  0.00000000000E+00 0. -1.
          6    2    1    2  501    0 -0.58141359940E+02  0.22245593299E+01  0.17544157014E+02  0.18235038153E+03  0.17192584971E+03 0.  0.
         24    2    3    3    0    0 -0.30945771653E+02  0.41998465221E+02 -0.43655670805E+02  0.10431787204E+03  0.79087856015E+02 0.  0.
         -6    2    1    2    0  502  0.58141359940E+02 -0.22245593299E+01 -0.18402432865E+03  0.25807519774E+03  0.17132567744E+03 0.  0.
        -24    2    5    5    0    0  0.95829427312E+02  0.26640971263E+01 -0.18094435155E+03  0.21965820094E+03  0.79488932118E+02 0.  0.
          5    1    3    3  501    0 -0.27195588287E+02 -0.39773905891E+02  0.61199827820E+02  0.78032509490E+02  0.47000000000E+01 0. -1.
        -11    1    4    4    0    0  0.14920900341E+02 -0.14356376091E+02 -0.17440973441E+02  0.27072612656E+02  0.00000000000E+00 0.  1.
         12    1    4    4    0    0 -0.45866671994E+02  0.56354841313E+02 -0.26214697365E+02  0.77245259383E+02  0.00000000000E+00 0. -1.
         -5    1    5    5    0  502 -0.37688067372E+02 -0.48886564562E+01 -0.30799771037E+01  0.38416996800E+02  0.47000000000E+01 0.  1.
         13    1    6    6    0    0  0.56550385999E+02 -0.25371718540E+02 -0.15007760325E+03  0.16237289569E+03  0.00000000000E+00 0. -1.
        -14    1    6    6    0    0  0.39279041314E+02  0.28035815667E+02 -0.30866748302E+02  0.57285305248E+02  0.00000000000E+00 0.  1.
</event>
<event>
12    1  0.8133495E-002  0.1731255E+03  0.7818608E-02  0.1175325E+00
         21   -1    0    0  501  502  0.00000000000E+00  0.00000000000E+00  0.67673011549E+03  0.67673011549E+03  0.00000000000E+00 0. -1.
         21   -1    0    0  502  503 -0.00000000000E+00 -0.00000000000E+00 -0.16899538231E+03  0.16899538231E+03  0.00000000000E+00 0. -1.
         -6    2    1    2    0  503  0.18441632845E+02 -0.78642802122E+01 -0.10986792622E+03  0.20504487552E+03  0.17196074854E+03 0.  0.
        -24    2    3    3    0    0 -0.54341868915E+02  0.12133661457E+02 -0.64585713330E+02  0.11689769971E+03  0.79959323238E+02 0.  0.
          6    2    1    2  501    0 -0.18441632845E+02  0.78642802122E+01  0.61760265940E+03  0.64068062228E+03  0.16922373989E+03 0.  0.
         24    2    5    5    0    0 -0.71850145537E+01 -0.54922447404E+02  0.24308450619E+03  0.26074007205E+03  0.76336153712E+02 0.  0.
          5    1    5    5  501    0 -0.11256618292E+02  0.62786727617E+02  0.37451815322E+03  0.37994055023E+03  0.47000000000E+01 0. -1.
        -11    1    6    6    0    0 -0.27779295765E+02  0.69127212625E+01  0.87230168976E+02  0.91807283850E+02  0.00000000000E+00 0.  1.
         12    1    6    6    0    0  0.20594281212E+02 -0.61835168667E+02  0.15585433721E+03  0.16893278820E+03  0.00000000000E+00 0. -1.
         -5    1    3    3    0  503  0.72783501761E+02 -0.19997941669E+02 -0.45282212895E+02  0.88147175815E+02  0.47000000000E+01 0.  1.
         13    1    4    4    0    0 -0.15557987980E+02 -0.33156805772E+02 -0.15937795341E+02  0.39942935287E+02  0.00000000000E+00 0. -1.
        -14    1    4    4    0    0 -0.38783880935E+02  0.45290467229E+02 -0.48647917989E+02  0.76954764419E+02  0.00000000000E+00 0.  1.
</event>
<event>
12    1  0.8133495E-002  0.2067294E+03  0.7818608E-02  0.1144678E+00
         21   -1    0    0  503  502  0.00000000000E+00  0.00000000000E+00  0.30840255538E+03  0.30840255538E+03  0.00000000000E+00 0.  1.
         21   -1    0    0  501  503 -0.00000000000E+00 -0.00000000000E+00 -0.14289270751E+03  0.14289270751E+03  0.00000000000E+00 0.  1.
          6    2    1    2  501    0  0.10668710485E+02  0.11545050362E+03  0.37192108663E+02  0.21004829555E+03  0.17115604970E+03 0.  0.
         24    2    3    3    0    0  0.43117354623E+02  0.98267336652E+02  0.77098045270E+02  0.15561715088E+03  0.82201054387E+02 0.  0.
         -6    2    1    2    0  502 -0.10668710485E+02 -0.11545050362E+03  0.12831773921E+03  0.24124696735E+03  0.16820230941E+03 0.  0.
        -24    2    5    5    0    0 -0.36612689155E+02 -0.84611274543E+02  0.21964862861E+02  0.12741739129E+03  0.85165601124E+02 0.  0.
          5    1    3    3  501    0 -0.32448644138E+02  0.17183166964E+02 -0.39905936607E+02  0.54431144667E+02  0.47000000000E+01 0. -1.
        -11    1    4    4    0    0  0.39628376279E+02  0.81240166980E+01  0.43370010234E+02  0.59307382689E+02  0.00000000000E+00 0.  1.
         12    1    4    4    0    0  0.34889783448E+01  0.90143319954E+02  0.33728035036E+02  0.96309768194E+02  0.00000000000E+00 0. -1.
         -5    1    5    5    0  502  0.25943978670E+02 -0.30839229073E+02  0.10635287635E+03  0.11382957606E+03  0.47000000000E+01 0.  1.
         13    1    6    6    0    0 -0.24782271956E+02  0.24320056760E+00 -0.20158761372E+02  0.31946765249E+02  0.00000000000E+00 0. -1.
        -14    1    6    6    0    0 -0.11830417199E+02 -0.84854475110E+02  0.42123624233E+02  0.95470626037E+02  0.00000000000E+00 0.  1.
</event>
<event>
12    1  0.8133495E-002  0.2022299E+03  0.7818608E-02  0.1149295E+00
         21   -1    0    0  503  502  0.00000000000E+00  0.00000000000E+00  0.10625340712E+03  0.10625340712E+03  0.00000000000E+00 0. -1.
         21   -1    0    0  501  503 -0.00000000000E+00 -0.00000000000E+00 -0.40508625569E+03  0.40508625569E+03  0.00000000000E+00 0. -1.
          6    2    1    2  501    0 -0.97535898242E+02  0.43714347783E+02 -0.74258867607E+02  0.20913042293E+03  0.16369776642E+03 0.  0.
         24    2    3    3    0    0 -0.11521773203E+03  0.65317296746E+02 -0.31877406182E+02  0.15816364039E+03  0.80362261606E+02 0.  0.
         -6    2    1    2    0  502  0.97535898242E+02 -0.43714347783E+02 -0.22457398096E+03  0.30220923987E+03  0.17167631197E+03 0.  0.
        -24    2    5    5    0    0  0.32705781468E+02  0.33798390026E+02 -0.11168352114E+03  0.15062588167E+03  0.89459197549E+02 0.  0.
          5    1    3    3  501    0  0.17681833785E+02 -0.21602948963E+02 -0.42381461425E+02  0.50966782539E+02  0.47000000000E+01 0. -1.
        -13    1    4    4    0    0 -0.21993425977E+02  0.97971810105E+01 -0.42803343651E+02  0.49110302072E+02  0.00000000000E+00 0.  1.
         14    1    4    4    0    0 -0.93224306050E+02  0.55520115735E+02  0.10925937468E+02  0.10905333832E+03  0.00000000000E+00 0. -1.
         -5    1    5    5    0  502  0.64830116774E+02 -0.77512737809E+02 -0.11289045982E+03  0.15158335820E+03  0.47000000000E+01 0.  1.
         11    1    6    6    0    0  0.47511137025E+02  0.32224158845E+02 -0.12039082760E+03  0.13337786895E+03  0.00000000000E+00 0. -1.
        -12    1    6    6    0    0 -0.14805355557E+02  0.15742311813E+01  0.87073064657E+01  0.17248012722E+02  0.00000000000E+00 0.  1.
</event>
<event>
12    1  0.8133495E-002  0.1744444E+03  0.7818608E-02  0.1173360E+00
         21   -1    0    0  501  502  0.00000000000E+00  0.00000000000E+00  0.18169901258E+03  0.18169901258E+03  0.00000000000E+00 0. -1.
         21   -1    0    0  502  503 -0.00000000000E+00 -0.00000000000E+00 -0.18385164140E+03  0.18385164140E+03  0.00000000000E+00 0. -1.
         -6    2    1    2    0  503  0.20166489995E+02  0.17114761365E+02 -0.56058104185E+02  0.18296736440E+03  0.17214802646E+03 0.  0.
        -24    2    3    3    0    0  0.36845817122E+02 -0.28704466985E+02  0.15131178014E+02  0.96552055914E+02  0.83137153481E+02 0.  0.
          6    2    1    2  501    0 -0.20166489995E+02 -0.17114761365E+02  0.53905475361E+02  0.18258328958E+03  0.17242753546E+03 0.  0.
         24    2    5    5    0    0 -0.33680526374E+02  0.41053183232E+02  0.72655909582E+02  0.11981540176E+03  0.79101881087E+02 0.  0.
          5    1    5    5  501    0  0.13514036378E+02 -0.58167944597E+02 -0.18750434221E+02  0.62767887819E+02  0.47000000000E+01 0. -1.
        -11    1    6    6    0    0 -0.43771294836E+02  0.10041987543E+02  0.56081729438E+01  0.45257257641E+02  0.00000000000E+00 0.  1.
         12    1    6    6    0    0  0.10090768462E+02  0.31011195689E+02  0.67047736638E+02  0.74558144119E+02  0.00000000000E+00 0. -1.
         -5    1    3    3    0  503 -0.16679327126E+02  0.45819228350E+02 -0.71189282199E+02  0.86415308482E+02  0.47000000000E+01 0.  1.
         11    1    4    4    0    0  0.65831747632E+01  0.29248569403E+02  0.47390022512E+01  0.30352514631E+02  0.00000000000E+00 0. -1.
        -12    1    4    4    0    0  0.30262642358E+02 -0.57953036388E+02  0.10392175762E+02  0.66199541284E+02  0.00000000000E+00 0.  1.
</event>
<event>
12    1  0.8133495E-002  0.2282634E+03  0.7818608E-02  0.1128457E+00
         21   -1    0    0  501  502  0.00000000000E+00  0.00000000000E+00  0.13098103475E+03  0.13098103475E+03  0.00000000000E+00 0.  1.
         21   -1    0    0  502  503 -0.00000000000E+00 -0.00000000000E+00 -0.45842601042E+03  0.45842601042E+03  0.00000000000E+00 0.  1.
         -6    2    1    2    0  503  0.63137069214E+02  0.13503692971E+03 -0.27481226970E+03  0.35515427171E+03  0.16849780784E+03 0.  0.
        -24    2    3    3    0    0 -0.14864918574E+02  0.91149806439E+02 -0.10041268039E+03  0.15907343012E+03  0.81807070420E+02 0.  0.
          6    2    1    2  501    0 -0.63137069214E+02 -0.13503692971E+03 -0.52632705977E+02  0.23425277345E+03  0.17286670656E+03 0.  0.
         24    2    5    5    0    0 -0.10435518878E+03 -0.13314259228E+03 -0.41786208160E+02  0.19133123562E+03  0.79022776628E+02 0.  0.
          5    1    5    5  501    0  0.41218119565E+02 -0.18943374254E+01 -0.10846497817E+02  0.42921537829E+02  0.47000000000E+01 0. -1.
        -11    1    6    6    0    0 -0.41433538078E+02 -0.10589617069E+03 -0.57206579551E+01  0.11385720430E+03  0.00000000000E+00 0.  1.
         12    1    6    6    0    0 -0.62921650700E+02 -0.27246421593E+02 -0.36065550205E+02  0.77474031314E+02  0.00000000000E+00 0. -1.
         -5    1    3    3    0  503  0.78001987788E+02  0.43887123270E+02 -0.17439958931E+03  0.19608084159E+03  0.47000000000E+01 0.  1.
         13    1    4    4    0    0  0.22837386287E+02  0.84165440325E+01 -0.10068721957E+01  0.24359766368E+02  0.00000000000E+00 0. -1.
        -14    1    4    4    0    0 -0.37702304861E+02  0.82733262407E+02 -0.99405808190E+02  0.13471366376E+03  0.00000000000E+00 0.  1.
</event>
<event>
12    1  0.8133495E-002  0.2078050E+03  0.7818608E-02  0.1143653E+00
         21   -1    0    0  501  502  0.00000000000E+00  0.00000000000E+00  0.24372557161E+03  0.24372557161E+03  0.00000000000E+00 0. -1.
         21   -1    0    0  502  503 -0.00000000000E+00 -0.00000000000E+00 -0.35681764410E+03  0.35681764410E+03  0.00000000000E+00 0.  1.
         -6    2    1    2    0  503 -0.10336457278E+03 -0.50759836730E+02 -0.27032938207E+03  0.33995446221E+03  0.17096861009E+03 0.  0.
        -24    2    3    3    0    0 -0.68385117892E+02 -0.74396987209E+02 -0.96115170562E+02  0.16063642453E+03  0.79715110350E+02 0.  0.
          6    2    1    2  501    0  0.10336457278E+03  0.50759836730E+02  0.15723730959E+03  0.26058875349E+03  0.17298014622E+03 0.  0.
         24    2    5    5    0    0  0.76264204829E+02  0.54237950238E+02  0.18493992245E+03  0.22139625451E+03  0.77817365726E+02 0.  0.
          5    1    5    5  501    0  0.27100367956E+02 -0.34781135071E+01 -0.27702612866E+02  0.39192498983E+02  0.47000000000E+01 0. -1.
        -13    1    6    6    0    0 -0.89111600067E+01  0.32132494488E+02  0.43383316800E+02  0.54717621945E+02  0.00000000000E+00 0.  1.
         14    1    6    6    0    0  0.85175364836E+02  0.22105455749E+02  0.14155660565E+03  0.16667863256E+03  0.00000000000E+00 0. -1.
         -5    1    3    3    0  503 -0.34979454893E+02  0.23637150478E+02 -0.17421421151E+03  0.17931803769E+03  0.47000000000E+01 0.  1.
         13    1    4    4    0    0 -0.23856286744E+02 -0.11489278290E+01  0.85320343310E+01  0.25362138360E+02  0.00000000000E+00 0. -1.
        -14    1    4    4    0    0 -0.44528831148E+02 -0.73248059380E+02 -0.10464720489E+03  0.13527428617E+03  0.00000000000E+00 0.  1.
</event>
<event>
12    1  0.8133495E-002  0.2240171E+03  0.7818608E-02  0.1131074E+00
         21   -1    0    0  501  502  0.00000000000E+00  0.00000000000E+00  0.11313702489E+04  0.11313702489E+04  0.00000000000E+00 0.  1.
         21   -1    0    0  502  503 -0.00000000000E+00 -0.00000000000E+00 -0.72645983599E+02  0.72645983599E+02  0.00000000000E+00 0. -1.
         -6    2    1    2    0  503 -0.11378999010E+03  0.85364939651E+02  0.15200550408E+03  0.27003411699E+03  0.17198086026E+03 0.  0.
        -24    2    3    3    0    0 -0.16741903969E+02  0.93836655531E+02  0.79666839449E+02  0.14860482319E+03  0.81553533930E+02 0.  0.
          6    2    1    2  501    0  0.11378999010E+03 -0.85364939651E+02  0.90671876127E+03  0.93398211556E+03  0.17305590248E+03 0.  0.
         24    2    5    5    0    0  0.20707662181E+02 -0.53897346762E+02  0.67761602732E+03  0.68465365373E+03  0.79078529525E+02 0.  0.
          5    1    5    5  501    0  0.93082327922E+02 -0.31467592889E+02  0.22910273395E+03  0.24932846183E+03  0.47000000000E+01 0. -1.
        -11    1    6    6    0    0  0.10076664788E+02 -0.62606172085E+02  0.29259992461E+03  0.29939236436E+03  0.00000000000E+00 0.  1.
         12    1    6    6    0    0  0.10630997393E+02  0.87088253237E+01  0.38501610271E+03  0.38526128937E+03  0.00000000000E+00 0. -1.
         -5    1    3    3    0  503 -0.97048086134E+02 -0.84717158803E+01  0.72338664633E+02  0.12142929380E+03  0.47000000000E+01 0.  1.
         13    1    4    4    0    0 -0.44418409391E+02  0.76252013444E+02  0.39309042103E+02  0.96605203991E+02  0.00000000000E+00 0. -1.
        -14    1    4    4    0    0  0.27676505423E+02  0.17584642086E+02  0.40357797346E+02  0.51999619194E+02  0.00000000000E+00 0.  1.
</event>
<event>
12    1  0.8133495E-002  0.1851650E+03  0.7818608E-02  0.1163882E+00
         21   -1    0    0  503  502  0.00000000000E+00  0.00000000000E+00  0.45178127128E+02  0.45178127128E+02  0.00000000000E+00 0.  1.
         21   -1    0    0  501  503 -0.00000000000E+00 -0.00000000000E+00 -0.14822256546E+04  0.14822256546E+04  0.00000000000E+00 0.  1.
          6    2    1    2  501    0  0.38003514283E+02 -0.53248920620E+02 -0.12623466112E+04  0.12758546329E+04  0.17322344767E+03 0.  0.
         24    2    3    3    0    0  0.34663533188E+02 -0.10182806814E+03 -0.84172934345E+03  0.85240207949E+03  0.80687678826E+02 0.  0.
         -6    2    1    2    0  502 -0.38003514283E+02  0.53248920620E+02 -0.17470091627E+03  0.25154914883E+03  0.16875085033E+03 0.  0.
        -24    2    5    5    0    0 -0.64095508378E+02 -0.17833975989E+02 -0.84986009374E+02  0.13405691562E+03  0.79513206085E+02 0.  0.
          5    1    3    3  501    0  0.33399810955E+01  0.48579147519E+02 -0.42061726774E+03  0.42345255338E+03  0.47000000000E+01 0. -1.
        -13    1    4    4    0    0  0.40922553837E+02 -0.10217398855E+03 -0.83781075838E+03  0.84500949474E+03  0.00000000000E+00 0.  1.
         14    1    4    4    0    0 -0.62590206491E+01  0.34592040902E+00 -0.39185850699E+01  0.73925847554E+01  0.00000000000E+00 0. -1.
         -5    1    5    5    0  502  0.26091994094E+02  0.71082896610E+02 -0.89714906896E+02  0.11749223321E+03  0.47000000000E+01 0.  1.
         11    1    6    6    0    0 -0.19145300545E+02 -0.46226735432E+02 -0.34811498698E+02  0.60953211919E+02  0.00000000000E+00 0. -1.
        -12    1    6    6    0    0 -0.44950207832E+02  0.28392759442E+02 -0.50174510676E+02  0.73103703699E+02  0.00000000000E+00 0.  1.
</event>
<event>
12    1  0.8133495E-002  0.2835855E+03  0.7818608E-02  0.1093836E+00
         21   -1    0    0  503  502  0.00000000000E+00  0.00000000000E+00  0.21631229642E+04  0.21631229642E+04  0.00000000000E+00 0. -1.
         21   -1    0    0  501  503 -0.00000000000E+00 -0.00000000000E+00 -0.54573069455E+02  0.54573069455E+02  0.00000000000E+00 0. -1.
          6    2    1    2  501    0 -0.20428556673E+03  0.96196229679E+02  0.42751701589E+03  0.51302197469E+03  0.17156468244E+03 0.  0.
         24    2    3    3    0    0 -0.66750342015E+02  0.25120736976E+02  0.27674126177E+03  0.29686674868E+03  0.80358452703E+02 0.  0.
         -6    2    1    2    0  502  0.20428556673E+03 -0.96196229679E+02  0.16810328789E+04  0.17046740590E+04  0.17045761973E+03 0.  0.
        -24    2    5    5    0    0  0.21217569838E+03 -0.90220911879E+02  0.16735973893E+04  0.16914326427E+04  0.82811976507E+02 0.  0.
          5    1    3    3  501    0 -0.13753522472E+03  0.71075492703E+02  0.15077575411E+03  0.21615522601E+03  0.47000000000E+01 0. -1.
        -11    1    4    4    0    0  0.18787038699E+02  0.43472031182E+01  0.55703990284E+02  0.58947311488E+02  0.00000000000E+00 0.  1.
         12    1    4    4    0    0 -0.85537380714E+02  0.20773533858E+02  0.22103727149E+03  0.23791943720E+03  0.00000000000E+00 0. -1.
         -5    1    5    5    0  502 -0.78901316444E+01 -0.59753178005E+01  0.74354896377E+01  0.13241416327E+02  0.47000000000E+01 0.  1.
         13    1    6    6    0    0  0.11974326099E+03 -0.86963104438E+02  0.86569498809E+03  0.87825329062E+03  0.00000000000E+00 0. -1.
        -14    1    6    6    0    0  0.92432437390E+02 -0.32578074414E+01  0.80790240117E+03  0.81317935206E+03  0.00000000000E+00 0.  1.
</event>
<event>
12    1  0.8133495E-002  0.1939841E+03  0.7818608E-02  0.1154979E+00
         21   -1    0    0  503  502  0.00000000000E+00  0.00000000000E+00  0.64085735858E+02  0.64085735858E+02  0.00000000000E+00 0.  1.
         21   -1    0    0  501  503 -0.00000000000E+00 -0.00000000000E+00 -0.58633024507E+03  0.58633024507E+03  0.00000000000E+00 0.  1.
          6    2    1    2  501    0  0.86601750182E+02  0.23476657347E+02 -0.25964000061E+03  0.32410299197E+03  0.17198489153E+03 0.  0.
         24    2    3    3    0    0  0.75374544412E+02 -0.32326348771E+02 -0.90721659472E+02  0.14579000419E+03  0.79359883146E+02 0.  0.
         -6    2    1    2    0  502 -0.86601750182E+02 -0.23476657347E+02 -0.26260450860E+03  0.32631298895E+03  0.17166252429E+03 0.  0.
        -24    2    5    5    0    0 -0.90300373839E+02  0.14219420014E+01 -0.84846636991E+02  0.14672019682E+03  0.78560071994E+02 0.  0.
          5    1    3    3  501    0  0.11227205770E+02  0.55803006118E+02 -0.16891834114E+03  0.17831298779E+03  0.47000000000E+01 0. -1.
        -11    1    4    4    0    0  0.64527504856E+02  0.13422975571E+02 -0.42403378406E+02  0.78371051137E+02  0.00000000000E+00 0.  1.
         12    1    4    4    0    0  0.10847039556E+02 -0.45749324343E+02 -0.48318281066E+02  0.67418953048E+02  0.00000000000E+00 0. -1.
         -5    1    5    5    0  502  0.36986236565E+01 -0.24898599348E+02 -0.17775787161E+03  0.17959279213E+03  0.47000000000E+01 0.  1.
         11    1    6    6    0    0  0.66838362921E+01  0.19746874976E+02 -0.17667981691E+02  0.27327098564E+02  0.00000000000E+00 0. -1.
        -12    1    6    6    0    0 -0.96984210131E+02 -0.18324932975E+02 -0.67178655299E+02  0.11939309826E+03  0.00000000000E+00 0.  1.
</event>
<event>
12    1  0.8133495E-002  0.1823973E+03  0.7818608E-02  0.1167613E+00
         21   -1    0    0  503  502  0.00000000000E+00  0.00000000000E+00  0.31699563451E+03  0.31699563451E+03  0.00000000000E+00 0.  1.
         21   -1    0    0  501  503 -0.00000000000E+00 -0.00000000000E+00 -0.69494712484E+03  0.69494712484E+03  0.00000000000E+00 0.  1.
          6    2    1    2  501    0  0.31977288454E+02 -0.24742044912E+02 -0.65643663955E+03  0.67904224481E+03  0.16898104251E+03 0.  0.
         24    2    3    3    0    0  0.53143875246E+02  0.16920094811E+02 -0.58684110783E+03  0.59508162119E+03  0.81419217367E+02 0.  0.
         -6    2    1    2    0  502 -0.31977288454E+02  0.24742044912E+02  0.27848514922E+03  0.33290051455E+03  0.17785965952E+03 0.  0.
        -24    2    5    5    0    0 -0.41837090172E+02  0.18143538745E+02  0.29660141758E+03  0.31074097590E+03  0.80672319185E+02 0.  0.
          5    1    3    3  501    0 -0.21166586792E+02 -0.41662139724E+02 -0.69595531721E+02  0.83960623618E+02  0.47000000000E+01 0. -1.
        -11    1    4    4    0    0 -0.26970114356E+01 -0.11799275351E+02 -0.34529047450E+03  0.34550254493E+03  0.00000000000E+00 0.  1.
         12    1    4    4    0    0  0.55840886681E+02  0.28719370163E+02 -0.24155063333E+03  0.24957907626E+03  0.00000000000E+00 0. -1.
         -5    1    5    5    0  502  0.98598017186E+01  0.65985061668E+01 -0.18116268358E+02  0.22159538641E+02  0.47000000000E+01 0.  1.
         11    1    6    6    0    0 -0.50263643416E+01  0.36929094833E+00 -0.45728714836E+01  0.68052823531E+01  0.00000000000E+00 0. -1.
        -12    1    6    6    0    0 -0.36810725831E+02  0.17774247797E+02  0.30117428906E+03  0.30393569355E+03  0.00000000000E+00 0.  1.
</event>
<event>
12    1  0.8133495E-002  0.1783431E+03  0.7818608E-02  0.1170251E+00
         21   -1    0    0  501  502  0.00000000000E+00  0.00000000000E+00  0.67537906259E+02  0.67537906259E+02  0.00000000000E+00 0. -1.
         21   -1    0    0  502  503 -0.00000000000E+00 -0.00000000000E+00 -0.57131221095E+03  0.57131221095E+03  0.00000000000E+00 0. -1.
         -6    2    1    2    0  503 -0.44262566532E+02 -0.10932621200E+02 -0.39350620151E+03  0.43203399663E+03  0.17241678171E+03 0.  0.
        -24    2    3    3    0    0 -0.83536027292E+02 -0.44724825743E+02 -0.27978381331E+03  0.30697725197E+03  0.83531270439E+02 0.  0.
          6    2    1    2  501    0  0.44262566532E+02  0.10932621200E+02 -0.11026810318E+03  0.20681612058E+03  0.16892352160E+03 0.  0.
         24    2    5    5    0    0  0.73112133212E+02  0.11004969969E+01 -0.15998352615E+02  0.10763021414E+03  0.77341583857E+02 0.  0.
          5    1    5    5  501    0 -0.28849566680E+02  0.98321242033E+01 -0.94269750570E+02  0.99185906441E+02  0.47000000000E+01 0. -1.
        -11    1    6    6    0    0  0.30325987436E+02  0.37798917001E+02 -0.16699520618E+02  0.51257171492E+02  0.00000000000E+00 0.  1.
         12    1    6    6    0    0  0.42786145776E+02 -0.36698420004E+02  0.70116800296E+00  0.56373042651E+02  0.00000000000E+00 0. -1.
         -5    1    3    3    0  503  0.39273460759E+02  0.33792204543E+02 -0.11372238820E+03  0.12505674466E+03  0.47000000000E+01 0.  1.
         13    1    4    4    0    0 -0.57419892256E+02  0.79976557345E+01 -0.80592312457E+02  0.99278030556E+02  0.00000000000E+00 0. -1.
        -14    1    4    4    0    0 -0.26116135035E+02 -0.52722481477E+02 -0.19919150085E+03  0.20769922141E+03  0.00000000000E+00 0.  1.
</event>
<event>
12    1  0.8133495E-002  0.2953984E+03  0.7818608E-02  0.1087636E+00
         21   -1    0    0  501  502  0.00000000000E+00  0.00000000000E+00  0.28255296846E+03  0.28255296846E+03  0.00000000000E+00 0. -1.
         21   -1    0    0  502  503 -0.00000000000E+00 -0.00000000000E+00 -0.44244595371E+03  0.44244595371E+03  0.00000000000E+00 0.  1.
         -6    2    1    2    0  503 -0.15020528890E+03 -0.18696489234E+03 -0.27964991355E+03  0.40677304174E+03  0.17246081744E+03 0.  0.
        -24    2    3    3    0    0 -0.21004765754E+02 -0.64775111522E+02 -0.12110572655E+03  0.16848442063E+03  0.95306808434E+02 0.  0.
          6    2    1    2  501    0  0.15020528890E+03  0.18696489234E+03  0.11975692830E+03  0.31822588043E+03  0.17148903556E+03 0.  0.
         24    2    5    5    0    0  0.13353938749E+03  0.91948710267E+02  0.12747685485E+03  0.22133669429E+03  0.80325901092E+02 0.  0.
          5    1    5    5  501    0  0.16665901415E+02  0.95016182075E+02 -0.77199265449E+01  0.96889186146E+02  0.47000000000E+01 0. -1.
        -13    1    6    6    0    0  0.30050090285E+02 -0.12067714844E+02  0.11701692931E+02  0.34432067686E+02  0.00000000000E+00 0.  1.
         14    1    6    6    0    0  0.10348929720E+03  0.10401642511E+03  0.11577516192E+03  0.18690462660E+03  0.00000000000E+00 0. -1.
         -5    1    3    3    0  503 -0.12920052315E+03 -0.12218978082E+03 -0.15854418700E+03  0.23828862111E+03  0.47000000000E+01 0.  1.
         13    1    4    4    0    0  0.15096502946E+01 -0.33264450980E+02  0.75350355454E+01  0.34140584407E+02  0.00000000000E+00 0. -1.
        -14    1    4    4    0    0 -0.22514416049E+02 -0.31510660543E+02 -0.12864076209E+03  0.13434383622E+03  0.00000000000E+00 0.  1.
</event>
<event>
12    1  0.8133495E-002  0.2127083E+03  0.7818608E-02  0.1139855E+00
         21   -1    0    0  501  502  0.00000000000E+00  0.00000000000E+00  0.23879294913E+03  0.23879294913E+03  0.00000000000E+00 0. -1.
         21   -1    0    0  502  503 -0.00000000000E+00 -0.00000000000E+00 -0.22081865800E+03  0.22081865800E+03  0.00000000000E+00 0.  1.
         -6    2    1    2    0  503 -0.92066940112E+02 -0.78960821179E+02  0.98098750384E+02  0.23231275022E+03  0.17214736810E+03 0.  0.
        -24    2    3    3    0    0 -0.10710167954E+03 -0.25088493290E+01  0.75954717180E+02  0.15117462357E+03  0.74883801082E+02 0.  0.
          6    2    1    2  501    0  0.92066940112E+02  0.78960821179E+02 -0.80124459256E+02  0.22729885692E+03  0.17473897288E+03 0.  0.
         24    2    5    5    0    0  0.11824948833E+03  0.10150787386E+03 -0.79276044152E+02  0.19241755499E+03  0.80330780806E+02 0.  0.
          5    1    5    5  501    0 -0.26182548220E+02 -0.22547052686E+02 -0.84841510411E+00  0.34881301929E+02  0.47000000000E+01 0. -1.
        -11    1    6    6    0    0  0.10117347728E+03  0.39675921734E+02 -0.65238646380E+02  0.12675303646E+03  0.00000000000E+00 0.  1.
         12    1    6    6    0    0  0.17076011053E+02  0.61831952130E+02 -0.14037397772E+02  0.65664518531E+02  0.00000000000E+00 0. -1.
         -5    1    3    3    0  503  0.15034739427E+02 -0.76451971850E+02  0.22144033204E+02  0.81138126648E+02  0.47000000000E+01 0.  1.
         13    1    4    4    0    0 -0.64827616596E+02  0.30277175990E+02  0.21201931335E+02  0.74624722122E+02  0.00000000000E+00 0. -1.
        -14    1    4    4    0    0 -0.42274062943E+02 -0.32786025319E+02  0.54752785845E+02  0.76549901447E+02  0.00000000000E+00 0.  1.
</event>
<event>
12    1  0.8133495E-002  0.1825475E+03  0.7818608E-02  0.1165750E+00
         21   -1    0    0  503  502  0.00000000000E+00  0.00000000000E+00  0.16430733813E+03  0.16430733813E+03  0.00000000000E+00 0.  1.
         21   -1    0    0  501  503 -0.00000000000E+00 -0.00000000000E+00 -0.24123157546E+03  0.24123157546E+03  0.00000000000E+00 0.  1.
          6    2    1    2  501    0 -0.31471614641E+02 -0.48353615074E+02 -0.12112123568E+03  0.21771723892E+03  0.17146984508E+03 0.  0.
         24    2    3    3    0    0 -0.85308688192E+02 -0.35764976602E+02 -0.59204345454E+02  0.13457461686E+03  0.77771891775E+02 0.  0.
         -6    2    1    2    0  502  0.31471614641E+02  0.48353615074E+02  0.44196998355E+02  0.18782167468E+03  0.17319085483E+03 0.  0.
        -24    2    5    5    0    0 -0.30661913127E+02  0.22991873517E+02 -0.24494388815E+02  0.91673924424E+02  0.79594938102E+02 0.  0.
          5    1    3    3  501    0  0.53837073551E+02 -0.12588638471E+02 -0.61916890230E+02  0.83142622058E+02  0.47000000000E+01 0. -1.
        -11    1    4    4    0    0 -0.67901406269E+02 -0.49842851169E+02 -0.70184620769E+02  0.10963937148E+03  0.00000000000E+00 0.  1.
         12    1    4    4    0    0 -0.17407281923E+02  0.14077874566E+02  0.10980275315E+02  0.24935245381E+02  0.00000000000E+00 0. -1.
         -5    1    5    5    0  502  0.62133527768E+02  0.25361741557E+02  0.68691387170E+02  0.96147750255E+02  0.47000000000E+01 0.  1.
         11    1    6    6    0    0  0.18367214424E+02 -0.66726744172E+01  0.12746375341E+02  0.23331293019E+02  0.00000000000E+00 0. -1.
        -12    1    6    6    0    0 -0.49029127551E+02  0.29664547934E+02 -0.37240764156E+02  0.68342631406E+02  0.00000000000E+00 0.  1.
</event>
<event>
12    1  0.8133495E-002  0.1730533E+03  0.7818608E-02  0.1174778E+00
         21   -1    0    0  501  502  0.00000000000E+00  0.00000000000E+00  0.18397987011E+03  0.18397987011E+03  0.00000000000E+00 0.  1.
         21   -1    0    0  502  503 -0.00000000000E+00 -0.00000000000E+00 -0.10887057978E+04  0.10887057978E+04  0.00000000000E+00 0.  1.
         -6    2    1    2    0  503 -0.18300897824E+02 -0.65951253410E+01 -0.10392410796E+04  0.10535013613E+04  0.17165278426E+03 0.  0.
        -24    2    3    3    0    0 -0.36552965513E+02 -0.18441740779E+02 -0.35087830218E+03  0.36477871502E+03  0.90948946638E+02 0.  0.
          6    2    1    2  501    0  0.18300897824E+02  0.65951253410E+01  0.13451515193E+03  0.21918430651E+03  0.17195643513E+03 0.  0.
         24    2    5    5    0    0 -0.55090893648E+02  0.18522700977E+02  0.78431350374E+02  0.12593139817E+03  0.79555913105E+02 0.  0.
          5    1    5    5  501    0  0.73391791472E+02 -0.11927575636E+02  0.56083801557E+02  0.93252908336E+02  0.47000000000E+01 0. -1.
        -11    1    6    6    0    0  0.71946491838E+01 -0.51739783908E+01  0.54357912812E+02  0.55075545522E+02  0.00000000000E+00 0.  1.
         12    1    6    6    0    0 -0.62285542832E+02  0.23696679368E+02  0.24073437562E+02  0.70855852651E+02  0.00000000000E+00 0. -1.
         -5    1    3    3    0  503  0.18252067689E+02  0.11846615437E+02 -0.68836277739E+03  0.68872264633E+03  0.47000000000E+01 0.  1.
         13    1    4    4    0    0 -0.48693572538E+02 -0.44768804964E+02 -0.28859746007E+03  0.29608073876E+03  0.00000000000E+00 0. -1.
        -14    1    4    4    0    0  0.12140607025E+02  0.26327064185E+02 -0.62280842111E+02  0.68697976256E+02  0.00000000000E+00 0.  1.
</event>
<event>
12    1  0.8133495E-002  0.2236275E+03  0.7818608E-02  0.1131381E+00
         21   -1    0    0  501  502  0.00000000000E+00  0.00000000000E+00  0.65292502598E+02  0.65292502598E+02  0.00000000000E+00 0. -1.
         21   -1    0    0  502  503 -0.00000000000E+00 -0.00000000000E+00 -0.82201880292E+03  0.82201880292E+03  0.00000000000E+00 0.  1.
         -6    2    1    2    0  503 -0.95675057147E+02 -0.10399089124E+03 -0.49681592277E+03  0.54443715272E+03  0.17209860582E+03 0.  0.
        -24    2    3    3    0    0 -0.20658621902E+02 -0.10909779498E+03 -0.23698634098E+03  0.27390610535E+03  0.80826488258E+02 0.  0.
          6    2    1    2  501    0  0.95675057147E+02  0.10399089124E+03 -0.25991037755E+03  0.34287415280E+03  0.17332471917E+03 0.  0.
         24    2    5    5    0    0  0.11607759544E+02  0.98588633075E+02 -0.20347667386E+03  0.24136874490E+03  0.83675895922E+02 0.  0.
          5    1    5    5  501    0  0.84067297603E+02  0.54022581643E+01 -0.56433703697E+02  0.10150540790E+03  0.47000000000E+01 0. -1.
        -11    1    6    6    0    0  0.38278328471E+01  0.67975496091E+02 -0.49474781993E+02  0.84161003003E+02  0.00000000000E+00 0.  1.
         12    1    6    6    0    0  0.77799266971E+01  0.30613136984E+02 -0.15400189186E+03  0.15720774190E+03  0.00000000000E+00 0. -1.
         -5    1    3    3    0  503 -0.75016435245E+02  0.51069037414E+01 -0.25982958179E+03  0.27053104738E+03  0.47000000000E+01 0.  1.
         13    1    4    4    0    0 -0.37488046367E+02 -0.23232112923E+02 -0.11977715188E+03  0.12763875119E+03  0.00000000000E+00 0. -1.
        -14    1    4    4    0    0  0.16829424465E+02 -0.85865682058E+02 -0.11720918910E+03  0.14626735416E+03  0.00000000000E+00 0.  1.
</event>
<event>
12    1  0.8133495E-002  0.2219070E+03  0.7818608E-02  0.1132523E+00
         21   -1    0    0  503  502  0.00000000000E+00  0.00000000000E+00  0.34294247484E+03  0.34294247484E+03  0.00000000000E+00 0. -1.
         21   -1    0    0  501  503 -0.00000000000E+00 -0.00000000000E+00 -0.28432382405E+03  0.28432382405E+03  0.00000000000E+00 0.  1.
          6    2    1    2  501    0  0.73948354067E+02  0.11796891119E+03 -0.19148575962E+03  0.29310323359E+03  0.17279376819E+03 0.  0.
         24    2    3    3    0    0 -0.19407136368E+02  0.16962453686E+02 -0.81173912174E+02  0.11672765212E+03  0.79823423718E+02 0.  0.
         -6    2    1    2    0  502 -0.73948354067E+02 -0.11796891119E+03  0.25010441041E+03  0.33416306530E+03  0.17241727010E+03 0.  0.
        -24    2    5    5    0    0  0.91007070596E+00 -0.79763325844E+02  0.21717237455E+03  0.24377468387E+03  0.76806509178E+02 0.  0.
          5    1    3    3  501    0  0.93355490434E+02  0.10100645751E+03 -0.11031184745E+03  0.17637558147E+03  0.47000000000E+01 0. -1.
        -13    1    4    4    0    0  0.29102958901E+02  0.98821813558E+01 -0.14535174998E+02  0.33998691700E+02  0.00000000000E+00 0.  1.
         14    1    4    4    0    0 -0.48510095268E+02  0.70802723302E+01 -0.66638737176E+02  0.82728960417E+02  0.00000000000E+00 0. -1.
         -5    1    5    5    0  502 -0.74858424773E+02 -0.38205585350E+02  0.32932035861E+02  0.90388381429E+02  0.47000000000E+01 0.  1.
         13    1    6    6    0    0 -0.29162994221E+02 -0.51401919408E+02  0.73714672557E+02  0.94480106377E+02  0.00000000000E+00 0. -1.
        -14    1    6    6    0    0  0.30073064927E+02 -0.28361406436E+02  0.14345770199E+03  0.14929457750E+03  0.00000000000E+00 0.  1.
</event>
<event>
12    1  0.8133495E-002  0.2198150E+03  0.7818608E-02  0.1134882E+00
         21   -1    0    0  501  502  0.00000000000E+00  0.00000000000E+00  0.72412242603E+03  0.72412242603E+03  0.00000000000E+00 0.  1.
         21   -1    0    0  502  503 -0.00000000000E+00 -0.00000000000E+00 -0.68293992221E+02  0.68293992221E+02  0.00000000000E+00 0. -1.
         -6    2    1    2    0  503  0.80799376578E+02  0.10132909028E+03  0.24236609818E+03  0.32415394777E+03  0.17186719440E+03 0.  0.
        -24    2    3    3    0    0  0.65735467775E+02  0.85133316215E+02  0.26206609267E+03  0.29416387893E+03  0.79277471487E+02 0.  0.
          6    2    1    2  501    0 -0.80799376578E+02 -0.10132909028E+03  0.41346233563E+03  0.46826247049E+03  0.17754580957E+03 0.  0.
         24    2    5    5    0    0 -0.77180196554E+02 -0.31857251591E+02  0.36732902896E+03  0.38465740594E+03  0.77839817627E+02 0.  0.
          5    1    5    5  501    0 -0.36191800236E+01 -0.69471838685E+02  0.46133306668E+02  0.83605064550E+02  0.47000000000E+01 0. -1.
        -11    1    6    6    0    0 -0.82496356234E+02 -0.36305635186E+02  0.22818568408E+03  0.24534150557E+03  0.00000000000E+00 0.  1.
         12    1    6    6    0    0  0.53161596796E+01  0.44483835950E+01  0.13914334488E+03  0.13931590036E+03  0.00000000000E+00 0. -1.
         -5    1    3    3    0  503  0.15063908803E+02  0.16195774061E+02 -0.19699994489E+02  0.29990068834E+02  0.47000000000E+01 0.  1.
         11    1    4    4    0    0 -0.47209926127E+01 -0.55372682213E+01 -0.79200412379E+00  0.73195888638E+01  0.00000000000E+00 0. -1.
        -12    1    4    4    0    0  0.70456460388E+02  0.90670584437E+02  0.26285809680E+03  0.28684429007E+03  0.00000000000E+00 0.  1.
</event>
<event>
12    1  0.8133495E-002  0.1955957E+03  0.7818608E-02  0.1154012E+00
         21   -1    0    0  503  502  0.00000000000E+00  0.00000000000E+00  0.10601750037E+04  0.10601750037E+04  0.00000000000E+00 0. -1.
         21   -1    0    0  501  503 -0.00000000000E+00 -0.00000000000E+00 -0.35785567553E+02  0.35785567553E+02  0.00000000000E+00 0. -1.
          6    2    1    2  501    0  0.61114545449E+02  0.61234119822E+02  0.47712687245E+03  0.51479451020E+03  0.17285465058E+03 0.  0.
         24    2    3    3    0    0 -0.11931644252E+02  0.59120057270E+02  0.38114153519E+03  0.39406551592E+03  0.79882511794E+02 0.  0.
         -6    2    1    2    0  502 -0.61114545449E+02 -0.61234119822E+02  0.54726256367E+03  0.58116606102E+03  0.17542255212E+03 0.  0.
        -24    2    5    5    0    0 -0.55983473313E+02 -0.10906343760E+03  0.42470471532E+03  0.44942203750E+03  0.81099259381E+02 0.  0.
          5    1    3    3  501    0  0.73046189701E+02  0.21140625526E+01  0.95985337263E+02  0.12072899428E+03  0.47000000000E+01 0. -1.
        -11    1    4    4    0    0 -0.11473635924E+02 -0.13442804991E+02  0.16764809728E+03  0.16857709764E+03  0.00000000000E+00 0.  1.
         12    1    4    4    0    0 -0.45800832812E+00  0.72562862261E+02  0.21349343791E+03  0.22548841829E+03  0.00000000000E+00 0. -1.
         -5    1    5    5    0  502 -0.51310721353E+01  0.47829317779E+02  0.12255784835E+03  0.13174402352E+03  0.47000000000E+01 0.  1.
         13    1    6    6    0    0 -0.48377452796E+02 -0.13789956322E+02  0.17365377238E+03  0.18079317879E+03  0.00000000000E+00 0. -1.
        -14    1    6    6    0    0 -0.76060205171E+01 -0.95273481280E+02  0.25105094293E+03  0.26862885871E+03  0.00000000000E+00 0.  1.
</event>
<event>
12    1  0.8133495E-002  0.2034809E+03  0.7818608E-02  0.1146867E+00
         21   -1    0    0  501  502  0.00000000000E+00  0.00000000000E+00  0.15820914341E+04  0.15820914341E+04  0.00000000000E+00 0.  1.
         21   -1    0    0  502  503 -0.00000000000E+00 -0.00000000000E+00 -0.75539546528E+02  0.75539546528E+02  0.00000000000E+00 0. -1.
         -6    2    1    2    0  503  0.50169794126E+02 -0.95959559786E+02  0.83004499819E+02  0.21961440983E+03  0.17209153570E+03 0.  0.
        -24    2    3    3    0    0 -0.17261264355E+02 -0.47187351779E+02  0.95775019693E+02  0.13528854133E+03  0.81274458485E+02 0.  0.
          6    2    1    2  501    0 -0.50169794126E+02  0.95959559786E+02  0.14235473877E+04  0.14380165708E+04  0.17227665930E+03 0.  0.
         24    2    5    5    0    0 -0.47683441392E+02  0.20205066671E+02  0.11680958413E+04  0.11715160872E+04  0.72938966066E+02 0.  0.
          5    1    5    5  501    0 -0.24863527342E+01  0.75754493115E+02  0.25545154642E+03  0.26650048357E+03  0.47000000000E+01 0. -1.
        -11    1    6    6    0    0 -0.23788366669E+02  0.42479740541E+02  0.91880119827E+03  0.92009024378E+03  0.00000000000E+00 0.  1.
         12    1    6    6    0    0 -0.23895074723E+02 -0.22274673870E+02  0.24929464302E+03  0.25142584341E+03  0.00000000000E+00 0. -1.
         -5    1    3    3    0  503  0.67431058482E+02 -0.48772208007E+02 -0.12770519874E+02  0.84325868508E+02  0.47000000000E+01 0.  1.
         11    1    4    4    0    0  0.14793311580E+02  0.71538189980E+01  0.61153039143E+02  0.63322297733E+02  0.00000000000E+00 0. -1.
        -12    1    4    4    0    0 -0.32054575935E+02 -0.54341170777E+02  0.34621980550E+02  0.71966243593E+02  0.00000000000E+00 0.  1.
</event>
<event>
12    1  0.8133495E-002  0.1750818E+03  0.7818608E-02  0.1173233E+00
         21   -1    0    0  503  502  0.00000000000E+00  0.00000000000E+00  0.23484592188E+03  0.23484592188E+03  0.00000000000E+00 0. -1.
         21   -1    0    0  501  503 -0.00000000000E+00 -0.00000000000E+00 -0.19292815580E+03  0.19292815580E+03  0.00000000000E+00 0. -1.
          6    2    1    2  501    0  0.95843339636E+01 -0.17936737958E+02 -0.10243575699E+03  0.20085653929E+03  0.17157120691E+03 0.  0.
         24    2    3    3    0    0  0.11206158878E+02  0.44250059196E+02 -0.40690922242E+02  0.11308215422E+03  0.95121904497E+02 0.  0.
         -6    2    1    2    0  502 -0.95843339636E+01  0.17936737958E+02  0.14435352307E+03  0.22691753838E+03  0.17389664625E+03 0.  0.
        -24    2    5    5    0    0  0.13052508045E+02 -0.48294991780E+02  0.12000541273E+03  0.15266129880E+03  0.80008742454E+02 0.  0.
          5    1    3    3  501    0 -0.16218249145E+01 -0.62186797154E+02 -0.61744834752E+02  0.87774385072E+02  0.47000000000E+01 0. -1.
        -11    1    4    4    0    0 -0.38611230990E+02  0.10659737256E+00 -0.19312096858E+02  0.43171699140E+02  0.00000000000E+00 0.  1.
         12    1    4    4    0    0  0.49817389868E+02  0.44143461823E+02 -0.21378825384E+02  0.69910455082E+02  0.00000000000E+00 0. -1.
         -5    1    5    5    0  502 -0.22636842009E+02  0.66231729737E+02  0.24348110344E+02  0.74256239586E+02  0.47000000000E+01 0.  1.
         13    1    6    6    0    0 -0.18499206748E+02 -0.29477842187E+01 -0.18939208072E+01  0.18828091197E+02  0.00000000000E+00 0. -1.
        -14    1    6    6    0    0  0.31551714794E+02 -0.45347207561E+02  0.12189933353E+03  0.13383320760E+03  0.00000000000E+00 0.  1.
</event>
<event>
12    1  0.8133495E-002  0.2229012E+03  0.7818608E-02  0.1132305E+00
         21   -1    0    0  501  502  0.00000000000E+00  0.00000000000E+00  0.53148884437E+03  0.53148884437E+03  0.00000000000E+00 0. -1.
         21   -1    0    0  502  503 -0.00000000000E+00 -0.00000000000E+00 -0.13967653956E+03  0.13967653956E+03  0.00000000000E+00 0. -1.
         -6    2    1    2    0  503 -0.14226132950E+03  0.11750641835E+02  0.11566390473E+01  0.22290417250E+03  0.17119745573E+03 0.  0.
        -24    2    3    3    0    0 -0.27428646758E+02  0.29977566169E+02  0.42879025280E+02  0.99285349867E+02  0.79799653839E+02 0.  0.
          6    2    1    2  501    0  0.14226132950E+03 -0.11750641835E+02  0.39065566576E+03  0.44826121144E+03  0.16718223899E+03 0.  0.
         24    2    5    5    0    0  0.12061789686E+03 -0.12259149432E+02  0.39710575996E+03  0.42518762326E+03  0.91610952356E+02 0.  0.
          5    1    5    5  501    0  0.21643432635E+02  0.50850759666E+00 -0.64500941976E+01  0.23073588177E+02  0.47000000000E+01 0. -1.
        -13    1    6    6    0    0 -0.20533408935E+01 -0.28182984957E+02  0.74396144532E+02  0.79581927416E+02  0.00000000000E+00 0.  1.
         14    1    6    6    0    0  0.12267123776E+03  0.15923835525E+02  0.32270961543E+03  0.34560569584E+03  0.00000000000E+00 0. -1.
         -5    1    3    3    0  503 -0.11483268274E+03 -0.18226924334E+02 -0.41722386233E+02  0.12361882263E+03  0.47000000000E+01 0.  1.
         11    1    4    4    0    0 -0.38573889594E+02  0.50371144180E+02  0.41885757231E+02  0.76023771172E+02  0.00000000000E+00 0. -1.
        -12    1    4    4    0    0  0.11145242835E+02 -0.20393578011E+02  0.99326804837E+00  0.23261578695E+02  0.00000000000E+00 0.  1.
</event>
<event>
12    1  0.8133495E-002  0.2112561E+03  0.7818608E-02  0.1141188E+00
         21   -1    0    0  503  502  0.00000000000E+00  0.00000000000E+00  0.19919897105E+03  0.19919897105E+03  0.00000000000E+00 0. -1.
         21   -1    0    0  501  503 -0.00000000000E+00 -0.00000000000E+00 -0.40731804662E+03  0.40731804662E+03  0.00000000000E+00 0. -1.
          6    2    1    2  501    0  0.79749646707E+02  0.83743820001E+02 -0.30886882776E+03  0.37246651909E+03  0.17308472359E+03 0.  0.
         24    2    3    3    0    0  0.65789087749E+02  0.77055871814E+02 -0.98328962409E+02  0.16130603329E+03  0.78007948831E+02 0.  0.
         -6    2    1    2    0  502 -0.79749646707E+02 -0.83743820001E+02  0.10074975219E+03  0.23405049858E+03  0.17679391896E+03 0.  0.
        -24    2    5    5    0    0  0.25324181153E+02 -0.38368973032E+02  0.24772508073E+02  0.96594987008E+02  0.81261442986E+02 0.  0.
          5    1    3    3  501    0  0.13960558958E+02  0.66879481871E+01 -0.21053986535E+03  0.21116048579E+03  0.47000000000E+01 0. -1.
        -13    1    4    4    0    0 -0.15828552973E+02  0.22722311749E+02 -0.34806302368E+02  0.44478368056E+02  0.00000000000E+00 0.  1.
         14    1    4    4    0    0  0.81617640722E+02  0.54333560065E+02 -0.63522660042E+02  0.11682766524E+03  0.00000000000E+00 0. -1.
         -5    1    5    5    0  502 -0.10507382786E+03 -0.45374846969E+02  0.75977244119E+02  0.13745551158E+03  0.47000000000E+01 0.  1.
         11    1    6    6    0    0  0.43692963404E+02 -0.35636111509E+02  0.42742920607E+02  0.70752842745E+02  0.00000000000E+00 0. -1.
        -12    1    6    6    0    0 -0.18368782251E+02 -0.27328615224E+01 -0.17970412534E+02  0.25842144263E+02  0.00000000000E+00 0.  1.
</event>
<event>
12    1  0.8133495E-002  0.2870986E+03  0.7818608E-02  0.1091931E+00
         21   -1    0    0  501  502  0.00000000000E+00  0.00000000000E+00  0.75989299239E+02  0.75989299239E+02  0.00000000000E+00 0.  1.
         21   -1    0    0  502  503 -0.00000000000E+00 -0.00000000000E+00 -0.11769703701E+04  0.11769703701E+04  0.00000000000E+00 0.  1.
         -6    2    1    2    0  503 -0.19574029245E+03 -0.11891363384E+03 -0.72707410735E+03  0.78154477535E+03  0.17239711108E+03 0.  0.
        -24    2    3    3    0    0 -0.38587636693E+02 -0.79201119666E+01 -0.17800564206E+03  0.19972453793E+03  0.81560704787E+02 0.  0.
          6    2    1    2  501    0  0.19574029245E+03  0.11891363384E+03 -0.37390696350E+03  0.47141489397E+03  0.17312097071E+03 0.  0.
         24    2    5    5    0    0  0.16163347003E+03  0.18389457322E+02 -0.24932175530E+03  0.30767134600E+03  0.77696645399E+02 0.  0.
          5    1    5    5  501    0  0.34106822422E+02  0.10052417652E+03 -0.12458520820E+03  0.16374354797E+03  0.47000000000E+01 0. -1.
        -13    1    6    6    0    0  0.13165433243E+03  0.46048378469E+02 -0.19450221300E+03  0.23934165385E+03  0.00000000000E+00 0.  1.
         14    1    6    6    0    0  0.29979137601E+02 -0.27658921148E+02 -0.54819542304E+02  0.68329692146E+02  0.00000000000E+00 0. -1.
         -5    1    3    3    0  503 -0.15715265576E+03 -0.11099352188E+03 -0.54906846528E+03  0.58182023743E+03  0.47000000000E+01 0.  1.
         13    1    4    4    0    0  0.22031946881E+02 -0.18852057025E+01 -0.17994085694E+02  0.28508732064E+02  0.00000000000E+00 0. -1.
        -14    1    4    4    0    0 -0.60619583574E+02 -0.60349062640E+01 -0.16001155637E+03  0.17121580586E+03  0.00000000000E+00 0.  1.
</event>
<event>
12    1  0.8133495E-002  0.1867287E+03  0.7818608E-02  0.1161522E+00
         21   -1    0    0  501  502  0.00000000000E+00  0.00000000000E+00  0.25912109036E+04  0.25912109036E+04  0.00000000000E+00 0. -1.
         21   -1    0    0  502  503 -0.00000000000E+00 -0.00000000000E+00 -0.13912277276E+02  0.13912277276E+02  0.00000000000E+00 0. -1.
         -6    2    1    2    0  503  0.19693268291E+02  0.69857115879E+02  0.10455570537E+04  0.10620418920E+04  0.17168455487E+03 0.  0.
        -24    2    3    3    0    0  0.65863650593E+02  0.56370463755E+02  0.45994682465E+03  0.47444081614E+03  0.77636053897E+02 0.  0.
          6    2    1    2  501    0 -0.19693268291E+02 -0.69857115879E+02  0.15317415727E+04  0.15430812889E+04  0.17204585813E+03 0.  0.
         24    2    5    5    0    0  0.22167925509E+01 -0.96550927211E+02  0.73466332783E+03  0.74524143737E+03  0.79546206622E+02 0.  0.
          5    1    5    5  501    0 -0.21910060842E+02  0.26693811332E+02  0.79707824483E+03  0.79783985154E+03  0.47000000000E+01 0. -1.
        -13    1    6    6    0    0  0.24327773455E+02 -0.10598981040E+02  0.73412777314E+02  0.78061609216E+02  0.00000000000E+00 0.  1.
         14    1    6    6    0    0 -0.22110980905E+02 -0.85951946171E+02  0.66125055052E+03  0.66717982815E+03  0.00000000000E+00 0. -1.
         -5    1    3    3    0  503 -0.46170382302E+02  0.13486652124E+02  0.58561022901E+03  0.58760107583E+03  0.47000000000E+01 0.  1.
         11    1    4    4    0    0  0.27050865560E+02  0.70151381450E+02  0.29831118705E+03  0.30764026064E+03  0.00000000000E+00 0. -1.
        -12    1    4    4    0    0  0.38812785033E+02 -0.13780917695E+02  0.16163563760E+03  0.16680055550E+03  0.00000000000E+00 0.  1.
</event>
<event>
12    1  0.8133495E-002  0.1962244E+03  0.7818608E-02  0.1153078E+00
         21   -1    0    0  501  502  0.00000000000E+00  0.00000000000E+00  0.20648911499E+03  0.20648911499E+03  0.00000000000E+00 0. -1.
         21   -1    0    0  502  503 -0.00000000000E+00 -0.00000000000E+00 -0.21821807290E+03  0.21821807290E+03  0.00000000000E+00 0. -1.
         -6    2    1    2    0  503 -0.72015150089E+02  0.59101257455E+02 -0.87503742185E+02  0.21485089366E+03  0.17269875835E+03 0.  0.
        -24    2    3    3    0    0 -0.58237949070E+02 -0.10062003125E+02  0.72114934143E+01  0.96671226471E+02  0.76160473812E+02 0.  0.
          6    2    1    2  501    0  0.72015150089E+02 -0.59101257455E+02  0.75774784274E+02  0.20985629423E+03  0.17210085944E+03 0.  0.
         24    2    5    5    0    0 -0.16537655978E+02 -0.35027325800E+02 -0.21775312236E+01  0.89358131836E+02  0.80496748165E+02 0.  0.
          5    1    5    5  501    0  0.88552806067E+02 -0.24073931655E+02  0.77952315498E+02  0.12049816239E+03  0.47000000000E+01 0. -1.
        -13    1    6    6    0    0 -0.25426022216E+02  0.19217898167E+02  0.93064818218E+01  0.33202723075E+02  0.00000000000E+00 0.  1.
         14    1    6    6    0    0  0.88883662386E+01 -0.54245223966E+02 -0.11484013045E+02  0.56155408761E+02  0.00000000000E+00 0. -1.
         -5    1    3    3    0  503 -0.13777201019E+02  0.69163260580E+02 -0.94715235599E+02  0.11817966719E+03  0.47000000000E+01 0.  1.
         11    1    4    4    0    0 -0.73842586922E+01  0.13154540329E+02 -0.27144997778E+02  0.31055114105E+02  0.00000000000E+00 0. -1.
        -12    1    4    4    0    0 -0.50853690378E+02 -0.23216543454E+02  0.34356491192E+02  0.65616112366E+02  0.00000000000E+00 0.  1.
</event>
<event>
12    1  0.8133495E-002  0.2077942E+03  0.7818608E-02  0.1143345E+00
         21   -1    0    0  503  502  0.00000000000E+00  0.00000000000E+00  0.28761985601E+03  0.28761985601E+03  0.00000000000E+00 0. -1.
         21   -1    0    0  501  503 -0.00000000000E+00 -0.00000000000E+00 -0.16715620179E+03  0.16715620179E+03  0.00000000000E+00 0.  1.
          6    2    1    2  501    0 -0.72941592970E+02 -0.90653201643E+02 -0.12497808526E+02  0.20816969673E+03  0.17216256407E+03 0.  0.
         24    2    3    3    0    0 -0.78520562497E+02 -0.84744203932E+02  0.46947570084E+02  0.14798760477E+03  0.79681854857E+02 0.  0.
         -6    2    1    2    0  502  0.72941592970E+02  0.90653201643E+02  0.13296146275E+03  0.24660636106E+03  0.17203914609E+03 0.  0.
        -24    2    5    5    0    0  0.11273592733E+03  0.89554710803E+02  0.12197744652E+03  0.20504274305E+03  0.80215917869E+02 0.  0.
          5    1    3    3  501    0  0.55789695264E+01 -0.59089977109E+01 -0.59445378610E+02  0.60182091962E+02  0.47000000000E+01 0. -1.
        -13    1    4    4    0    0 -0.74559609979E+02 -0.26339338893E+02  0.41206696734E+02  0.89167752407E+02  0.00000000000E+00 0.  1.
         14    1    4    4    0    0 -0.39609525180E+01 -0.58404865039E+02  0.57408733496E+01  0.58819852362E+02  0.00000000000E+00 0. -1.
         -5    1    5    5    0  502 -0.39794334364E+02  0.10984908399E+01  0.10984016226E+02  0.41563618010E+02  0.47000000000E+01 0.  1.
         11    1    6    6    0    0  0.86899712195E+02  0.55236210399E+02  0.36265108920E+02  0.10916848008E+03  0.00000000000E+00 0. -1.
        -12    1    6    6    0    0  0.25836215139E+02  0.34318500405E+02  0.85712337601E+02  0.95874262969E+02  0.00000000000E+00 0.  1.
</event>
<event>
12    1  0.8133495E-002  0.2003734E+03  0.7818608E-02  0.1149721E+00
         21   -1    0    0  501  502  0.00000000000E+00  0.00000000000E+00  0.33305791645E+03  0.33305791645E+03  0.00000000000E+00 0.  1.
         21   -1    0    0  502  503 -0.00000000000E+00 -0.00000000000E+00 -0.21247559698E+03  0.21247559698E+03  0.00000000000E+00 0. -1.
         -6    2    1    2    0  503  0.10209929507E+03 -0.68620154987E+01 -0.12006284104E+03  0.23238884745E+03  0.17064037421E+03 0.  0.
        -24    2    3    3    0    0  0.10051121557E+03 -0.83638759991E+01 -0.15278844484E+03  0.19925528855E+03  0.78650507069E+02 0.  0.
          6    2    1    2  501    0 -0.10209929507E+03  0.68620154987E+01  0.24064516051E+03  0.31314466597E+03  0.17227343160E+03 0.  0.
         24    2    5    5    0    0 -0.12058652718E+03 -0.77356558061E+01  0.11585885282E+03  0.18606759351E+03  0.81221454486E+02 0.  0.
          5    1    5    5  501    0  0.18487232110E+02  0.14597671305E+02  0.12478630769E+03  0.12707707246E+03  0.47000000000E+01 0. -1.
        -13    1    6    6    0    0 -0.71885656623E+02  0.11786706132E+02  0.11180620425E+03  0.13344325153E+03  0.00000000000E+00 0.  1.
         14    1    6    6    0    0 -0.48700870554E+02 -0.19522361938E+02  0.40526485734E+01  0.52624341980E+02  0.00000000000E+00 0. -1.
         -5    1    3    3    0  503  0.15880794989E+01  0.15018605004E+01  0.32725603799E+02  0.33133558902E+02  0.47000000000E+01 0.  1.
         13    1    4    4    0    0  0.95084016608E+02 -0.25960998319E+02 -0.88788651963E+02  0.13265884202E+03  0.00000000000E+00 0. -1.
        -14    1    4    4    0    0  0.54271989599E+01  0.17597122320E+02 -0.63999792878E+02  0.66596446534E+02  0.00000000000E+00 0.  1.
</event>
<event>
12    1  0.8133495E-002  0.1976638E+03  0.7818608E-02  0.1152181E+00
         21   -1    0    0  503  502  0.00000000000E+00  0.00000000000E+00  0.74263452274E+03  0.74263452274E+03  0.00000000000E+00 0. -1.
         21   -1    0    0  501  503 -0.00000000000E+00 -0.00000000000E+00 -0.62695087342E+02  0.62695087342E+02  0.00000000000E+00 0.  1.
          6    2    1    2  501    0  0.34476569862E+02 -0.88338318961E+02  0.50741039333E+03  0.54455143957E+03  0.17343203458E+03 0.  0.
         24    2    3    3    0    0  0.89332795433E+02 -0.61399131021E+02  0.31662102911E+03  0.34415783482E+03  0.80284105267E+02 0.  0.
         -6    2    1    2    0  502 -0.34476569862E+02  0.88338318961E+02  0.17252904207E+03  0.26077817051E+03  0.17101664068E+03 0.  0.
        -24    2    5    5    0    0 -0.42184878155E+02  0.71862817597E+02  0.32441500938E+02  0.11943649462E+03  0.79175733443E+02 0.  0.
          5    1    3    3  501    0 -0.54856225571E+02 -0.26939187940E+02  0.19078936421E+03  0.20039360476E+03  0.47000000000E+01 0. -1.
        -13    1    4    4    0    0  0.53240721280E+02 -0.72457619068E+02  0.26750373392E+03  0.28221078758E+03  0.00000000000E+00 0.  1.
         14    1    4    4    0    0  0.36092074153E+02  0.11058488047E+02  0.49117295191E+02  0.61947047237E+02  0.00000000000E+00 0. -1.
         -5    1    5    5    0  502  0.77083082926E+01  0.16475501365E+02  0.14008754113E+03  0.14134167589E+03  0.47000000000E+01 0.  1.
         13    1    6    6    0    0 -0.47152877828E+02  0.82069027619E+02  0.42976004933E+02  0.10395025821E+03  0.00000000000E+00 0. -1.
        -14    1    6    6    0    0  0.49679996731E+01 -0.10206210022E+02 -0.10534503995E+02  0.15486236411E+02  0.00000000000E+00 0.  1.
</event>
<event>
12    1  0.8133495E-002  0.2089202E+03  0.7818608E-02  0.1143902E+00
         21   -1    0    0  501  502  0.00000000000E+00  0.00000000000E+00  0.74235257612E+02  0.74235257612E+02  0.00000000000E+00 0.  1.
         21   -1    0    0  502  503 -0.00000000000E+00 -0.00000000000E+00 -0.59265921763E+03  0.59265921763E+03  0.00000000000E+00 0.  1.
         -6    2    1    2    0  503 -0.21506398652E+02 -0.10311769008E+03 -0.32327784080E+03  0.38101045633E+03  0.17194366020E+03 0.  0.
        -24    2    3    3    0    0 -0.26856587255E+02  0.13517761489E+02 -0.14726564715E+03  0.16974087642E+03  0.78871973099E+02 0.  0.
          6    2    1    2  501    0  0.21506398652E+02  0.10311769008E+03 -0.19514611921E+03  0.28588401891E+03  0.18042139905E+03 0.  0.
         24    2    5    5    0    0  0.40048277461E+02  0.13564381456E+03 -0.18569853660E+03  0.24698547318E+03  0.80714115926E+02 0.  0.
          5    1    5    5  501    0 -0.18541878809E+02 -0.32526124476E+02 -0.94475826163E+01  0.38898545738E+02  0.47000000000E+01 0. -1.
        -11    1    6    6    0    0  0.19284445913E+02  0.12232488452E+03 -0.18460451613E+03  0.22229281276E+03  0.00000000000E+00 0.  1.
         12    1    6    6    0    0  0.20763831548E+02  0.13318930038E+02 -0.10940204689E+01  0.24692660421E+02  0.00000000000E+00 0. -1.
         -5    1    3    3    0  503  0.53501886029E+01 -0.11663545157E+03 -0.17601219365E+03  0.21126957991E+03  0.47000000000E+01 0.  1.
         13    1    4    4    0    0 -0.64043836587E+01  0.23913532424E+02 -0.45227907102E+01  0.25166024693E+02  0.00000000000E+00 0. -1.
        -14    1    4    4    0    0 -0.20452203596E+02 -0.10395770935E+02 -0.14274285644E+03  0.14457485172E+03  0.00000000000E+00 0.  1.
</event>
<event>
12    1  0.8133495E-002  0.2806130E+03  0.7818608E-02  0.1097020E+00
         21   -1    0    0  503  502  0.00000000000E+00  0.00000000000E+00  0.50081180533E+03  0.50081180533E+03  0.00000000000E+00 0. -1.
         21   -1    0    0  501  503 -0.00000000000E+00 -0.00000000000E+00 -0.16213640297E+03  0.16213640297E+03  0.00000000000E+00 0.  1.
          6    2    1    2  501    0  0.14847939479E+03 -0.16496323077E+03  0.26113210071E+03  0.38331922254E+03  0.17171096109E+03 0.  0.
         24    2    3    3    0    0  0.32919763821E+02 -0.19222789846E+02  0.53573710928E+02  0.10457762248E+03  0.81321031239E+02 0.  0.
         -6    2    1    2    0  502 -0.14847939479E+03  0.16496323077E+03  0.77543301648E+02  0.27962898577E+03  0.15139487398E+03 0.  0.
        -24    2    5    5    0    0 -0.87213090030E+02  0.16045637867E+03  0.27736379498E+02  0.20040341345E+03  0.77716464446E+02 0.  0.
          5    1    3    3  501    0  0.11555963097E+03 -0.14574044092E+03  0.20755838979E+03  0.27874160005E+03  0.47000000000E+01 0. -1.
        -13    1    4    4    0    0 -0.26638838377E+02 -0.61685966932E+01  0.81097648111E+01  0.28521002446E+02  0.00000000000E+00 0.  1.
         14    1    4    4    0    0  0.59558602199E+02 -0.13054193153E+02  0.45463946117E+02  0.76056620036E+02  0.00000000000E+00 0. -1.
         -5    1    5    5    0  502 -0.61266304761E+02  0.45068520941E+01  0.49806922150E+02  0.79225572317E+02  0.47000000000E+01 0.  1.
         11    1    6    6    0    0 -0.49489708566E+02  0.14136963465E+03  0.42379962444E+02  0.15566202514E+03  0.00000000000E+00 0. -1.
        -12    1    6    6    0    0 -0.37723381463E+02  0.19086744029E+02 -0.14643582946E+02  0.44741388313E+02  0.00000000000E+00 0.  1.
</event>
<event>
12    1  0.8133495E-002  0.1931714E+03  0.7818608E-02  0.1155860E+00
         21   -1    0    0  501  502  0.00000000000E+00  0.00000000000E+00  0.26944641472E+03  0.26944641472E+03  0.00000000000E+00 0. -1.
         21   -1    0    0  502  503 -0.00000000000E+00 -0.00000000000E+00 -0.14881920370E+03  0.14881920370E+03  0.00000000000E+00 0. -1.
         -6    2    1    2    0  503 -0.40448281677E+02 -0.78278796972E+02  0.34262230500E+01  0.19320177655E+03  0.17190565410E+03 0.  0.
        -24    2    3    3    0    0 -0.81587186092E+02 -0.43750792251E+02  0.42203797404E+02  0.12679106326E+03  0.75658525297E+02 0.  0.
          6    2    1    2  501    0  0.40448281677E+02  0.78278796972E+02  0.11720098797E+03  0.22506384187E+03  0.17074550591E+03 0.  0.
         24    2    5    5    0    0 -0.11302318762E+02  0.65695940820E+02  0.78148170427E+00  0.96954340451E+02  0.70397687243E+02 0.  0.
          5    1    5    5  501    0  0.51750600439E+02  0.12582856152E+02  0.11641950626E+03  0.12810950142E+03  0.47000000000E+01 0. -1.
        -13    1    6    6    0    0 -0.17766440734E+02 -0.83844945581E+01  0.99635377350E+01  0.22027670089E+02  0.00000000000E+00 0.  1.
         14    1    6    6    0    0  0.64641219724E+01  0.74080435378E+02 -0.91820560308E+01  0.74926670362E+02  0.00000000000E+00 0. -1.
         -5    1    3    3    0  503  0.41138904415E+02 -0.34528004721E+02 -0.38777574354E+02  0.66410713287E+02  0.47000000000E+01 0.  1.
         11    1    4    4    0    0 -0.26372900889E+02 -0.54388895795E+02  0.35663060478E+02  0.70182161335E+02  0.00000000000E+00 0. -1.
        -12    1    4    4    0    0 -0.55214285203E+02  0.10638103544E+02  0.65407369268E+01  0.56608901924E+02  0.00000000000E+00 0.  1.
</event>
<event>
12    1  0.8133495E-002  0.2433046E+03  0.7818608E-02  0.1117660E+00
         21   -1    0    0  501  502  0.00000000000E+00  0.00000000000E+00  0.84548271502E+03  0.84548271502E+03  0.00000000000E+00 0. -1.
         21   -1    0    0  502  503 -0.00000000000E+00 -0.00000000000E+00 -0.72242629713E+02  0.72242629713E+02  0.00000000000E+00 0. -1.
         -6    2    1    2    0  503  0.16512098655E+03 -0.46153776802E+02  0.46850460035E+03  0.52777551752E+03  0.17220721539E+03 0.  0.
        -24    2    3    3    0    0  0.10608110506E+03  0.25838321994E+02  0.35555358457E+03  0.38132213975E+03  0.84067847754E+02 0.  0.
          6    2    1    2  501    0 -0.16512098655E+03  0.46153776802E+02  0.30473548495E+03  0.38994982721E+03  0.17263267546E+03 0.  0.
         24    2    5    5    0    0 -0.34743751183E+02  0.65827051099E+02  0.16507840186E+03  0.19782629382E+03  0.79649449854E+02 0.  0.
          5    1    5    5  501    0 -0.13037723537E+03 -0.19673274297E+02  0.13965708309E+03  0.19212353339E+03  0.47000000000E+01 0. -1.
        -13    1    6    6    0    0 -0.24663822010E+02  0.52072277995E+02  0.36684824428E+02  0.68305216455E+02  0.00000000000E+00 0.  1.
         14    1    6    6    0    0 -0.10079929173E+02  0.13754773104E+02  0.12839357743E+03  0.12952107736E+03  0.00000000000E+00 0. -1.
         -5    1    3    3    0  503  0.59039881497E+02 -0.71992098797E+02  0.11295101578E+03  0.14645337778E+03  0.47000000000E+01 0.  1.
         13    1    4    4    0    0  0.11844221638E+03  0.14490104960E+02  0.32834636635E+03  0.34935634824E+03  0.00000000000E+00 0. -1.
        -14    1    4    4    0    0 -0.12361111326E+02  0.11348217035E+02  0.27207218226E+02  0.31965791507E+02  0.00000000000E+00 0.  1.
</event>
<event>
12    1  0.8133495E-002  0.1901018E+03  0.7818608E-02  0.1161433E+00
         21   -1    0    0  501  502  0.00000000000E+00  0.00000000000E+00  0.24370917037E+03  0.24370917037E+03  0.00000000000E+00 0.  1.
         21   -1    0    0  502  503 -0.00000000000E+00 -0.00000000000E+00 -0.13834585141E+03  0.13834585141E+03  0.00000000000E+00 0.  1.
         -6    2    1    2    0  503 -0.54929367256E+02 -0.10154541915E+02  0.49661847869E+02  0.19648155158E+03  0.18170952333E+03 0.  0.
        -24    2    3    3    0    0 -0.44976493898E+02 -0.69159711974E+02 -0.55041429417E+01  0.11495826458E+03  0.79869620268E+02 0.  0.
          6    2    1    2  501    0  0.54929367256E+02  0.10154541915E+02  0.55701471089E+02  0.18557347020E+03  0.16797175016E+03 0.  0.
         24    2    5    5    0    0  0.57734093522E+02 -0.47553946258E+02  0.63437521813E+02  0.12709208361E+03  0.80829915153E+02 0.  0.
          5    1    5    5  501    0 -0.28047262652E+01  0.57708488174E+02 -0.77360507239E+01  0.58481386590E+02  0.47000000000E+01 0. -1.
        -11    1    6    6    0    0  0.49906798576E+02  0.10080736597E+02  0.38382050472E+02  0.63761207587E+02  0.00000000000E+00 0.  1.
         12    1    6    6    0    0  0.78272949451E+01 -0.57634682856E+02  0.25055471342E+02  0.63330876026E+02  0.00000000000E+00 0. -1.
         -5    1    3    3    0  503 -0.99528733588E+01  0.59005170059E+02  0.55165990810E+02  0.81523287003E+02  0.47000000000E+01 0.  1.
         11    1    4    4    0    0  0.13498302921E+02  0.93134011936E+00 -0.18328494021E+02  0.22781687147E+02  0.00000000000E+00 0. -1.
        -12    1    4    4    0    0 -0.58474796818E+02 -0.70091052093E+02  0.12824351080E+02  0.92176577432E+02  0.00000000000E+00 0.  1.
</event>
<event>
12    1  0.8133495E-002  0.1794924E+03  0.7818608E-02  0.1170795E+00
         21   -1    0    0  503  502  0.00000000000E+00  0.00000000000E+00  0.31636666191E+03  0.31636666191E+03  0.00000000000E+00 0.  1.
         21   -1    0    0  501  503 -0.00000000000E+00 -0.00000000000E+00 -0.22689439196E+03  0.22689439196E+03  0.00000000000E+00 0. -1.
          6    2    1    2  501    0  0.31671238241E+02  0.38623922446E+02 -0.16188704287E+03  0.23439374924E+03  0.16198191356E+03 0.  0.
         24    2    3    3    0    0  0.28991378072E+01  0.13659171481E+02 -0.17596336103E+03  0.19351214840E+03  0.79302390811E+02 0.  0.
         -6    2    1    2    0  502 -0.31671238241E+02 -0.38623922446E+02  0.25135931281E+03  0.30886730462E+03  0.17240253192E+03 0.  0.
        -24    2    5    5    0    0 -0.81955622022E+02 -0.55581568661E+02  0.17787032564E+03  0.21809945650E+03  0.78252702357E+02 0.  0.
          5    1    3    3  501    0  0.28772100433E+02  0.24964750966E+02  0.14076318167E+02  0.40881600840E+02  0.47000000000E+01 0. -1.
        -13    1    4    4    0    0  0.17866518098E+02  0.27486425763E+01 -0.15774960388E+01  0.18145412608E+02  0.00000000000E+00 0.  1.
         14    1    4    4    0    0 -0.14967380291E+02  0.10910528904E+02 -0.17438586500E+03  0.17536673580E+03  0.00000000000E+00 0. -1.
         -5    1    5    5    0  502  0.50284383782E+02  0.16957646215E+02  0.73488987172E+02  0.90767848124E+02  0.47000000000E+01 0.  1.
         11    1    6    6    0    0 -0.86819065577E+02 -0.18511410537E+02  0.12803329712E+03  0.15579713617E+03  0.00000000000E+00 0. -1.
        -12    1    6    6    0    0  0.48634435546E+01 -0.37070158124E+02  0.49837028525E+02  0.62302320332E+02  0.00000000000E+00 0.  1.
</event>
<event>
12    1  0.8133495E-002  0.2777493E+03  0.7818608E-02  0.1097422E+00
         21   -1    0    0  503  502  0.00000000000E+00  0.00000000000E+00  0.29745374803E+02  0.29745374803E+02  0.00000000000E+00 0. -1.
         21   -1    0    0  501  503 -0.00000000000E+00 -0.00000000000E+00 -0.30053799512E+04  0.30053799512E+04  0.00000000000E+00 0.  1.
          6    2    1    2  501    0  0.59641816354E+02  0.20483878299E+03 -0.20636686359E+04  0.20818013634E+04  0.17219931733E+03 0.  0.
         24    2    3    3    0    0  0.26822446277E+02  0.13674090934E+03 -0.18089280300E+04  0.18160396323E+04  0.79760946248E+02 0.  0.
         -6    2    1    2    0  502 -0.59641816354E+02 -0.20483878299E+03 -0.91196594057E+03  0.95332396260E+03  0.17784439163E+03 0.  0.
        -24    2    5    5    0    0 -0.12577383193E+02 -0.97349106572E+02 -0.69725172231E+03  0.70859272854E+03  0.79427020260E+02 0.  0.
          5    1    3    3  501    0  0.32819370077E+02  0.68097873648E+02 -0.25474060585E+03  0.26576173110E+03  0.47000000000E+01 0. -1.
        -13    1    4    4    0    0  0.33356327490E+02  0.83881532974E+02 -0.69484712037E+03  0.70068628989E+03  0.00000000000E+00 0.  1.
         14    1    4    4    0    0 -0.65338812129E+01  0.52859376368E+02 -0.11140809096E+04  0.11153533425E+04  0.00000000000E+00 0. -1.
         -5    1    5    5    0  502 -0.47064433161E+02 -0.10748967642E+03 -0.21471421825E+03  0.24473123406E+03  0.47000000000E+01 0.  1.
         11    1    6    6    0    0 -0.12800365169E+02 -0.85658346150E+02 -0.33066155046E+03  0.34181612391E+03  0.00000000000E+00 0. -1.
        -12    1    6    6    0    0  0.22298197657E+00 -0.11690760422E+02 -0.36659017186E+03  0.36677660463E+03  0.00000000000E+00 0.  1.
</event>
<event>
12    1  0.8133495E-002  0.1939935E+03  0.7818608E-02  0.1155141E+00
         21   -1    0    0  501  502  0.00000000000E+00  0.00000000000E+00  0.88652827053E+03  0.88652827053E+03  0.00000000000E+00 0. -1.
         21   -1    0    0  502  503 -0.00000000000E+00 -0.00000000000E+00 -0.61304677132E+02  0.61304677132E+02  0.00000000000E+00 0.  1.
         -6    2    1    2    0  503 -0.10283988643E+02  0.87319541993E+02  0.14896275438E+03  0.24458821455E+03  0.17292492495E+03 0.  0.
        -24    2    3    3    0    0  0.54069610285E+02  0.86568823864E+02  0.78501947767E+02  0.14904364620E+03  0.75058434885E+02 0.  0.
          6    2    1    2  501    0  0.10283988643E+02 -0.87319541993E+02  0.67626083901E+03  0.70324473311E+03  0.17173808380E+03 0.  0.
         24    2    5    5    0    0  0.72456434696E+02 -0.65803229705E+02  0.48247215909E+03  0.49853882892E+03  0.78623022571E+02 0.  0.
          5    1    5    5  501    0 -0.62172446053E+02 -0.21516312288E+02  0.19378867992E+03  0.20470590419E+03  0.47000000000E+01 0. -1.
        -13    1    6    6    0    0  0.81697164581E+02 -0.29674567492E+02  0.30229502942E+03  0.31454298826E+03  0.00000000000E+00 0.  1.
         14    1    6    6    0    0 -0.92407298854E+01 -0.36128662214E+02  0.18017712967E+03  0.18399584066E+03  0.00000000000E+00 0. -1.
         -5    1    3    3    0  503 -0.64353598928E+02  0.75071812904E+00  0.70460806617E+02  0.95544568353E+02  0.47000000000E+01 0.  1.
         13    1    4    4    0    0  0.13201547995E+02 -0.76016853694E+01  0.33805042382E+02  0.37078934456E+02  0.00000000000E+00 0. -1.
        -14    1    4    4    0    0  0.40868062290E+02  0.94170509234E+02  0.44696905385E+02  0.11196471174E+03  0.00000000000E+00 0.  1.
</event>
<event>
12    1  0.8133495E-002  0.1867435E+03  0.7818608E-02  0.1163248E+00
         21   -1    0    0  501  502  0.00000000000E+00  0.00000000000E+00  0.87872891875E+03  0.87872891875E+03  0.00000000000E+00 0.  1.
         21   -1    0    0  502  503 -0.00000000000E+00 -0.00000000000E+00 -0.68830831148E+02  0.68830831148E+02  0.00000000000E+00 0.  1.
         -6    2    1    2    0  503  0.20922934082E+02 -0.56422506574E+01  0.83526948367E+02  0.19756763645E+03  0.17772623809E+03 0.  0.
        -24    2    3    3    0    0 -0.43409498111E+02 -0.42547598881E+02  0.17249556842E+02  0.97991287923E+02  0.74900351140E+02 0.  0.
          6    2    1    2  501    0 -0.20922934082E+02  0.56422506574E+01  0.72637113924E+03  0.74999211344E+03  0.18548189710E+03 0.  0.
         24    2    5    5    0    0 -0.53449757054E+02  0.65873314483E+02  0.45899347220E+03  0.47395102576E+03  0.82209471498E+02 0.  0.
          5    1    5    5  501    0  0.32526822972E+02 -0.60231063826E+02  0.26737766703E+03  0.27604108769E+03  0.47000000000E+01 0. -1.
        -13    1    6    6    0    0 -0.16278462378E+02 -0.17028689711E+02  0.15134823194E+03  0.15317066273E+03  0.00000000000E+00 0.  1.
         14    1    6    6    0    0 -0.37171294676E+02  0.82902004194E+02  0.30764524026E+03  0.32078036303E+03  0.00000000000E+00 0. -1.
         -5    1    3    3    0  503  0.64332432193E+02  0.36905348223E+02  0.66277391524E+02  0.99576348530E+02  0.47000000000E+01 0.  1.
         11    1    4    4    0    0 -0.36301037924E+02 -0.57543602018E+02  0.32546847933E+02  0.75421010321E+02  0.00000000000E+00 0. -1.
        -12    1    4    4    0    0 -0.71084601868E+01  0.14996003137E+02 -0.15297291091E+02  0.22570277602E+02  0.00000000000E+00 0.  1.
</event>
<event>
12    1  0.8133495E-002  0.1831263E+03  0.7818608E-02  0.1164957E+00
         21   -1    0    0  503  502  0.00000000000E+00  0.00000000000E+00  0.15526595254E+03  0.15526595254E+03  0.00000000000E+00 0. -1.
         21   -1    0    0  501  503 -0.00000000000E+00 -0.00000000000E+00 -0.31279570339E+03  0.31279570339E+03  0.00000000000E+00 0. -1.
          6    2    1    2  501    0 -0.29727517912E+01  0.62696540639E+02 -0.20935791516E+03  0.27774242351E+03  0.17137801410E+03 0.  0.
         24    2    3    3    0    0  0.10822357317E+02  0.90669290800E+02 -0.81085874707E+02  0.14564932699E+03  0.79377349817E+02 0.  0.
         -6    2    1    2    0  502  0.29727517912E+01 -0.62696540639E+02  0.51828164308E+02  0.19031923242E+03  0.17203359600E+03 0.  0.
        -24    2    5    5    0    0 -0.19937444970E+02 -0.32966370951E+02  0.98032740441E+02  0.13060564133E+03  0.77221318449E+02 0.  0.
          5    1    3    3  501    0 -0.13795109108E+02 -0.27972750161E+02 -0.12827204045E+03  0.13209309652E+03  0.47000000000E+01 0. -1.
        -11    1    4    4    0    0  0.83221258521E+01  0.52799107783E+01  0.14449594328E+02  0.17490740773E+02  0.00000000000E+00 0.  1.
         12    1    4    4    0    0  0.25002314649E+01  0.85389380022E+02 -0.95535469035E+02  0.12815858622E+03  0.00000000000E+00 0. -1.
         -5    1    5    5    0  502  0.22910196762E+02 -0.29730169688E+02 -0.46204576134E+02  0.59713591091E+02  0.47000000000E+01 0.  1.
         13    1    6    6    0    0  0.24080697708E+01 -0.54069113784E+02  0.50641027397E+02  0.74120048039E+02  0.00000000000E+00 0. -1.
        -14    1    6    6    0    0 -0.22345514741E+02  0.21102742833E+02  0.47391713044E+02  0.56485593291E+02  0.00000000000E+00 0.  1.
</event>
<event>
12    1  0.8133495E-002  0.1785029E+03  0.7818608E-02  0.1169863E+00
         21   -1    0    0  501  502  0.00000000000E+00  0.00000000000E+00  0.54386592627E+02  0.54386592627E+02  0.00000000000E+00 0.  1.
         21   -1    0    0  502  503 -0.00000000000E+00 -0.00000000000E+00 -0.17244177828E+04  0.17244177828E+04  0.00000000000E+00 0.  1.
         -6    2    1    2    0  503 -0.36809412761E+02 -0.46617535467E+01 -0.15583064928E+04  0.15682201659E+04  0.17210083784E+03 0.  0.
        -24    2    3    3    0    0  0.93130120961E+01  0.45394485425E+02 -0.12248574750E+04  0.12278626441E+04  0.72273420636E+02 0.  0.
          6    2    1    2  501    0  0.36809412761E+02  0.46617535467E+01 -0.11172469733E+03  0.21058420949E+03  0.17460422813E+03 0.  0.
         24    2    5    5    0    0 -0.36336471678E+02 -0.38637769907E+02 -0.71626561311E+02  0.11648256416E+03  0.74997380164E+02 0.  0.
          5    1    5    5  501    0  0.73145884439E+02  0.43299523454E+02 -0.40098136017E+02  0.94101645329E+02  0.47000000000E+01 0. -1.
        -13    1    6    6    0    0 -0.37837878932E+01 -0.40125238021E+01  0.15931034047E+02  0.16858684524E+02  0.00000000000E+00 0.  1.
         14    1    6    6    0    0 -0.32552683785E+02 -0.34625246105E+02 -0.87557595358E+02  0.99623879639E+02  0.00000000000E+00 0. -1.
         -5    1    3    3    0  503 -0.46122424857E+02 -0.50056238972E+02 -0.33344901786E+03  0.34035752180E+03  0.47000000000E+01 0.  1.
         13    1    4    4    0    0 -0.18500514309E+02  0.13625303468E+02 -0.11891319196E+03  0.12111261349E+03  0.00000000000E+00 0. -1.
        -14    1    4    4    0    0  0.27813526405E+02  0.31769181957E+02 -0.11059442830E+04  0.11067500306E+04  0.00000000000E+00 0.  1.
</event>
<event>
12    1  0.8133495E-002  0.1834895E+03  0.7818608E-02  0.1165315E+00
         21   -1    0    0  501  502  0.00000000000E+00  0.00000000000E+00  0.19725021283E+03  0.19725021283E+03  0.00000000000E+00 0. -1.
         21   -1    0    0  502  503 -0.00000000000E+00 -0.00000000000E+00 -0.16873103834E+03  0.16873103834E+03  0.00000000000E+00 0. -1.
         -6    2    1    2    0  503  0.46829798404E+02 -0.39206855243E+02 -0.18410362389E+01  0.18349877234E+03  0.17302659483E+03 0.  0.
        -24    2    3    3    0    0  0.63980286928E+02  0.71994035397E+01 -0.50229968659E+02  0.11413553358E+03  0.79740590336E+02 0.  0.
          6    2    1    2  501    0 -0.46829798404E+02  0.39206855243E+02  0.30360210727E+02  0.18248247882E+03  0.16925692058E+03 0.  0.
         24    2    5    5    0    0  0.30321986078E+02  0.34191009629E+02 -0.14760853115E+02  0.92841210655E+02  0.79455393978E+02 0.  0.
          5    1    5    5  501    0 -0.77151784482E+02  0.50158456144E+01  0.45121063842E+02  0.89641268165E+02  0.47000000000E+01 0. -1.
        -11    1    6    6    0    0  0.65916497387E+01 -0.17034846998E+02  0.19567640811E+02  0.26768048592E+02  0.00000000000E+00 0.  1.
         12    1    6    6    0    0  0.23730336339E+02  0.51225856626E+02 -0.34328493926E+02  0.66073162064E+02  0.00000000000E+00 0. -1.
         -5    1    3    3    0  503 -0.17150488524E+02 -0.46406258783E+02  0.48388932420E+02  0.69363238762E+02  0.47000000000E+01 0.  1.
         11    1    4    4    0    0  0.62590171744E+02 -0.25719039842E+02 -0.23251589397E+02  0.71551624851E+02  0.00000000000E+00 0. -1.
        -12    1    4    4    0    0  0.13901151837E+01  0.32918443382E+02 -0.26978379262E+02  0.42583908728E+02  0.00000000000E+00 0.  1.
</event>
<event>
12    1  0.8133495E-002  0.1904422E+03  0.7818608E-02  0.1158720E+00
         21   -1    0    0  503  502  0.00000000000E+00  0.00000000000E+00  0.15574265525E+03  0.15574265525E+03  0.00000000000E+00 0.  1.
         21   -1    0    0  501  503 -0.00000000000E+00 -0.00000000000E+00 -0.43792335651E+03  0.43792335651E+03  0.00000000000E+00 0. -1.
          6    2    1    2  501    0 -0.16937944038E+02  0.76545047842E+02 -0.34537798269E+03  0.39301178977E+03  0.17037100009E+03 0.  0.
         24    2    3    3    0    0 -0.54847713258E+02 -0.42802610947E+01 -0.15693362875E+03  0.18443747280E+03  0.79764812131E+02 0.  0.
         -6    2    1    2    0  502  0.16937944038E+02 -0.76545047842E+02  0.63197281425E+02  0.20065422199E+03  0.17355743178E+03 0.  0.
        -24    2    5    5    0    0 -0.49999399489E+02 -0.45112808968E+02  0.15444743223E+02  0.11250101159E+03  0.88785314291E+02 0.  0.
          5    1    3    3  501    0  0.37909769220E+02  0.80825308937E+02 -0.18844435394E+03  0.20857431697E+03  0.47000000000E+01 0. -1.
        -11    1    4    4    0    0 -0.46090386991E+02 -0.39134226042E+02 -0.10724461023E+03  0.12311465325E+03  0.00000000000E+00 0.  1.
         12    1    4    4    0    0 -0.87573262673E+01  0.34853964948E+02 -0.49689018515E+02  0.61322819544E+02  0.00000000000E+00 0. -1.
         -5    1    5    5    0  502  0.66937343527E+02 -0.31432238874E+02  0.47752538202E+02  0.88153210400E+02  0.47000000000E+01 0.  1.
         11    1    6    6    0    0 -0.10264942356E+01  0.13326032695E+02 -0.23386534029E+02  0.26936347408E+02  0.00000000000E+00 0. -1.
        -12    1    6    6    0    0 -0.48972905254E+02 -0.58438841663E+02  0.38831277252E+02  0.85564664184E+02  0.00000000000E+00 0.  1.
</event>
<event>
12    1  0.8133495E-002  0.2830829E+03  0.7818608E-02  0.1094027E+00
         21   -1    0    0  501  502  0.00000000000E+00  0.00000000000E+00  0.93443162671E+03  0.93443162671E+03  0.00000000000E+00 0. -1.
         21   -1    0    0  502  503 -0.00000000000E+00 -0.00000000000E+00 -0.85828813799E+02  0.85828813799E+02  0.00000000000E+00 0. -1.
         -6    2    1    2    0  503  0.13738561822E+03  0.17864676890E+03  0.40743585372E+03  0.49608090274E+03  0.17118063860E+03 0.  0.
        -24    2    3    3    0    0  0.51064371541E+02  0.15984950429E+03  0.32970779758E+03  0.37831658091E+03  0.79099744248E+02 0.  0.
          6    2    1    2  501    0 -0.13738561822E+03 -0.17864676890E+03  0.44116695920E+03  0.52417953778E+03  0.17130798523E+03 0.  0.
         24    2    5    5    0    0 -0.11542866828E+03 -0.10733370888E+03  0.17854469565E+03  0.25112239450E+03  0.79623778821E+02 0.  0.
          5    1    5    5  501    0 -0.21956949939E+02 -0.71313060025E+02  0.26262226355E+03  0.27305714327E+03  0.47000000000E+01 0. -1.
        -13    1    6    6    0    0 -0.79922889526E+02 -0.21826445245E+02  0.98698423783E+02  0.12886210009E+03  0.00000000000E+00 0.  1.
         14    1    6    6    0    0 -0.35505778756E+02 -0.85507263635E+02  0.79846271865E+02  0.12226029441E+03  0.00000000000E+00 0. -1.
         -5    1    3    3    0  503  0.86321246679E+02  0.18797264612E+02  0.77728056135E+02  0.11776432183E+03  0.47000000000E+01 0.  1.
         13    1    4    4    0    0  0.42783813049E+02  0.24530517639E+02  0.10221738908E+03  0.11349271160E+03  0.00000000000E+00 0. -1.
        -14    1    4    4    0    0  0.82805584920E+01  0.13531898665E+03  0.22749040850E+03  0.26482386931E+03  0.00000000000E+00 0.  1.
</event>
<event>
12    1  0.8133495E-002  0.1946590E+03  0.7818608E-02  0.1154420E+00
         21   -1    0    0  501  502  0.00000000000E+00  0.00000000000E+00  0.28774378228E+03  0.28774378228E+03  0.00000000000E+00 0. -1.
         21   -1    0    0  502  503 -0.00000000000E+00 -0.00000000000E+00 -0.53590567192E+03  0.53590567192E+03  0.00000000000E+00 0. -1.
         -6    2    1    2    0  503 -0.88738405015E+02  0.17030793333E+02 -0.48190923660E+03  0.51973902269E+03  0.17241689863E+03 0.  0.
        -24    2    3    3    0    0 -0.74237268960E+02  0.12890579868E+02 -0.48979699312E+03  0.50208311667E+03  0.80678512773E+02 0.  0.
          6    2    1    2  501    0  0.88738405015E+02 -0.17030793333E+02  0.23374734697E+03  0.30391043151E+03  0.17192782125E+03 0.  0.
         24    2    5    5    0    0 -0.69076524074E+01 -0.43955218769E+02  0.86962118494E+02  0.12659408628E+03  0.80522516791E+02 0.  0.
          5    1    5    5  501    0  0.95646057423E+02  0.26924425436E+02  0.14678522847E+03  0.17731634522E+03  0.47000000000E+01 0. -1.
        -11    1    6    6    0    0 -0.11614545267E+01 -0.67137632312E+02  0.55638111887E+02  0.87203269110E+02  0.00000000000E+00 0.  1.
         12    1    6    6    0    0 -0.57461978808E+01  0.23182413543E+02  0.31324006607E+02  0.39390817174E+02  0.00000000000E+00 0. -1.
         -5    1    3    3    0  503 -0.14501136055E+02  0.41402134656E+01  0.78877565162E+01  0.17655906017E+02  0.47000000000E+01 0.  1.
         11    1    4    4    0    0 -0.39660258842E+02  0.47150213329E+02 -0.26274397099E+03  0.26987121566E+03  0.00000000000E+00 0. -1.
        -12    1    4    4    0    0 -0.34577010118E+02 -0.34259633462E+02 -0.22705302213E+03  0.23221190101E+03  0.00000000000E+00 0.  1.
</event>
<event>
12    1  0.8133495E-002  0.2091881E+03  0.7818608E-02  0.1142782E+00
         21   -1    0    0  503  502  0.00000000000E+00  0.00000000000E+00  0.10550102730E+04  0.10550102730E+04  0.00000000000E+00 0. -1.
         21   -1    0    0  501  503 -0.00000000000E+00 -0.00000000000E+00 -0.58492220739E+02  0.58492220739E+02  0.00000000000E+00 0. -1.
          6    2    1    2  501    0  0.99898633463E+02  0.64006257039E+02  0.19545083745E+03  0.28628774547E+03  0.17228785633E+03 0.  0.
         24    2    3    3    0    0  0.19070989328E+02  0.73032906672E+02  0.57486717181E+02  0.12606672019E+03  0.83009560880E+02 0.  0.
         -6    2    1    2    0  502 -0.99898633463E+02 -0.64006257039E+02  0.80106721480E+03  0.82721474826E+03  0.16881652524E+03 0.  0.
        -24    2    5    5    0    0 -0.12459443012E+03 -0.17082843639E+02  0.65160223707E+03  0.66855297382E+03  0.81006221287E+02 0.  0.
          5    1    3    3  501    0  0.80827644135E+02 -0.90266496330E+01  0.13796412026E+03  0.16022102528E+03  0.47000000000E+01 0. -1.
        -11    1    4    4    0    0  0.12978776958E+02 -0.61423056592E+00  0.50148684743E+02  0.51804599333E+02  0.00000000000E+00 0.  1.
         12    1    4    4    0    0  0.60922123702E+01  0.73647137238E+02  0.73380324380E+01  0.74262120862E+02  0.00000000000E+00 0. -1.
         -5    1    5    5    0  502  0.24695796662E+02 -0.46923413400E+02  0.14946497774E+03  0.15866177444E+03  0.47000000000E+01 0.  1.
         11    1    6    6    0    0 -0.69433836546E+02 -0.44092842570E+02  0.46159258629E+03  0.46886346855E+03  0.00000000000E+00 0. -1.
        -12    1    6    6    0    0 -0.55160593579E+02  0.27009998930E+02  0.19000965078E+03  0.19968950527E+03  0.00000000000E+00 0.  1.
</event>
<event>
12    1  0.8133495E-002  0.2317529E+03  0.7818608E-02  0.1125521E+00
         21   -1    0    0  501  502  0.00000000000E+00  0.00000000000E+00  0.61210382666E+03  0.61210382666E+03  0.00000000000E+00 0.  1.
         21   -1    0    0  502  503 -0.00000000000E+00 -0.00000000000E+00 -0.99528535341E+02  0.99528535341E+02  0.00000000000E+00 0.  1.
         -6    2    1    2    0  503  0.64599204926E+02  0.14100675412E+03  0.13294243641E+03  0.26717619071E+03  0.17220181038E+03 0.  0.
        -24    2    3    3    0    0  0.94994289598E+01  0.65827732004E+02  0.14095791487E+03  0.17350544515E+03  0.76233039313E+02 0.  0.
          6    2    1    2  501    0 -0.64599204926E+02 -0.14100675412E+03  0.37963285491E+03  0.44445617129E+03  0.17135991854E+03 0.  0.
         24    2    5    5    0    0 -0.17924231929E+02 -0.15790290604E+03  0.32407126742E+03  0.36980221588E+03  0.80479107073E+02 0.  0.
          5    1    5    5  501    0 -0.46674972997E+02  0.16896151915E+02  0.55561587491E+02  0.74653955410E+02  0.47000000000E+01 0. -1.
        -11    1    6    6    0    0  0.75029275174E+01 -0.28873108120E+02  0.14260748235E+03  0.14569435238E+03  0.00000000000E+00 0.  1.
         12    1    6    6    0    0 -0.25427159446E+02 -0.12902979792E+03  0.18146378507E+03  0.22410786349E+03  0.00000000000E+00 0. -1.
         -5    1    3    3    0  503  0.55099775966E+02  0.75179022121E+02 -0.80154784587E+01  0.93670745558E+02  0.47000000000E+01 0.  1.
         13    1    4    4    0    0 -0.66183605667E+01 -0.16196347978E+02  0.21871703151E+02  0.28008851871E+02  0.00000000000E+00 0. -1.
        -14    1    4    4    0    0  0.16117789527E+02  0.82024079981E+02  0.11908621172E+03  0.14549659328E+03  0.00000000000E+00 0.  1.
</event>
<event>
12    1  0.8133495E-002  0.2187511E+03  0.7818608E-02  0.1135749E+00
         21   -1    0    0  503  502  0.00000000000E+00  0.00000000000E+00  0.13661817438E+03  0.13661817438E+03  0.00000000000E+00 0. -1.
         21   -1    0    0  501  503 -0.00000000000E+00 -0.00000000000E+00 -0.39696922809E+03  0.39696922809E+03  0.00000000000E+00 0.  1.
          6    2    1    2  501    0  0.59743347287E+02 -0.12079362906E+03 -0.22776132033E+03  0.31242204028E+03  0.16604801670E+03 0.  0.
         24    2    3    3    0    0  0.81382521269E+02 -0.11876866391E+03 -0.12970308312E+03  0.21187422967E+03  0.85666149275E+02 0.  0.
         -6    2    1    2    0  502 -0.59743347287E+02  0.12079362906E+03 -0.32589733382E+02  0.22116536218E+03  0.17231267609E+03 0.  0.
        -24    2    5    5    0    0 -0.85327844760E+02  0.12002358270E+03 -0.65300565163E+02  0.17936526651E+03  0.78874796506E+02 0.  0.
          5    1    3    3  501    0 -0.21639173982E+02 -0.20249651486E+01 -0.98058237215E+02  0.10054781062E+03  0.47000000000E+01 0. -1.
        -11    1    4    4    0    0  0.32613969525E+02 -0.20795331987E+02 -0.85503880618E+02  0.93845780093E+02  0.00000000000E+00 0.  1.
         12    1    4    4    0    0  0.48768551744E+02 -0.97973331921E+02 -0.44199202500E+02  0.11802844957E+03  0.00000000000E+00 0. -1.
         -5    1    5    5    0  502  0.25584497474E+02  0.77004635775E+00  0.32710831781E+02  0.41800095672E+02  0.47000000000E+01 0.  1.
         13    1    6    6    0    0 -0.30723417223E+02  0.25393479072E+02  0.16236413420E+02  0.43039264236E+02  0.00000000000E+00 0. -1.
        -14    1    6    6    0    0 -0.54604427538E+02  0.94630103628E+02 -0.81536978583E+02  0.13632600227E+03  0.00000000000E+00 0.  1.
</event>
<event>
12    1  0.8133495E-002  0.2015265E+03  0.7818608E-02  0.1148704E+00
         21   -1    0    0  503  502  0.00000000000E+00  0.00000000000E+00  0.24002468726E+03  0.24002468726E+03  0.00000000000E+00 0.  1.
         21   -1    0    0  501  503 -0.00000000000E+00 -0.00000000000E+00 -0.18698700252E+03  0.18698700252E+03  0.00000000000E+00 0.  1.
          6    2    1    2  501    0 -0.31963542536E+02  0.96983759529E+02 -0.41199275960E+02  0.20454028377E+03  0.17237119736E+03 0.  0.
         24    2    3    3    0    0 -0.77653303682E+02  0.24942632658E+02 -0.11173363704E+02  0.11398022833E+03  0.78831959868E+02 0.  0.
         -6    2    1    2    0  502  0.31963542536E+02 -0.96983759529E+02  0.94236960708E+02  0.22247140601E+03  0.17373947181E+03 0.  0.
        -24    2    5    5    0    0  0.12202193309E+02 -0.13533546141E+03  0.81506983104E+02  0.17724413227E+03  0.79419855779E+02 0.  0.
          5    1    3    3  501    0  0.45689761146E+02  0.72041126871E+02 -0.30025912256E+02  0.90560055440E+02  0.47000000000E+01 0. -1.
        -13    1    4    4    0    0 -0.87026404984E+01  0.19880206483E+02 -0.34719873584E+02  0.40944208175E+02  0.00000000000E+00 0.  1.
         14    1    4    4    0    0 -0.68950663184E+02  0.50624261754E+01  0.23546509880E+02  0.73036020153E+02  0.00000000000E+00 0. -1.
         -5    1    5    5    0  502  0.19761349227E+02  0.38351701881E+02  0.12729977604E+02  0.45227273743E+02  0.47000000000E+01 0.  1.
         13    1    6    6    0    0 -0.27821908789E+02 -0.17655832751E+02  0.14072847224E+02  0.35830602392E+02  0.00000000000E+00 0. -1.
        -14    1    6    6    0    0  0.40024102098E+02 -0.11767962866E+03  0.67434135880E+02  0.14141352988E+03  0.00000000000E+00 0.  1.
</event>
<event>
12    1  0.8133495E-002  0.1866952E+03  0.7818608E-02  0.1161504E+00
         21   -1    0    0  503  502  0.00000000000E+00  0.00000000000E+00  0.63458350564E+03  0.63458350564E+03  0.00000000000E+00 0.  1.
         21   -1    0    0  501  503 -0.00000000000E+00 -0.00000000000E+00 -0.12719427950E+03  0.12719427950E+03  0.00000000000E+00 0.  1.
          6    2    1    2  501    0  0.72618680874E+02 -0.39175111139E+01 -0.33443590668E+02  0.18966697523E+03  0.17194844586E+03 0.  0.
         24    2    3    3    0    0  0.59764845520E+01 -0.56417959403E+02  0.14408179424E+02  0.92151021144E+02  0.71172400218E+02 0.  0.
         -6    2    1    2    0  502 -0.72618680874E+02  0.39175111139E+01  0.54083281681E+03  0.57211080991E+03  0.17181915892E+03 0.  0.
        -24    2    5    5    0    0 -0.33914237110E+02  0.56197642762E+02  0.44170257253E+03  0.45345103803E+03  0.78792961466E+02 0.  0.
          5    1    3    3  501    0  0.66642196322E+02  0.52500448289E+02 -0.47851770092E+02  0.97515954090E+02  0.47000000000E+01 0. -1.
        -13    1    4    4    0    0  0.21079734146E+02  0.95993870198E+01  0.15179015846E+01  0.23212226262E+02  0.00000000000E+00 0.  1.
         14    1    4    4    0    0 -0.15103249594E+02 -0.66017346423E+02  0.12890277839E+02  0.68938794882E+02  0.00000000000E+00 0. -1.
         -5    1    5    5    0  502 -0.38704443764E+02 -0.52280131648E+02  0.99130244276E+02  0.11865977188E+03  0.47000000000E+01 0.  1.
         13    1    6    6    0    0 -0.24143231907E+02  0.15977847766E+02  0.38711853654E+02  0.48340406282E+02  0.00000000000E+00 0. -1.
        -14    1    6    6    0    0 -0.97710052034E+01  0.40219794995E+02  0.40299071888E+03  0.40511063175E+03  0.00000000000E+00 0.  1.
</event>
<event>
12    1  0.8133495E-002  0.2569741E+03  0.7818608E-02  0.1110873E+00
         21   -1    0    0  501  502  0.00000000000E+00  0.00000000000E+00  0.52697314472E+03  0.52697314472E+03  0.00000000000E+00 0.  1.
         21   -1    0    0  502  503 -0.00000000000E+00 -0.00000000000E+00 -0.15223998709E+03  0.15223998709E+03  0.00000000000E+00 0.  1.
         -6    2    1    2    0  503 -0.68712693697E+02  0.16292201111E+03  0.33384177748E+02  0.25913350799E+03  0.18646891339E+03 0.  0.
        -24    2    3    3    0    0 -0.79865424771E+01  0.17006724108E+03 -0.24884725683E+01  0.18808664462E+03  0.79898323137E+02 0.  0.
          6    2    1    2  501    0  0.68712693697E+02 -0.16292201111E+03  0.34134897988E+03  0.42007962382E+03  0.16935981905E+03 0.  0.
         24    2    5    5    0    0 -0.13586092332E+02 -0.82792488897E+02  0.24184519068E+03  0.26803711471E+03  0.79470878223E+02 0.  0.
          5    1    5    5  501    0  0.82298786029E+02 -0.80129522213E+02  0.99503789196E+02  0.15204250911E+03  0.47000000000E+01 0. -1.
        -11    1    6    6    0    0 -0.34810274742E+02 -0.17765892942E+02  0.14000367404E+03  0.14535615200E+03  0.00000000000E+00 0.  1.
         12    1    6    6    0    0  0.21224182410E+02 -0.65026595955E+02  0.10184151664E+03  0.12268096271E+03  0.00000000000E+00 0. -1.
         -5    1    3    3    0  503 -0.60726151220E+02 -0.71452299719E+01  0.35872650316E+02  0.71046863365E+02  0.47000000000E+01 0.  1.
         13    1    4    4    0    0  0.24393780927E+01 -0.35266297805E+01 -0.13171713318E+02  0.13852137554E+02  0.00000000000E+00 0. -1.
        -14    1    4    4    0    0 -0.10425920570E+02  0.17359387086E+03  0.10683240750E+02  0.17423450707E+03  0.00000000000E+00 0.  1.
</event>
<event>
12    1  0.8133495E-002  0.3747433E+03  0.7818608E-02  0.1052994E+00
         21   -1    0    0  503  502  0.00000000000E+00  0.00000000000E+00  0.95871729724E+02  0.95871729724E+02  0.00000000000E+00 0. -1.
         21   -1    0    0  501  503 -0.00000000000E+00 -0.00000000000E+00 -0.20189703495E+04  0.20189703495E+04  0.00000000000E+00 0.  1.
          6    2    1    2  501    0  0.25208822024E+03 -0.21551998671E+03 -0.40450566842E+03  0.55069467676E+03  0.17216984572E+03 0.  0.
         24    2    3    3    0    0  0.16592865010E+03 -0.69253366417E+02 -0.16074009423E+03  0.25360691044E+03  0.78426662849E+02 0.  0.
         -6    2    1    2    0  502 -0.25208822024E+03  0.21551998671E+03 -0.15185929513E+04  0.15641474024E+04  0.17445689799E+03 0.  0.
        -24    2    5    5    0    0 -0.15629569893E+03  0.57739872081E+02 -0.62262969495E+03  0.64935615931E+03  0.78952177107E+02 0.  0.
          5    1    3    3  501    0  0.86159570141E+02 -0.14626662029E+03 -0.24376557419E+03  0.29708776633E+03  0.47000000000E+01 0. -1.
        -13    1    4    4    0    0  0.89676871605E+02 -0.17404514282E+02 -0.12475496154E+03  0.15462425051E+03  0.00000000000E+00 0.  1.
         14    1    4    4    0    0  0.76251778494E+02 -0.51848852135E+02 -0.35985132691E+02  0.98982659926E+02  0.00000000000E+00 0. -1.
         -5    1    5    5    0  502 -0.95792521311E+02  0.15778011463E+03 -0.89596325636E+03  0.91479124311E+03  0.47000000000E+01 0.  1.
         11    1    6    6    0    0 -0.98493782702E+02  0.60905379846E+02 -0.30001555164E+03  0.32158952370E+03  0.00000000000E+00 0. -1.
        -12    1    6    6    0    0 -0.57801916226E+02 -0.31655077646E+01 -0.32261414330E+03  0.32776663561E+03  0.00000000000E+00 0.  1.
</event>
<event>
12    1  0.8133495E-002  0.1961212E+03  0.7818608E-02  0.1153128E+00
         21   -1    0    0  501  502  0.00000000000E+00  0.00000000000E+00  0.14049090473E+04  0.14049090473E+04  0.00000000000E+00 0. -1.
         21   -1    0    0  502  503 -0.00000000000E+00 -0.00000000000E+00 -0.70035673624E+02  0.70035673624E+02  0.00000000000E+00 0. -1.
         -6    2    1    2    0  503  0.17999607786E+02 -0.92640588253E+02  0.91330324134E+02  0.21603135692E+03  0.17152858244E+03 0.  0.
        -24    2    3    3    0    0 -0.53565671535E+02 -0.80802705313E+02  0.49495256012E+02  0.13216248545E+03  0.74958547471E+02 0.  0.
          6    2    1    2  501    0 -0.17999607786E+02  0.92640588253E+02  0.12435430496E+04  0.12589133640E+04  0.17192230088E+03 0.  0.
         24    2    5    5    0    0 -0.39993670696E+02  0.27599591933E+02  0.10366135284E+04  0.10408400123E+04  0.80119240957E+02 0.  0.
          5    1    5    5  501    0  0.21994062910E+02  0.65040996320E+02  0.20692952117E+03  0.21807335174E+03  0.47000000000E+01 0. -1.
        -13    1    6    6    0    0  0.97004822894E+01  0.39322951865E+02  0.57121863555E+03  0.57265270758E+03  0.00000000000E+00 0.  1.
         14    1    6    6    0    0 -0.49694152986E+02 -0.11723359932E+02  0.46539489284E+03  0.46818730471E+03  0.00000000000E+00 0. -1.
         -5    1    3    3    0  503  0.71565279322E+02 -0.11837882940E+02  0.41835068123E+02  0.83868871470E+02  0.47000000000E+01 0.  1.
         11    1    4    4    0    0  0.14939602044E+02  0.17642117740E+01  0.87287053616E+01  0.17392367571E+02  0.00000000000E+00 0. -1.
        -12    1    4    4    0    0 -0.68505273580E+02 -0.82566917087E+02  0.40766550650E+02  0.11477011788E+03  0.00000000000E+00 0.  1.
</event>
<event>
12    1  0.8133495E-002  0.3519842E+03  0.7818608E-02  0.1061981E+00
         21   -1    0    0  501  502  0.00000000000E+00  0.00000000000E+00  0.15212714871E+04  0.15212714871E+04  0.00000000000E+00 0.  1.
         21   -1    0    0  502  503 -0.00000000000E+00 -0.00000000000E+00 -0.86513245957E+02  0.86513245957E+02  0.00000000000E+00 0. -1.
         -6    2    1    2    0  503  0.16384359125E+03 -0.25867936919E+03  0.91793526800E+03  0.98248571305E+03  0.17003905924E+03 0.  0.
        -24    2    3    3    0    0  0.61870062655E+02 -0.11057223377E+03  0.25363061451E+03  0.29425821669E+03  0.78773637332E+02 0.  0.
          6    2    1    2  501    0 -0.16384359125E+03  0.25867936919E+03  0.51682297314E+03  0.62529902001E+03  0.17358899855E+03 0.  0.
         24    2    5    5    0    0 -0.99569883948E+02  0.20664303792E+03  0.47298541497E+03  0.53158290225E+03  0.79054868769E+02 0.  0.
          5    1    5    5  501    0 -0.64273707301E+02  0.52036331265E+02  0.43837558173E+02  0.93716117762E+02  0.47000000000E+01 0. -1.
        -13    1    6    6    0    0  0.10771246425E+02  0.34162485283E+02  0.48490944959E+02  0.60286539902E+02  0.00000000000E+00 0.  1.
         14    1    6    6    0    0 -0.11034113037E+03  0.17248055264E+03  0.42449447001E+03  0.47129636235E+03  0.00000000000E+00 0. -1.
         -5    1    3    3    0  503  0.10197352859E+03 -0.14810713542E+03  0.66430465349E+03  0.68822749636E+03  0.47000000000E+01 0.  1.
         13    1    4    4    0    0  0.29683674831E+02  0.20749537317E+01  0.74451282899E+02  0.80177425188E+02  0.00000000000E+00 0. -1.
        -14    1    4    4    0    0  0.32186387824E+02 -0.11264718750E+03  0.17917933161E+03  0.21408079150E+03  0.00000000000E+00 0.  1.
</event>
<event>
12    1  0.8133495E-002  0.1886843E+03  0.7818608E-02  0.1161242E+00
         21   -1    0    0  501  502  0.00000000000E+00  0.00000000000E+00  0.75535592728E+02  0.75535592728E+02  0.00000000000E+00 0.  1.
         21   -1    0    0  502  503 -0.00000000000E+00 -0.00000000000E+00 -0.49322669914E+03  0.49322669914E+03  0.00000000000E+00 0.  1.
         -6    2    1    2    0  503  0.18124707566E+02 -0.54659984328E+02 -0.12548915826E+03  0.22093509350E+03  0.17247773128E+03 0.  0.
        -24    2    3    3    0    0  0.54007225751E+02  0.69010131108E+01 -0.11389348211E+03  0.14858966363E+03  0.78375751704E+02 0.  0.
          6    2    1    2  501    0 -0.18124707566E+02  0.54659984328E+02 -0.29220194815E+03  0.34782719837E+03  0.17968183690E+03 0.  0.
         24    2    5    5    0    0  0.55830632823E+02  0.33631026130E+02 -0.21493361213E+03  0.23872130849E+03  0.80890667111E+02 0.  0.
          5    1    5    5  501    0 -0.73955340389E+02  0.21028958198E+02 -0.77268336027E+02  0.10910588988E+03  0.47000000000E+01 0. -1.
        -11    1    6    6    0    0  0.51284963490E+02  0.54444495509E+02 -0.11980169950E+03  0.14123313270E+03  0.00000000000E+00 0.  1.
         12    1    6    6    0    0  0.45456693328E+01 -0.20813469379E+02 -0.95131912632E+02  0.97488175787E+02  0.00000000000E+00 0. -1.
         -5    1    3    3    0  503 -0.35882518185E+02 -0.61560997439E+02 -0.11595676147E+02  0.72345429864E+02  0.47000000000E+01 0.  1.
         13    1    4    4    0    0  0.22111745119E+02  0.10140878771E+02 -0.11396258158E+03  0.11652998196E+03  0.00000000000E+00 0. -1.
        -14    1    4    4    0    0  0.31895480632E+02 -0.32398656599E+01  0.69099468564E-01  0.32059681674E+02  0.00000000000E+00 0.  1.
</event>
<event>
12    1  0.8133495E-002  0.2421449E+03  0.7818608E-02  0.1118425E+00
         21   -1    0    0  501  502  0.00000000000E+00  0.00000000000E+00  0.44390843378E+02  0.44390843378E+02  0.00000000000E+00 0.  1.
         21   -1    0    0  502  503 -0.00000000000E+00 -0.00000000000E+00 -0.15536811016E+04  0.15536811016E+04  0.00000000000E+00 0. -1.
         -6    2    1    2    0  503  0.11827914810E+03  0.12186787127E+03 -0.10655378817E+04  0.10927054170E+04  0.17260479736E+03 0.  0.
        -24    2    3    3    0    0  0.13598403209E+03  0.73514206389E+02 -0.95567915268E+03  0.97128643097E+03  0.78604660175E+02 0.  0.
          6    2    1    2  501    0 -0.11827914810E+03 -0.12186787127E+03 -0.44375237659E+03  0.50536652805E+03  0.17215522362E+03 0.  0.
         24    2    5    5    0    0 -0.71974830568E+02 -0.12111368283E+03 -0.42506832331E+03  0.45520835355E+03  0.81747570293E+02 0.  0.
          5    1    5    5  501    0 -0.46304317534E+02 -0.75418844115E+00 -0.18684053273E+02  0.50158174501E+02  0.47000000000E+01 0. -1.
        -13    1    6    6    0    0 -0.68642750255E+02 -0.75502983497E+02 -0.18935504865E+03  0.21509965627E+03  0.00000000000E+00 0.  1.
         14    1    6    6    0    0 -0.33320803129E+01 -0.45610699333E+02 -0.23571327467E+03  0.24010869728E+03  0.00000000000E+00 0. -1.
         -5    1    3    3    0  503 -0.17704883985E+02  0.48353664883E+02 -0.10985872899E+03  0.12141898599E+03  0.47000000000E+01 0.  1.
         13    1    4    4    0    0  0.56115997508E+02  0.35575019030E+02 -0.64057091500E+03  0.64400751882E+03  0.00000000000E+00 0. -1.
        -14    1    4    4    0    0  0.79868034579E+02  0.37939187359E+02 -0.31510823769E+03  0.32727891216E+03  0.00000000000E+00 0.  1.
</event>
<event>
12    1  0.8133495E-002  0.2113071E+03  0.7818608E-02  0.1140655E+00
         21   -1    0    0  501  502  0.00000000000E+00  0.00000000000E+00  0.36876953471E+03  0.36876953471E+03  0.00000000000E+00 0.  1.
         21   -1    0    0  502  503 -0.00000000000E+00 -0.00000000000E+00 -0.19400931539E+03  0.19400931539E+03  0.00000000000E+00 0.  1.
         -6    2    1    2    0  503 -0.95068561021E+02 -0.76192715952E+02 -0.85476618770E+02  0.22794067959E+03  0.17264802285E+03 0.  0.
        -24    2    3    3    0    0 -0.84712717509E+02 -0.34667471413E+00 -0.18423519761E+02  0.12606784929E+03  0.91527656218E+02 0.  0.
          6    2    1    2  501    0  0.95068561021E+02  0.76192715952E+02  0.26023683809E+03  0.33483817052E+03  0.17190121371E+03 0.  0.
         24    2    5    5    0    0  0.11016771361E+03  0.10973155891E+03  0.21048844548E+03  0.27279116444E+03  0.77017488732E+02 0.  0.
          5    1    5    5  501    0 -0.15099152591E+02 -0.33538842959E+02  0.49748392614E+02  0.62047006081E+02  0.47000000000E+01 0. -1.
        -13    1    6    6    0    0 -0.11887483105E+01  0.32679258809E+01  0.50736298430E+02  0.50855328536E+02  0.00000000000E+00 0.  1.
         14    1    6    6    0    0  0.11135646192E+03  0.10646363303E+03  0.15975214705E+03  0.22193583590E+03  0.00000000000E+00 0. -1.
         -5    1    3    3    0  503 -0.10355843512E+02 -0.75846041238E+02 -0.67053099009E+02  0.10187283030E+03  0.47000000000E+01 0.  1.
         13    1    4    4    0    0 -0.26975480788E+02  0.41972346349E+02 -0.21698308698E+02  0.54407453737E+02  0.00000000000E+00 0. -1.
        -14    1    4    4    0    0 -0.57737236721E+02 -0.42319021063E+02  0.32747889371E+01  0.71660395551E+02  0.00000000000E+00 0.  1.
</event>
<event>
12    1  0.8133495E-002  0.1857608E+03  0.7818608E-02  0.1163187E+00
         21   -1    0    0  501  502  0.00000000000E+00  0.00000000000E+00  0.40669777139E+03  0.40669777139E+03  0.00000000000E+00 0. -1.
         21   -1    0    0  502  503 -0.00000000000E+00 -0.00000000000E+00 -0.95928975692E+02  0.95928975692E+02  0.00000000000E+00 0.  1.
         -6    2    1    2    0  503  0.41111627677E+02  0.45126822261E+02  0.62557498550E+02  0.19260105290E+03  0.17162496594E+03 0.  0.
        -24    2    3    3    0    0 -0.42951865803E+02  0.13842833092E+02  0.24001042530E+02  0.94856236076E+02  0.79907250460E+02 0.  0.
          6    2    1    2  501    0 -0.41111627677E+02 -0.45126822261E+02  0.24821129715E+03  0.31002569419E+03  0.17544368614E+03 0.  0.
         24    2    5    5    0    0 -0.60163196193E+02 -0.36635433142E+02  0.63686444042E+02  0.12426623315E+03  0.80152157851E+02 0.  0.
          5    1    5    5  501    0  0.19051568517E+02 -0.84913891194E+01  0.18452485311E+03  0.18575946104E+03  0.47000000000E+01 0. -1.
        -13    1    6    6    0    0 -0.33100613016E+02 -0.97235819989E+00 -0.12913032774E+02  0.35543529339E+02  0.00000000000E+00 0.  1.
         14    1    6    6    0    0 -0.27062583178E+02 -0.35663074942E+02  0.76599476816E+02  0.88722703808E+02  0.00000000000E+00 0. -1.
         -5    1    3    3    0  503  0.84063493479E+02  0.31283989169E+02  0.38556456020E+02  0.97744816820E+02  0.47000000000E+01 0.  1.
         11    1    4    4    0    0 -0.29083348918E+02  0.47003288114E+02  0.19592661905E+02  0.58643181005E+02  0.00000000000E+00 0. -1.
        -12    1    4    4    0    0 -0.13868516885E+02 -0.33160455022E+02  0.44083806249E+01  0.36213055071E+02  0.00000000000E+00 0.  1.
</event>
<event>
12    1  0.8133495E-002  0.2075580E+03  0.7818608E-02  0.1143599E+00
         21   -1    0    0  501  502  0.00000000000E+00  0.00000000000E+00  0.23968781658E+03  0.23968781658E+03  0.00000000000E+00 0.  1.
         21   -1    0    0  502  503 -0.00000000000E+00 -0.00000000000E+00 -0.36090684058E+03  0.36090684058E+03  0.00000000000E+00 0.  1.
         -6    2    1    2    0  503  0.87221718023E+02 -0.77826862378E+02 -0.27361797148E+03  0.34343432090E+03  0.17151002842E+03 0.  0.
        -24    2    3    3    0    0 -0.13693832095E+02 -0.20944133197E+02 -0.77134440546E+02  0.11529519435E+03  0.81957807242E+02 0.  0.
          6    2    1    2  501    0 -0.87221718023E+02  0.77826862378E+02  0.15239894749E+03  0.25716033627E+03  0.17100102558E+03 0.  0.
         24    2    5    5    0    0  0.87824479273E+01  0.76623432887E+02  0.77338785007E+02  0.13519982580E+03  0.79683269071E+02 0.  0.
          5    1    5    5  501    0 -0.96004165950E+02  0.12034294914E+01  0.75060162482E+02  0.12196051047E+03  0.47000000000E+01 0. -1.
        -11    1    6    6    0    0  0.87515470787E+01  0.53036107305E+02  0.92624862544E+02  0.10709240597E+03  0.00000000000E+00 0.  1.
         12    1    6    6    0    0  0.30900848611E-01  0.23587325582E+02 -0.15286077537E+02  0.28107419829E+02  0.00000000000E+00 0. -1.
         -5    1    3    3    0  503  0.10091555012E+03 -0.56882729181E+02 -0.19648353094E+03  0.22813912655E+03  0.47000000000E+01 0.  1.
         13    1    4    4    0    0  0.91400902199E+01 -0.47557619177E+02 -0.57241357078E+02  0.74978939384E+02  0.00000000000E+00 0. -1.
        -14    1    4    4    0    0 -0.22833922315E+02  0.26613485979E+02 -0.19893083468E+02  0.40316254961E+02  0.00000000000E+00 0.  1.
</event>
<event>
12    1  0.8133495E-002  0.2000274E+03  0.7818608E-02  0.1149750E+00
         21   -1    0    0  501  502  0.00000000000E+00  0.00000000000E+00  0.92665734927E+03  0.92665734927E+03  0.00000000000E+00 0.  1.
         21   -1    0    0  502  503 -0.00000000000E+00 -0.00000000000E+00 -0.53085803094E+02  0.53085803094E+02  0.00000000000E+00 0.  1.
         -6    2    1    2    0  503 -0.70709392161E+02  0.71004147224E+02  0.22463421723E+03  0.30067714903E+03  0.17293007065E+03 0.  0.
        -24    2    3    3    0    0 -0.88523962689E+02  0.57950125043E+02  0.23940487653E+03  0.27369514031E+03  0.79997662207E+02 0.  0.
          6    2    1    2  501    0  0.70709392161E+02 -0.71004147224E+02  0.64893732895E+03  0.67906600334E+03  0.17311722307E+03 0.  0.
         24    2    5    5    0    0 -0.23418189765E+02 -0.30471104976E+02  0.40463066308E+03  0.41409286096E+03  0.79183484033E+02 0.  0.
          5    1    5    5  501    0  0.94127581926E+02 -0.40533042249E+02  0.24430666587E+03  0.26497314237E+03  0.47000000000E+01 0. -1.
        -11    1    6    6    0    0 -0.27786281927E+02 -0.86694560352E+01  0.37918785069E+03  0.38030338289E+03  0.00000000000E+00 0.  1.
         12    1    6    6    0    0  0.43680921621E+01 -0.21801648940E+02  0.25442812397E+02  0.33789478071E+02  0.00000000000E+00 0. -1.
         -5    1    3    3    0  503  0.17814570528E+02  0.13054022182E+02 -0.14770659304E+02  0.26982008719E+02  0.47000000000E+01 0.  1.
         13    1    4    4    0    0 -0.22423350524E+02  0.62473194532E+02  0.12172391463E+03  0.13864493527E+03  0.00000000000E+00 0. -1.
        -14    1    4    4    0    0 -0.66100612165E+02 -0.45230694894E+01  0.11768096190E+03  0.13505020504E+03  0.00000000000E+00 0.  1.
</event>
<event>
12    1  0.8133495E-002  0.2005990E+03  0.7818608E-02  0.1149368E+00
         21   -1    0    0  503  502  0.00000000000E+00  0.00000000000E+00  0.73125497578E+03  0.73125497578E+03  0.00000000000E+00 0. -1.
         21   -1    0    0  501  503 -0.00000000000E+00 -0.00000000000E+00 -0.85241468552E+02  0.85241468552E+02  0.00000000000E+00 0. -1.
          6    2    1    2  501    0 -0.16382658698E+01 -0.10230694226E+03  0.78932107102E+02  0.21498062452E+03  0.17180511353E+03 0.  0.
         24    2    3    3    0    0 -0.52686804732E+02 -0.11213604948E+03  0.50691581702E+02  0.15563265114E+03  0.79381941654E+02 0.  0.
         -6    2    1    2    0  502  0.16382658698E+01  0.10230694226E+03  0.56708140013E+03  0.60151581982E+03  0.17254151029E+03 0.  0.
        -24    2    5    5    0    0 -0.50285600690E+02  0.33726398698E+02  0.41295806366E+03  0.42495004817E+03  0.79887855725E+02 0.  0.
          5    1    3    3  501    0  0.51048538862E+02  0.98291072158E+01  0.28240525400E+02  0.59347973373E+02  0.47000000000E+01 0. -1.
        -11    1    4    4    0    0 -0.24348662092E+02 -0.88795575074E+02  0.68566769793E+02  0.11479944868E+03  0.00000000000E+00 0.  1.
         12    1    4    4    0    0 -0.28338142640E+02 -0.23340474403E+02 -0.17875188091E+02  0.40833202458E+02  0.00000000000E+00 0. -1.
         -5    1    5    5    0  502  0.51923866560E+02  0.68580543563E+02  0.15412333646E+03  0.17656577165E+03  0.47000000000E+01 0.  1.
         13    1    6    6    0    0 -0.53577668020E+02  0.54053309058E+02  0.36340181506E+03  0.37128588166E+03  0.00000000000E+00 0. -1.
        -14    1    6    6    0    0  0.32920673299E+01 -0.20326910360E+02  0.49556248607E+02  0.53664166518E+02  0.00000000000E+00 0.  1.
</event>
<event>
12    1  0.8133495E-002  0.1760423E+03  0.7818608E-02  0.1173765E+00
         21   -1    0    0  503  502  0.00000000000E+00  0.00000000000E+00  0.21359513730E+03  0.21359513730E+03  0.00000000000E+00 0.  1.
         21   -1    0    0  501  503 -0.00000000000E+00 -0.00000000000E+00 -0.16202957725E+03  0.16202957725E+03  0.00000000000E+00 0.  1.
          6    2    1    2  501    0 -0.66350431548E+01  0.44456768442E+02  0.96857220727E+02  0.19384946997E+03  0.16178957860E+03 0.  0.
         24    2    3    3    0    0 -0.28703311578E+02  0.83917409934E+02  0.57944660360E+02  0.13401279182E+03  0.82072120238E+02 0.  0.
         -6    2    1    2    0  502  0.66350431548E+01 -0.44456768442E+02 -0.45291660683E+02  0.18177524458E+03  0.17020715895E+03 0.  0.
        -24    2    5    5    0    0  0.27131480047E+02 -0.63205601613E+02 -0.84622692542E+02  0.13339505506E+03  0.76825616413E+02 0.  0.
          5    1    3    3  501    0  0.22068268424E+02 -0.39460641492E+02  0.38912560368E+02  0.59836678154E+02  0.47000000000E+01 0. -1.
        -13    1    4    4    0    0 -0.42994297097E+02  0.14350275503E+02  0.40727509973E+02  0.60935786353E+02  0.00000000000E+00 0.  1.
         14    1    4    4    0    0  0.14290985518E+02  0.69567134430E+02  0.17217150387E+02  0.73077005462E+02  0.00000000000E+00 0. -1.
         -5    1    5    5    0  502 -0.20496436892E+02  0.18748833171E+02  0.39331031859E+02  0.48380189517E+02  0.47000000000E+01 0.  1.
         13    1    6    6    0    0  0.75952380086E+01  0.16120395732E+02 -0.33001895617E+01  0.18123080591E+02  0.00000000000E+00 0. -1.
        -14    1    6    6    0    0  0.19536242038E+02 -0.79325997345E+02 -0.81322502981E+02  0.11527197447E+03  0.00000000000E+00 0.  1.
</event>
<event>
12    1  0.8133495E-002  0.2135228E+03  0.7818608E-02  0.1138820E+00
         21   -1    0    0  503  502  0.00000000000E+00  0.00000000000E+00  0.64893321174E+03  0.64893321174E+03  0.00000000000E+00 0.  1.
         21   -1    0    0  501  503 -0.00000000000E+00 -0.00000000000E+00 -0.20830180188E+03  0.20830180188E+03  0.00000000000E+00 0.  1.
          6    2    1    2  501    0  0.83731458209E+02 -0.93658764769E+02 -0.12865200359E+03  0.24922549039E+03  0.17256617780E+03 0.  0.
         24    2    3    3    0    0  0.28386964844E+02  0.14524379185E+02 -0.25747909869E+02  0.89920913915E+02  0.80037731932E+02 0.  0.
         -6    2    1    2    0  502 -0.83731458209E+02  0.93658764769E+02  0.56928341345E+03  0.60800952323E+03  0.17265298779E+03 0.  0.
        -24    2    5    5    0    0 -0.80392116537E+02  0.53574089210E+02  0.20053090840E+03  0.23703993903E+03  0.81499767089E+02 0.  0.
          5    1    3    3  501    0  0.55344493365E+02 -0.10818314395E+03 -0.10290409372E+03  0.15930457647E+03  0.47000000000E+01 0. -1.
        -11    1    4    4    0    0 -0.25041152851E+02 -0.94567766848E+01 -0.23988850075E+01  0.26874609033E+02  0.00000000000E+00 0.  1.
         12    1    4    4    0    0  0.53428117695E+02  0.23981155870E+02 -0.23349024862E+02  0.63046304882E+02  0.00000000000E+00 0. -1.
         -5    1    5    5    0  502 -0.33393416723E+01  0.40084675558E+02  0.36875250506E+03  0.37096958420E+03  0.47000000000E+01 0.  1.
         13    1    6    6    0    0  0.16269276644E+01  0.24877892422E+02  0.86298924455E+01  0.26382408317E+02  0.00000000000E+00 0. -1.
        -14    1    6    6    0    0 -0.82019044201E+02  0.28696196788E+02  0.19190101595E+03  0.21065753071E+03  0.00000000000E+00 0.  1.
</event>
<event>
12    1  0.8133495E-002  0.1809057E+03  0.7818608E-02  0.1167305E+00
         21   -1    0    0  501  502  0.00000000000E+00  0.00000000000E+00  0.14941219883E+03  0.14941219883E+03  0.00000000000E+00 0.  1.
         21   -1    0    0  502  503 -0.00000000000E+00 -0.00000000000E+00 -0.58223640908E+03  0.58223640908E+03  0.00000000000E+00 0.  1.
         -6    2    1    2    0  503 -0.25420987937E+02 -0.47895450429E+02 -0.50643843247E+03  0.53777948037E+03  0.17258818854E+03 0.  0.
        -24    2    3    3    0    0 -0.19309543775E+02 -0.38258915040E+02 -0.51501257289E+03  0.52275222354E+03  0.78710443488E+02 0.  0.
          6    2    1    2  501    0  0.25420987937E+02  0.47895450429E+02  0.73614222229E+02  0.19386912754E+03  0.17095608822E+03 0.  0.
         24    2    5    5    0    0  0.21578694844E+02  0.98080839565E+02  0.55741194899E+02  0.14025129837E+03  0.80485121141E+02 0.  0.
          5    1    5    5  501    0  0.38422930928E+01 -0.50185389136E+02  0.17873027329E+02  0.53617829170E+02  0.47000000000E+01 0. -1.
        -11    1    6    6    0    0  0.14919541551E+02  0.60137093502E+02  0.74916590119E+02  0.97219124714E+02  0.00000000000E+00 0.  1.
         12    1    6    6    0    0  0.66591532935E+01  0.37943746063E+02 -0.19175395220E+02  0.43032173658E+02  0.00000000000E+00 0. -1.
         -5    1    3    3    0  503 -0.61114441624E+01 -0.96365353892E+01  0.85741404195E+01  0.15027256835E+02  0.47000000000E+01 0.  1.
         11    1    4    4    0    0  0.81297164630E+01  0.16816422661E+02 -0.44905013302E+02  0.48634808323E+02  0.00000000000E+00 0. -1.
        -12    1    4    4    0    0 -0.27439260237E+02 -0.55075337701E+02 -0.47010755959E+03  0.47411741522E+03  0.00000000000E+00 0.  1.
</event>
<event>
12    1  0.8133495E-002  0.1935916E+03  0.7818608E-02  0.1155524E+00
         21   -1    0    0  503  502  0.00000000000E+00  0.00000000000E+00  0.10150530336E+04  0.10150530336E+04  0.00000000000E+00 0.  1.
         21   -1    0    0  501  503 -0.00000000000E+00 -0.00000000000E+00 -0.36901687637E+02  0.36901687637E+02  0.00000000000E+00 0.  1.
          6    2    1    2  501    0 -0.71074262297E+02  0.55459258634E+02  0.45121495620E+03  0.49099150066E+03  0.17131969207E+03 0.  0.
         24    2    3    3    0    0 -0.54304576385E+02  0.95682579104E+02  0.40538012183E+03  0.42757178829E+03  0.79877706568E+02 0.  0.
         -6    2    1    2    0  502  0.71074262297E+02 -0.55459258634E+02  0.52693638975E+03  0.56096322056E+03  0.16997204434E+03 0.  0.
        -24    2    5    5    0    0  0.35591607671E+02 -0.50894284534E+02  0.14185932465E+03  0.17419934708E+03  0.79776900154E+02 0.  0.
          5    1    3    3  501    0 -0.16769685912E+02 -0.40223320470E+02  0.45834834372E+02  0.63419712370E+02  0.47000000000E+01 0. -1.
        -13    1    4    4    0    0 -0.41877790555E+01  0.63283214495E+02  0.29846500242E+03  0.30512892423E+03  0.00000000000E+00 0.  1.
         14    1    4    4    0    0 -0.50116797330E+02  0.32399364609E+02  0.10691511941E+03  0.12244286407E+03  0.00000000000E+00 0. -1.
         -5    1    5    5    0  502  0.35482654626E+02 -0.45649740996E+01  0.38507706510E+03  0.38676387348E+03  0.47000000000E+01 0.  1.
         13    1    6    6    0    0  0.52276330560E+02 -0.22281084437E+02  0.47068602249E+02  0.73788310580E+02  0.00000000000E+00 0. -1.
        -14    1    6    6    0    0 -0.16684722890E+02 -0.28613200097E+02  0.94790722402E+02  0.10041103650E+03  0.00000000000E+00 0.  1.
</event>
<event>
12    1  0.8133495E-002  0.2243370E+03  0.7818608E-02  0.1130806E+00
         21   -1    0    0  501  502  0.00000000000E+00  0.00000000000E+00  0.17306498519E+03  0.17306498519E+03  0.00000000000E+00 0.  1.
         21   -1    0    0  502  503 -0.00000000000E+00 -0.00000000000E+00 -0.87284217771E+03  0.87284217771E+03  0.00000000000E+00 0. -1.
         -6    2    1    2    0  503 -0.56803970627E+02  0.13304055236E+03 -0.77706963265E+03  0.80862841317E+03  0.17063474720E+03 0.  0.
        -24    2    3    3    0    0  0.88147100712E+01  0.91113964784E+02 -0.27119811066E+03  0.29677712934E+03  0.78414256230E+02 0.  0.
          6    2    1    2  501    0  0.56803970627E+02 -0.13304055236E+03  0.77292440123E+02  0.23727874973E+03  0.17146604364E+03 0.  0.
         24    2    5    5    0    0  0.35424747511E+01 -0.91794942837E+02 -0.15296878472E+02  0.12268006228E+03  0.79859517480E+02 0.  0.
          5    1    5    5  501    0  0.53261495875E+02 -0.41245609525E+02  0.92589318596E+02  0.11459868745E+03  0.47000000000E+01 0. -1.
        -13    1    6    6    0    0 -0.33545292971E+02 -0.47048371125E+02  0.11114410778E+02  0.58841873126E+02  0.00000000000E+00 0.  1.
         14    1    6    6    0    0  0.37087767722E+02 -0.44746571712E+02 -0.26411289250E+02  0.63838189154E+02  0.00000000000E+00 0. -1.
         -5    1    3    3    0  503 -0.65618680698E+02  0.41926587578E+02 -0.50587152199E+03  0.51185128383E+03  0.47000000000E+01 0.  1.
         11    1    4    4    0    0 -0.40531421151E+01  0.33865547362E+02 -0.20705108168E+03  0.20984149658E+03  0.00000000000E+00 0. -1.
        -12    1    4    4    0    0  0.12867852186E+02  0.57248417421E+02 -0.64147028978E+02  0.86935632763E+02  0.00000000000E+00 0.  1.
</event>
<event>
12    1  0.8133495E-002  0.1848099E+03  0.7818608E-02  0.1163522E+00
         21   -1    0    0  503  502  0.00000000000E+00  0.00000000000E+00  0.28882258667E+02  0.28882258667E+02  0.00000000000E+00 0. -1.
         21   -1    0    0  501  503 -0.00000000000E+00 -0.00000000000E+00 -0.16242125706E+04  0.16242125706E+04  0.00000000000E+00 0. -1.
          6    2    1    2  501    0 -0.65494456629E+02 -0.16500918368E+02 -0.36079686226E+03  0.40480497673E+03  0.17067773496E+03 0.  0.
         24    2    3    3    0    0 -0.81450378346E+01 -0.53694214045E+02 -0.11457873429E+03  0.14923159467E+03  0.78691627449E+02 0.  0.
         -6    2    1    2    0  502  0.65494456629E+02  0.16500918368E+02 -0.12345334497E+04  0.12482898525E+04  0.17202590920E+03 0.  0.
        -24    2    5    5    0    0  0.10138272045E+03 -0.22955732235E+02 -0.89617548222E+03  0.90572161278E+03  0.79973265954E+02 0.  0.
          5    1    3    3  501    0 -0.57349418795E+02  0.37193295677E+02 -0.24621812797E+03  0.25557338207E+03  0.47000000000E+01 0. -1.
        -11    1    4    4    0    0  0.22357337392E+01  0.19598536631E+02 -0.13324416638E+02  0.23804226981E+02  0.00000000000E+00 0.  1.
         12    1    4    4    0    0 -0.10380771574E+02 -0.73292750676E+02 -0.10125431766E+03  0.12542736768E+03  0.00000000000E+00 0. -1.
         -5    1    5    5    0  502 -0.35888263819E+02  0.39456650603E+02 -0.33835796745E+03  0.34256823976E+03  0.47000000000E+01 0.  1.
         11    1    6    6    0    0  0.80171568544E+02  0.13140064811E+02 -0.72332468609E+03  0.72787275208E+03  0.00000000000E+00 0. -1.
        -12    1    6    6    0    0  0.21211151904E+02 -0.36095797046E+02 -0.17285079613E+03  0.17784886070E+03  0.00000000000E+00 0.  1.
</event>
<event>
12    1  0.8133495E-002  0.2296090E+03  0.7818608E-02  0.1126930E+00
         21   -1    0    0  503  502  0.00000000000E+00  0.00000000000E+00  0.20641448675E+03  0.20641448675E+03  0.00000000000E+00 0. -1.
         21   -1    0    0  501  503 -0.00000000000E+00 -0.00000000000E+00 -0.29326727943E+03  0.29326727943E+03  0.00000000000E+00 0.  1.
          6    2    1    2  501    0 -0.14831013764E+03 -0.36571910261E+02 -0.13329710910E+03  0.26542254273E+03  0.17131142796E+03 0.  0.
         24    2    3    3    0    0 -0.17351475996E+03 -0.99812754043E+01 -0.12162805380E+03  0.22668507121E+03  0.79910826890E+02 0.  0.
         -6    2    1    2    0  502  0.14831013764E+03  0.36571910261E+02  0.46444316424E+02  0.23425922345E+03  0.17142609981E+03 0.  0.
        -24    2    5    5    0    0  0.43290299882E+02 -0.23174991695E+02  0.66445397983E+02  0.11169906728E+03  0.75170209623E+02 0.  0.
          5    1    3    3  501    0  0.25204622320E+02 -0.26590634857E+02 -0.11669055297E+02  0.38737471522E+02  0.47000000000E+01 0. -1.
        -11    1    4    4    0    0 -0.64154618206E+02  0.20752006696E+02 -0.82476537947E+02  0.10653093509E+03  0.00000000000E+00 0.  1.
         12    1    4    4    0    0 -0.10936014175E+03 -0.30733282100E+02 -0.39151515858E+02  0.12015413612E+03  0.00000000000E+00 0. -1.
         -5    1    5    5    0  502  0.10501983776E+03  0.59746901956E+02 -0.20001081558E+02  0.12256015617E+03  0.47000000000E+01 0.  1.
         11    1    6    6    0    0  0.37921030088E+02  0.20206582157E+02  0.18395716135E+02  0.46740912031E+02  0.00000000000E+00 0. -1.
        -12    1    6    6    0    0  0.53692697943E+01 -0.43381573852E+02  0.48049681848E+02  0.64958155251E+02  0.00000000000E+00 0.  1.
</event>
<event>
12    1  0.8133495E-002  0.2135207E+03  0.7818608E-02  0.1138855E+00
         21   -1    0    0  501  502  0.00000000000E+00  0.00000000000E+00  0.16092437380E+04  0.16092437380E+04  0.00000000000E+00 0. -1.
         21   -1    0    0  502  503 -0.00000000000E+00 -0.00000000000E+00 -0.14129459058E+03  0.14129459058E+03  0.00000000000E+00 0.  1.
         -6    2    1    2    0  503  0.28982956989E+02  0.12315366101E+03 -0.48669119568E+02  0.21899723087E+03  0.17200077882E+03 0.  0.
        -24    2    3    3    0    0 -0.10643021072E+01  0.10212320582E+02 -0.62394882693E+02  0.10123021202E+03  0.79050681261E+02 0.  0.
          6    2    1    2  501    0 -0.28982956989E+02 -0.12315366101E+03  0.15166182670E+04  0.15315410977E+04  0.17169836970E+03 0.  0.
         24    2    5    5    0    0 -0.15785423391E+02 -0.93046510721E+02  0.14606529451E+04  0.14664655828E+04  0.90041360536E+02 0.  0.
          5    1    5    5  501    0 -0.13197533598E+02 -0.30107150290E+02  0.55965321878E+02  0.65075514939E+02  0.47000000000E+01 0. -1.
        -11    1    6    6    0    0 -0.47878424886E+00 -0.36996396298E+02  0.14895589750E+03  0.15348231811E+03  0.00000000000E+00 0.  1.
         12    1    6    6    0    0 -0.15306639143E+02 -0.56050114423E+02  0.13116970476E+04  0.13129832647E+04  0.00000000000E+00 0. -1.
         -5    1    3    3    0  503  0.30047259096E+02  0.11294134043E+03  0.13725763125E+02  0.11776701886E+03  0.47000000000E+01 0.  1.
         13    1    4    4    0    0 -0.26442541582E+02  0.14019093356E+02  0.38621466684E+01  0.30177129763E+02  0.00000000000E+00 0. -1.
        -14    1    4    4    0    0  0.25378239475E+02 -0.38067727737E+01 -0.66257029362E+02  0.71053082253E+02  0.00000000000E+00 0.  1.
</event>
<event>
12    1  0.8133495E-002  0.2053825E+03  0.7818608E-02  0.1145439E+00
         21   -1    0    0  501  502  0.00000000000E+00  0.00000000000E+00  0.41791625628E+02  0.41791625628E+02  0.00000000000E+00 0. -1.
         21   -1    0    0  502  503 -0.00000000000E+00 -0.00000000000E+00 -0.11012709847E+04  0.11012709847E+04  0.00000000000E+00 0. -1.
         -6    2    1    2    0  503 -0.56699337314E+02  0.95210433500E+02 -0.69741839049E+03  0.72680531834E+03  0.17197010750E+03 0.  0.
        -24    2    3    3    0    0 -0.95556791848E+01  0.12111857395E+03 -0.43786198938E+03  0.46169143413E+03  0.81699685704E+02 0.  0.
          6    2    1    2  501    0  0.56699337314E+02 -0.95210433500E+02 -0.36206096863E+03  0.41625729203E+03  0.17292237180E+03 0.  0.
         24    2    5    5    0    0  0.14590633105E+02  0.65362469014E+01 -0.21682184709E+03  0.23393334307E+03  0.86356739884E+02 0.  0.
          5    1    5    5  501    0  0.42108704210E+02 -0.10174668040E+03 -0.14523912153E+03  0.18232394897E+03  0.47000000000E+01 0. -1.
        -13    1    6    6    0    0  0.30556026619E+01 -0.13503759148E+02 -0.20909633455E+03  0.20955420621E+03  0.00000000000E+00 0.  1.
         14    1    6    6    0    0  0.11535030443E+02  0.20040006050E+02 -0.77255125449E+01  0.24379136856E+02  0.00000000000E+00 0. -1.
         -5    1    3    3    0  503 -0.47143658129E+02 -0.25908140454E+02 -0.25955640111E+03  0.26511388421E+03  0.47000000000E+01 0.  1.
         13    1    4    4    0    0  0.32394807639E+00  0.35179511408E+02 -0.27536609489E+03  0.27760437529E+03  0.00000000000E+00 0. -1.
        -14    1    4    4    0    0 -0.98796272612E+01  0.85939062546E+02 -0.16249589449E+03  0.18408705884E+03  0.00000000000E+00 0.  1.
</event>
<event>
12    1  0.8133495E-002  0.1728279E+03  0.7818608E-02  0.1175102E+00
         21   -1    0    0  503  502  0.00000000000E+00  0.00000000000E+00  0.10535680118E+04  0.10535680118E+04  0.00000000000E+00 0. -1.
         21   -1    0    0  501  503 -0.00000000000E+00 -0.00000000000E+00 -0.61626127944E+02  0.61626127944E+02  0.00000000000E+00 0. -1.
          6    2    1    2  501    0  0.26252246793E+01  0.29278275805E+01  0.90593625386E+03  0.92214895414E+03  0.17211256077E+03 0.  0.
         24    2    3    3    0    0 -0.30798528622E+02  0.17020822428E+02  0.85565748198E+03  0.85997335852E+03  0.78525111477E+02 0.  0.
         -6    2    1    2    0  502 -0.26252246793E+01 -0.29278275805E+01  0.86005630019E+02  0.19304518563E+03  0.17278313379E+03 0.  0.
        -24    2    5    5    0    0 -0.12601131182E+02  0.44451913837E+02  0.14158034489E+02  0.10627810898E+03  0.94656354022E+02 0.  0.
          5    1    3    3  501    0  0.33423753302E+02 -0.14092994847E+02  0.50278771881E+02  0.62175595618E+02  0.47000000000E+01 0. -1.
        -13    1    4    4    0    0  0.58027821750E+01  0.41569020959E+02  0.41238344650E+03  0.41451388726E+03  0.00000000000E+00 0.  1.
         14    1    4    4    0    0 -0.36601310797E+02 -0.24548198531E+02  0.44327403548E+03  0.44545947126E+03  0.00000000000E+00 0. -1.
         -5    1    5    5    0  502  0.99759065022E+01 -0.47379741418E+02  0.71847595530E+02  0.86767076652E+02  0.47000000000E+01 0.  1.
         11    1    6    6    0    0 -0.30451237904E+02  0.20769570517E+02  0.48491224686E+02  0.60910194720E+02  0.00000000000E+00 0. -1.
        -12    1    6    6    0    0  0.17850106722E+02  0.23682343320E+02 -0.34333190197E+02  0.45367914259E+02  0.00000000000E+00 0.  1.
</event>
<event>
12    1  0.8133495E-002  0.1898101E+03  0.7818608E-02  0.1159312E+00
         21   -1    0    0  501  502  0.00000000000E+00  0.00000000000E+00  0.53430217906E+02  0.53430217906E+02  0.00000000000E+00 0.  1.
         21   -1    0    0  502  503 -0.00000000000E+00 -0.00000000000E+00 -0.67210228058E+03  0.67210228058E+03  0.00000000000E+00 0.  1.
         -6    2    1    2    0  503  0.66197791840E+02 -0.32676214662E+02 -0.34738006901E+03  0.39443246059E+03  0.17162217505E+03 0.  0.
        -24    2    3    3    0    0  0.56877344913E-01 -0.56848067882E+02 -0.10926304299E+03  0.14607645172E+03  0.78537959785E+02 0.  0.
          6    2    1    2  501    0 -0.66197791840E+02  0.32676214662E+02 -0.27129199366E+03  0.33110003790E+03  0.17486568166E+03 0.  0.
         24    2    5    5    0    0 -0.45879412832E+01  0.75590284074E+02 -0.13270161176E+03  0.17340801212E+03  0.82010247229E+02 0.  0.
          5    1    5    5  501    0 -0.61609850557E+02 -0.42914069412E+02 -0.13859038190E+03  0.15769202578E+03  0.47000000000E+01 0. -1.
        -11    1    6    6    0    0 -0.35030589777E+02  0.33668901549E+02 -0.10251538652E+03  0.11344664660E+03  0.00000000000E+00 0.  1.
         12    1    6    6    0    0  0.30442648494E+02  0.41921382525E+02 -0.30186225239E+02  0.59961365514E+02  0.00000000000E+00 0. -1.
         -5    1    3    3    0  503  0.66140914495E+02  0.24171853221E+02 -0.23811702603E+03  0.24835600887E+03  0.47000000000E+01 0.  1.
         11    1    4    4    0    0 -0.27398910473E+02  0.69008003733E-01 -0.11603750908E+02  0.29754866700E+02  0.00000000000E+00 0. -1.
        -12    1    4    4    0    0  0.27455787818E+02 -0.56917075886E+02 -0.97659292078E+02  0.11632158502E+03  0.00000000000E+00 0.  1.
</event>
<event>
12    1  0.8133495E-002  0.2080206E+03  0.7818608E-02  0.1143555E+00
         21   -1    0    0  501  502  0.00000000000E+00  0.00000000000E+00  0.58112928618E+02  0.58112928618E+02  0.00000000000E+00 0. -1.
         21   -1    0    0  502  503 -0.00000000000E+00 -0.00000000000E+00 -0.96762006574E+03  0.96762006574E+03  0.00000000000E+00 0. -1.
         -6    2    1    2    0  503  0.35302137932E+02  0.10730185580E+03 -0.70323922066E+03  0.73278416880E+03  0.17224200233E+03 0.  0.
        -24    2    3    3    0    0 -0.18115307768E+02  0.92284409217E+02 -0.62264655244E+03  0.63482389431E+03  0.80424318236E+02 0.  0.
          6    2    1    2  501    0 -0.35302137932E+02 -0.10730185580E+03 -0.20626791646E+03  0.29294882556E+03  0.17467865306E+03 0.  0.
         24    2    5    5    0    0 -0.61074285793E+02 -0.19757765517E+02 -0.16093018575E+03  0.19094014370E+03  0.80244477107E+02 0.  0.
          5    1    5    5  501    0  0.25772147861E+02 -0.87544090286E+02 -0.45337730717E+02  0.10200868187E+03  0.47000000000E+01 0. -1.
        -11    1    6    6    0    0 -0.29777499085E+02 -0.24520992430E+02 -0.15370159063E+03  0.15846815921E+03  0.00000000000E+00 0.  1.
         12    1    6    6    0    0 -0.31296786708E+02  0.47632269130E+01 -0.72285951154E+01  0.32471984482E+02  0.00000000000E+00 0. -1.
         -5    1    3    3    0  503  0.53417445699E+02  0.15017446586E+02 -0.80592668225E+02  0.97960274493E+02  0.47000000000E+01 0.  1.
         13    1    4    4    0    0  0.21639758119E+02  0.78565696036E+02 -0.42736500073E+03  0.43506515785E+03  0.00000000000E+00 0. -1.
        -14    1    4    4    0    0 -0.39755065887E+02  0.13718713181E+02 -0.19528155170E+03  0.19975873645E+03  0.00000000000E+00 0.  1.
</event>
<event>
12    1  0.8133495E-002  0.1937514E+03  0.7818608E-02  0.1155434E+00
         21   -1    0    0  501  502  0.00000000000E+00  0.00000000000E+00  0.53797234544E+03  0.53797234544E+03  0.00000000000E+00 0.  1.
         21   -1    0    0  502  503 -0.00000000000E+00 -0.00000000000E+00 -0.13839967955E+03  0.13839967955E+03  0.00000000000E+00 0.  1.
         -6    2    1    2    0  503  0.44563826444E+02  0.75250890077E+02 -0.38858828105E+02  0.19760971526E+03  0.17289002273E+03 0.  0.
        -24    2    3    3    0    0  0.93812221454E+01  0.96970456199E+02 -0.71452395969E+02  0.14475154783E+03  0.79726338215E+02 0.  0.
          6    2    1    2  501    0 -0.44563826444E+02 -0.75250890077E+02  0.43843149400E+03  0.47876230973E+03  0.17129665263E+03 0.  0.
         24    2    5    5    0    0 -0.63394947239E+02 -0.69560725281E+02  0.17443281182E+03  0.21398998626E+03  0.80667803624E+02 0.  0.
          5    1    5    5  501    0  0.18831120795E+02 -0.56901647957E+01  0.26399868217E+03  0.26477232347E+03  0.47000000000E+01 0. -1.
        -13    1    6    6    0    0 -0.29296667268E+01 -0.58881963581E+02  0.11113711586E+03  0.12580591045E+03  0.00000000000E+00 0.  1.
         14    1    6    6    0    0 -0.60465280512E+02 -0.10678761700E+02  0.63295695961E+02  0.88184075808E+02  0.00000000000E+00 0. -1.
         -5    1    3    3    0  503  0.35182604298E+02 -0.21719566122E+02  0.32593567863E+02  0.52858167428E+02  0.47000000000E+01 0.  1.
         13    1    4    4    0    0  0.19575002507E+02  0.19011683382E+02  0.12252686274E+02  0.29912424660E+02  0.00000000000E+00 0. -1.
        -14    1    4    4    0    0 -0.10193780361E+02  0.77958772817E+02 -0.83705082242E+02  0.11483912317E+03  0.00000000000E+00 0.  1.
</event>
<event>
12    1  0.8133495E-002  0.2317184E+03  0.7818608E-02  0.1125495E+00
         21   -1    0    0  501  502  0.00000000000E+00  0.00000000000E+00  0.81529141718E+02  0.81529141718E+02  0.00000000000E+00 0.  1.
         21   -1    0    0  502  503 -0.00000000000E+00 -0.00000000000E+00 -0.66059266992E+03  0.66059266992E+03  0.00000000000E+00 0.  1.
         -6    2    1    2    0  503 -0.12051837875E+03  0.97627707709E+02 -0.26482098364E+03  0.35188575922E+03  0.17215570058E+03 0.  0.
        -24    2    3    3    0    0  0.45947979608E-01  0.19153937107E+02 -0.65702788838E+02  0.10619482522E+03  0.81201040783E+02 0.  0.
          6    2    1    2  501    0  0.12051837875E+03 -0.97627707709E+02 -0.31424254456E+03  0.39023605242E+03  0.17169726516E+03 0.  0.
         24    2    5    5    0    0  0.10589845505E+03 -0.11776190978E+03 -0.31788715328E+03  0.36465282677E+03  0.82686707932E+02 0.  0.
          5    1    5    5  501    0  0.14619923693E+02  0.20134202073E+02  0.36446087182E+01  0.25583225649E+02  0.47000000000E+01 0. -1.
        -13    1    6    6    0    0  0.32066954202E+02  0.17869053177E+01 -0.28420829984E+02  0.42886200104E+02  0.00000000000E+00 0.  1.
         14    1    6    6    0    0  0.73831500852E+02 -0.11954881510E+03 -0.28946632330E+03  0.32176662666E+03  0.00000000000E+00 0. -1.
         -5    1    3    3    0  503 -0.12056432673E+03  0.78473770602E+02 -0.19911819480E+03  0.24569093400E+03  0.47000000000E+01 0.  1.
         11    1    4    4    0    0 -0.59161317763E+00  0.30762753602E+02 -0.81192684116E+02  0.86827121163E+02  0.00000000000E+00 0. -1.
        -12    1    4    4    0    0  0.63756115723E+00 -0.11608816495E+02  0.15489895279E+02  0.19367704056E+02  0.00000000000E+00 0.  1.
</event>
<event>
12    1  0.8133495E-002  0.3247701E+03  0.7818608E-02  0.1073658E+00
         21   -1    0    0  501  502  0.00000000000E+00  0.00000000000E+00  0.17427184716E+03  0.17427184716E+03  0.00000000000E+00 0.  1.
         21   -1    0    0  502  503 -0.00000000000E+00 -0.00000000000E+00 -0.84168283575E+03  0.84168283575E+03  0.00000000000E+00 0.  1.
         -6    2    1    2    0  503  0.15708246955E+03  0.22398430124E+03 -0.60525469692E+03  0.68688342283E+03  0.17501919601E+03 0.  0.
        -24    2    3    3    0    0  0.82144184640E+01  0.71129875874E+02 -0.25413981965E+03  0.27599424187E+03  0.80366894315E+02 0.  0.
          6    2    1    2  501    0 -0.15708246955E+03 -0.22398430124E+03 -0.62156291674E+02  0.32907126008E+03  0.17199017463E+03 0.  0.
         24    2    5    5    0    0 -0.15944200033E+03 -0.12935441826E+03 -0.83725665254E+01  0.22009804672E+03  0.78858945636E+02 0.  0.
          5    1    5    5  501    0  0.23595307785E+01 -0.94629882977E+02 -0.53783725149E+02  0.10897321335E+03  0.47000000000E+01 0. -1.
        -11    1    6    6    0    0 -0.65937159374E+02 -0.10123365930E+03  0.80633449228E+01  0.12108253505E+03  0.00000000000E+00 0.  1.
         12    1    6    6    0    0 -0.93504840957E+02 -0.28120758959E+02 -0.16435911448E+02  0.99015511673E+02  0.00000000000E+00 0. -1.
         -5    1    3    3    0  503  0.14886805109E+03  0.15285442537E+03 -0.35111487727E+03  0.41088918096E+03  0.47000000000E+01 0.  1.
         13    1    4    4    0    0 -0.17628310881E+02  0.74827911682E+02 -0.21981133224E+03  0.23286690510E+03  0.00000000000E+00 0. -1.
        -14    1    4    4    0    0  0.25842729345E+02 -0.36980358087E+01 -0.34328487408E+02  0.43127336766E+02  0.00000000000E+00 0.  1.
</event>
<event>
12    1  0.8133495E-002  0.1864268E+03  0.7818608E-02  0.1162504E+00
         21   -1    0    0  501  502  0.00000000000E+00  0.00000000000E+00  0.13398523338E+04  0.13398523338E+04  0.00000000000E+00 0. -1.
         21   -1    0    0  502  503 -0.00000000000E+00 -0.00000000000E+00 -0.33750478421E+02  0.33750478421E+02  0.00000000000E+00 0. -1.
         -6    2    1    2    0  503 -0.11729713148E+01  0.63250050343E+02  0.30854368115E+03  0.35877412666E+03  0.17180723516E+03 0.  0.
        -24    2    3    3    0    0  0.62960817657E+01 -0.69257317874E+01  0.59553825166E+02  0.99933508644E+02  0.79702206064E+02 0.  0.
          6    2    1    2  501    0  0.11729713148E+01 -0.63250050343E+02  0.99755817420E+03  0.10148286855E+04  0.17536534817E+03 0.  0.
         24    2    5    5    0    0  0.19125574960E+01 -0.20090458162E+02  0.20110047452E+03  0.21718825604E+03  0.79511340851E+02 0.  0.
          5    1    5    5  501    0 -0.73958618124E+00 -0.43159592181E+02  0.79645769968E+03  0.79764042949E+03  0.47000000000E+01 0. -1.
        -11    1    6    6    0    0  0.35000882042E+02 -0.23440882848E+02  0.15311753759E+03  0.15880653969E+03  0.00000000000E+00 0.  1.
         12    1    6    6    0    0 -0.33088324546E+02  0.33504246861E+01  0.47982936932E+02  0.58381716346E+02  0.00000000000E+00 0. -1.
         -5    1    3    3    0  503 -0.74690530804E+01  0.70175782131E+02  0.24898985598E+03  0.25884061801E+03  0.47000000000E+01 0.  1.
         13    1    4    4    0    0  0.12507779445E+02  0.31385145273E+02  0.49343421854E+02  0.59801715449E+02  0.00000000000E+00 0. -1.
        -14    1    4    4    0    0 -0.62116976797E+01 -0.38310877060E+02  0.10210403312E+02  0.40131793194E+02  0.00000000000E+00 0.  1.
</event>
<event>
12    1  0.8133495E-002  0.1978519E+03  0.7818608E-02  0.1151776E+00
         21   -1    0    0  503  502  0.00000000000E+00  0.00000000000E+00  0.14480800461E+04  0.14480800461E+04  0.00000000000E+00 0. -1.
         21   -1    0    0  501  503 -0.00000000000E+00 -0.00000000000E+00 -0.59477346930E+02  0.59477346930E+02  0.00000000000E+00 0. -1.
          6    2    1    2  501    0 -0.46827577411E+02  0.84873036472E+02  0.13563423562E+03  0.23906405012E+03  0.17134386439E+03 0.  0.
         24    2    3    3    0    0  0.34285049281E+01  0.13916046764E+02  0.12922087013E+03  0.15174973596E+03  0.78259428086E+02 0.  0.
         -6    2    1    2    0  502  0.46827577411E+02 -0.84873036472E+02  0.12529684636E+04  0.12684933429E+04  0.17247937855E+03 0.  0.
        -24    2    5    5    0    0  0.73819786829E+02 -0.64192013036E+02  0.50640785652E+03  0.52114395067E+03  0.74646665806E+02 0.  0.
          5    1    3    3  501    0 -0.50256082339E+02  0.70956989707E+02  0.64133654909E+01  0.87314314160E+02  0.47000000000E+01 0. -1.
        -11    1    4    4    0    0  0.83788473823E+01  0.16628087347E+02 -0.34686880475E+01  0.18940173417E+02  0.00000000000E+00 0.  1.
         12    1    4    4    0    0 -0.49503424542E+01 -0.27120405827E+01  0.13268955818E+03  0.13280956255E+03  0.00000000000E+00 0. -1.
         -5    1    5    5    0  502 -0.26992209419E+02 -0.20681023436E+02  0.74656060705E+03  0.74734939226E+03  0.47000000000E+01 0.  1.
         11    1    6    6    0    0  0.45900231515E+02 -0.20150801123E+02  0.39463176140E+03  0.39780285713E+03  0.00000000000E+00 0. -1.
        -12    1    6    6    0    0  0.27919555314E+02 -0.44041211912E+02  0.11177609512E+03  0.12334109354E+03  0.00000000000E+00 0.  1.
</event>
<event>
12    1  0.8133495E-002  0.2162344E+03  0.7818608E-02  0.1136809E+00
         21   -1    0    0  501  502  0.00000000000E+00  0.00000000000E+00  0.14186857349E+03  0.14186857349E+03  0.00000000000E+00 0. -1.
         21   -1    0    0  502  503 -0.00000000000E+00 -0.00000000000E+00 -0.89258428977E+03  0.89258428977E+03  0.00000000000E+00 0. -1.
         -6    2    1    2    0  503 -0.11996015130E+03 -0.53473718631E+02 -0.78624708476E+03  0.81531871105E+03  0.17120235343E+03 0.  0.
        -24    2    3    3    0    0 -0.10555972768E+03 -0.62704852727E+02 -0.34904938271E+03  0.37776127858E+03  0.76114107492E+02 0.  0.
          6    2    1    2  501    0  0.11996015130E+03  0.53473718631E+02  0.35531368471E+02  0.21913415221E+03  0.17177724539E+03 0.  0.
         24    2    5    5    0    0  0.97888510611E+02  0.97727282023E+02  0.32688708832E+01  0.15990161093E+03  0.80156456387E+02 0.  0.
          5    1    5    5  501    0  0.22071640686E+02 -0.44253563392E+02  0.32262497588E+02  0.59232541276E+02  0.47000000000E+01 0. -1.
        -13    1    6    6    0    0  0.32776638531E+01  0.19905478416E+02 -0.27008159440E+02  0.33710707908E+02  0.00000000000E+00 0.  1.
         14    1    6    6    0    0  0.94610846758E+02  0.77821803607E+02  0.30277030323E+02  0.12619090302E+03  0.00000000000E+00 0. -1.
         -5    1    3    3    0  503 -0.14400423615E+02  0.92311340956E+01 -0.43719770205E+03  0.43755743247E+03  0.47000000000E+01 0.  1.
         13    1    4    4    0    0 -0.11191870811E+03 -0.69580919709E+02 -0.34037156631E+03  0.36499329414E+03  0.00000000000E+00 0. -1.
        -14    1    4    4    0    0  0.63589804274E+01  0.68760669819E+01 -0.86778163965E+01  0.12767984439E+02  0.00000000000E+00 0.  1.
</event>
<event>
12    1  0.8133495E-002  0.1938871E+03  0.7818608E-02  0.1157016E+00
         21   -1    0    0  501  502  0.00000000000E+00  0.00000000000E+00  0.17391121426E+03  0.17391121426E+03  0.00000000000E+00 0. -1.
         21   -1    0    0  502  503 -0.00000000000E+00 -0.00000000000E+00 -0.21316681590E+03  0.21316681590E+03  0.00000000000E+00 0. -1.
         -6    2    1    2    0  503 -0.61667225197E+02 -0.29581258362E+02 -0.53903146506E+02  0.19263841176E+03  0.17183163554E+03 0.  0.
        -24    2    3    3    0    0 -0.38092570926E+02  0.33108778817E+02  0.16613272496E+02  0.95270755759E+02  0.79077688923E+02 0.  0.
          6    2    1    2  501    0  0.61667225197E+02  0.29581258362E+02  0.14647544862E+02  0.19443961840E+03  0.18142303361E+03 0.  0.
         24    2    5    5    0    0  0.75096557576E+02  0.63064504557E+02 -0.35762217557E+02  0.13227283554E+03  0.81243720513E+02 0.  0.
          5    1    5    5  501    0 -0.13429332379E+02 -0.33483246196E+02  0.50409762419E+02  0.62166782860E+02  0.47000000000E+01 0. -1.
        -11    1    6    6    0    0  0.77146734776E+01  0.59302154036E+02 -0.18793823858E+02  0.62685480578E+02  0.00000000000E+00 0.  1.
         12    1    6    6    0    0  0.67381884098E+02  0.37623505217E+01 -0.16968393700E+02  0.69587354964E+02  0.00000000000E+00 0. -1.
         -5    1    3    3    0  503 -0.23574654270E+02 -0.62690037179E+02 -0.70516419001E+02  0.97367655996E+02  0.47000000000E+01 0.  1.
         13    1    4    4    0    0 -0.53206362614E+02  0.16384974517E-01 -0.41748937021E+01  0.53369907519E+02  0.00000000000E+00 0. -1.
        -14    1    4    4    0    0  0.15113791688E+02  0.33092393843E+02  0.20788166198E+02  0.41900848241E+02  0.00000000000E+00 0.  1.
</event>
<event>
12    1  0.8133495E-002  0.2259304E+03  0.7818608E-02  0.1129596E+00
         21   -1    0    0  503  502  0.00000000000E+00  0.00000000000E+00  0.95746835598E+02  0.95746835598E+02  0.00000000000E+00 0.  1.
         21   -1    0    0  501  503 -0.00000000000E+00 -0.00000000000E+00 -0.53242720971E+03  0.53242720971E+03  0.00000000000E+00 0. -1.
          6    2    1    2  501    0 -0.11980695412E+03 -0.83114782930E+02 -0.22180053534E+03  0.31637619348E+03  0.17215296956E+03 0.  0.
         24    2    3    3    0    0  0.31617137828E+01 -0.10926099835E+02 -0.62925380361E+02  0.10284421901E+03  0.80547835465E+02 0.  0.
         -6    2    1    2    0  502  0.11980695412E+03  0.83114782930E+02 -0.21487983877E+03  0.31179785183E+03  0.17257688691E+03 0.  0.
        -24    2    5    5    0    0  0.95846231293E+02  0.11940693088E+03 -0.13224839044E+03  0.21830302579E+03  0.81988164409E+02 0.  0.
          5    1    3    3  501    0 -0.12296866791E+03 -0.72188683095E+02 -0.15887515498E+03  0.21353197447E+03  0.47000000000E+01 0. -1.
        -13    1    4    4    0    0 -0.26033271661E+00  0.78190712584E+01 -0.78096510784E+02  0.78487391631E+02  0.00000000000E+00 0.  1.
         14    1    4    4    0    0  0.34220464994E+01 -0.18745171094E+02  0.15171130422E+02  0.24356827377E+02  0.00000000000E+00 0. -1.
         -5    1    5    5    0  502  0.23960722829E+02 -0.36292147945E+02 -0.82631448336E+02  0.93494826034E+02  0.47000000000E+01 0.  1.
         11    1    6    6    0    0  0.82380616332E+01 -0.12718555737E+02 -0.11547821551E+02  0.19052020945E+02  0.00000000000E+00 0. -1.
        -12    1    6    6    0    0  0.87608169660E+02  0.13212548661E+03 -0.12070056888E+03  0.19925100485E+03  0.00000000000E+00 0.  1.
</event>
<event>
12    1  0.8133495E-002  0.1745971E+03  0.7818608E-02  0.1173973E+00
         21   -1    0    0  501  502  0.00000000000E+00  0.00000000000E+00  0.42920754004E+03  0.42920754004E+03  0.00000000000E+00 0. -1.
         21   -1    0    0  502  503 -0.00000000000E+00 -0.00000000000E+00 -0.69811341713E+02  0.69811341713E+02  0.00000000000E+00 0. -1.
         -6    2    1    2    0  503 -0.84746916821E+01  0.25327803636E+02  0.17115568264E+03  0.24449621465E+03  0.17254220713E+03 0.  0.
        -24    2    3    3    0    0 -0.27975644441E+02 -0.17556286849E+02  0.24270836941E+02  0.90170000833E+02  0.80316222736E+02 0.  0.
          6    2    1    2  501    0  0.84746916821E+01 -0.25327803636E+02  0.18824051569E+03  0.25452266710E+03  0.16921577434E+03 0.  0.
         24    2    5    5    0    0  0.50173711822E+01 -0.51415475372E+01  0.15183732310E+02  0.80194877370E+02  0.78415962054E+02 0.  0.
          5    1    5    5  501    0  0.34573204999E+01 -0.20186256099E+02  0.17305678338E+03  0.17432778973E+03  0.47000000000E+01 0. -1.
        -13    1    6    6    0    0  0.22689997070E+02  0.30747813890E+02  0.12047542750E+02  0.40067534393E+02  0.00000000000E+00 0.  1.
         14    1    6    6    0    0 -0.17672625888E+02 -0.35889361427E+02  0.31361895607E+01  0.40127342977E+02  0.00000000000E+00 0. -1.
         -5    1    3    3    0  503  0.19500952759E+02  0.42884090485E+02  0.14688484570E+03  0.15432621381E+03  0.47000000000E+01 0.  1.
         11    1    4    4    0    0 -0.43697045841E+02 -0.73799054925E+00 -0.13669436450E+02  0.45791155676E+02  0.00000000000E+00 0. -1.
        -12    1    4    4    0    0  0.15721401400E+02 -0.16818296299E+02  0.37940273392E+02  0.44378845157E+02  0.00000000000E+00 0.  1.
</event>
<event>
12    1  0.8133495E-002  0.2049663E+03  0.7818608E-02  0.1146200E+00
         21   -1    0    0  503  502  0.00000000000E+00  0.00000000000E+00  0.14719064505E+03  0.14719064505E+03  0.00000000000E+00 0. -1.
         21   -1    0    0  501  503 -0.00000000000E+00 -0.00000000000E+00 -0.30482032587E+03  0.30482032587E+03  0.00000000000E+00 0. -1.
          6    2    1    2  501    0 -0.57593688580E+02  0.94697448806E+02 -0.14186310558E+03  0.24927161091E+03  0.17241390752E+03 0.  0.
         24    2    3    3    0    0 -0.25890711439E+02  0.10809448025E+03 -0.16002638215E+03  0.21007271007E+03  0.78532508770E+02 0.  0.
         -6    2    1    2    0  502  0.57593688580E+02 -0.94697448806E+02 -0.15766575245E+02  0.20273936002E+03  0.16902669443E+03 0.  0.
        -24    2    5    5    0    0  0.83651345364E+01 -0.20119684958E+01  0.34172621650E+02  0.86420564546E+02  0.78909583784E+02 0.  0.
          5    1    3    3  501    0 -0.31702977141E+02 -0.13397031445E+02  0.18163276570E+02  0.39198900837E+02  0.47000000000E+01 0. -1.
        -13    1    4    4    0    0  0.22273888842E+02  0.63849158550E+02 -0.59105618448E+02  0.89812667836E+02  0.00000000000E+00 0.  1.
         14    1    4    4    0    0 -0.48164600281E+02  0.44245321701E+02 -0.10092076370E+03  0.12026004223E+03  0.00000000000E+00 0. -1.
         -5    1    5    5    0  502  0.49228554043E+02 -0.92685480311E+02 -0.49939196895E+02  0.11631879547E+03  0.47000000000E+01 0.  1.
         11    1    6    6    0    0  0.23162630595E+02  0.22307910666E+02 -0.10168455053E+02  0.33727552721E+02  0.00000000000E+00 0. -1.
        -12    1    6    6    0    0 -0.14797496059E+02 -0.24319879162E+02  0.44341076702E+02  0.52693011825E+02  0.00000000000E+00 0.  1.
</event>
<event>
12    1  0.8133495E-002  0.1910756E+03  0.7818608E-02  0.1158275E+00
         21   -1    0    0  503  502  0.00000000000E+00  0.00000000000E+00  0.35549528995E+03  0.35549528995E+03  0.00000000000E+00 0. -1.
         21   -1    0    0  501  503 -0.00000000000E+00 -0.00000000000E+00 -0.14159641834E+03  0.14159641834E+03  0.00000000000E+00 0. -1.
          6    2    1    2  501    0  0.78708444697E+02 -0.27656506728E+01 -0.25674522433E+02  0.19279280941E+03  0.17408968427E+03 0.  0.
         24    2    3    3    0    0  0.47112519688E+02  0.57561473997E+02  0.18269730299E+02  0.11160874819E+03  0.81177686763E+02 0.  0.
         -6    2    1    2    0  502 -0.78708444697E+02  0.27656506728E+01  0.23957339404E+03  0.30429889888E+03  0.17029310215E+03 0.  0.
        -24    2    5    5    0    0  0.44158476535E+01  0.28999260935E+02  0.18135938349E+03  0.19937601620E+03  0.77453941214E+02 0.  0.
          5    1    3    3  501    0  0.31595925008E+02 -0.60327124670E+02 -0.43944252732E+02  0.81184061221E+02  0.47000000000E+01 0. -1.
        -11    1    4    4    0    0  0.90331736643E+00  0.12717065838E+02  0.41299449610E+02  0.43222497428E+02  0.00000000000E+00 0.  1.
         12    1    4    4    0    0  0.46209202322E+02  0.44844408159E+02 -0.23029719311E+02  0.68386250767E+02  0.00000000000E+00 0. -1.
         -5    1    5    5    0  502 -0.83124292350E+02 -0.26233610262E+02  0.58214010545E+02  0.10492288268E+03  0.47000000000E+01 0.  1.
         13    1    6    6    0    0  0.59514571794E+01  0.19198150523E+02  0.18692383408E+03  0.18800135259E+03  0.00000000000E+00 0. -1.
        -14    1    6    6    0    0 -0.15356095259E+01  0.98011104114E+01 -0.55644505910E+01  0.11374663612E+02  0.00000000000E+00 0.  1.
</event>
<event>
12    1  0.8133495E-002  0.2068958E+03  0.7818608E-02  0.1144236E+00
         21   -1    0    0  503  502  0.00000000000E+00  0.00000000000E+00  0.75410068245E+02  0.75410068245E+02  0.00000000000E+00 0. -1.
         21   -1    0    0  501  503 -0.00000000000E+00 -0.00000000000E+00 -0.57774803919E+03  0.57774803919E+03  0.00000000000E+00 0. -1.
          6    2    1    2  501    0 -0.37030309114E+02  0.10963886527E+03 -0.20339608324E+03  0.29013070196E+03  0.17150490656E+03 0.  0.
         24    2    3    3    0    0  0.46179845139E+02  0.50889072107E+02 -0.96020601960E+02  0.14205284424E+03  0.78973279027E+02 0.  0.
         -6    2    1    2    0  502  0.37030309114E+02 -0.10963886527E+03 -0.29894188771E+03  0.36302740547E+03  0.17038403777E+03 0.  0.
        -24    2    5    5    0    0  0.72768732077E+02 -0.28742439722E+02 -0.12427481154E+03  0.16719037109E+03  0.79918553480E+02 0.  0.
          5    1    3    3  501    0 -0.83210154253E+02  0.58749793158E+02 -0.10737548128E+03  0.14807785772E+03  0.47000000000E+01 0. -1.
        -13    1    4    4    0    0  0.77206709457E+01  0.45773126268E+02 -0.97119049339E+01  0.47424771435E+02  0.00000000000E+00 0.  1.
         14    1    4    4    0    0  0.38459174193E+02  0.51159458395E+01 -0.86308697026E+02  0.94628072810E+02  0.00000000000E+00 0. -1.
         -5    1    5    5    0  502 -0.35738422963E+02 -0.80896425544E+02 -0.17466707616E+03  0.19583703438E+03  0.47000000000E+01 0.  1.
         11    1    6    6    0    0  0.64533189281E+02 -0.48699552937E+02 -0.12074839732E+03  0.14531467383E+03  0.00000000000E+00 0. -1.
        -12    1    6    6    0    0  0.82355427966E+01  0.19957113215E+02 -0.35264142196E+01  0.21875697253E+02  0.00000000000E+00 0.  1.
</event>
<event>
12    1  0.8133495E-002  0.2092146E+03  0.7818608E-02  0.1143043E+00
         21   -1    0    0  503  502  0.00000000000E+00  0.00000000000E+00  0.20039074556E+03  0.20039074556E+03  0.00000000000E+00 0.  1.
         21   -1    0    0  501  503 -0.00000000000E+00 -0.00000000000E+00 -0.28515587700E+03  0.28515587700E+03  0.00000000000E+00 0.  1.
          6    2    1    2  501    0 -0.81111423819E+02 -0.84643277727E+02 -0.16330970388E+03  0.26207400649E+03  0.16813440444E+03 0.  0.
         24    2    3    3    0    0 -0.87896024553E+02 -0.38913785066E+01 -0.12522688812E+03  0.17241191365E+03  0.79392949963E+02 0.  0.
         -6    2    1    2    0  502  0.81111423819E+02  0.84643277727E+02  0.78544572436E+02  0.22347261607E+03  0.17328361935E+03 0.  0.
        -24    2    5    5    0    0  0.57385587764E+02 -0.11418575921E+02  0.76227278757E+02  0.12438550857E+03  0.78978903235E+02 0.  0.
          5    1    3    3  501    0  0.67846007340E+01 -0.80751899220E+02 -0.38082815768E+02  0.89662092835E+02  0.47000000000E+01 0. -1.
        -11    1    4    4    0    0 -0.57123127261E+02 -0.27711427587E+02 -0.31390079232E+02  0.70825927182E+02  0.00000000000E+00 0.  1.
         12    1    4    4    0    0 -0.30772897291E+02  0.23820049081E+02 -0.93836808884E+02  0.10158598647E+03  0.00000000000E+00 0. -1.
         -5    1    5    5    0  502  0.23725836055E+02  0.96061853647E+02  0.23172936794E+01  0.99087107500E+02  0.47000000000E+01 0.  1.
         11    1    6    6    0    0 -0.44759942030E+00 -0.32285341390E+02  0.45115987963E+02  0.55479689831E+02  0.00000000000E+00 0. -1.
        -12    1    6    6    0    0  0.57833187185E+02  0.20866765469E+02  0.31111290794E+02  0.68905818738E+02  0.00000000000E+00 0.  1.
</event>
<event>
12    1  0.8133495E-002  0.2003793E+03  0.7818608E-02  0.1149745E+00
         21   -1    0    0  501  502  0.00000000000E+00  0.00000000000E+00  0.84399832520E+02  0.84399832520E+02  0.00000000000E+00 0. -1.
         21   -1    0    0  502  503 -0.00000000000E+00 -0.00000000000E+00 -0.51167000718E+03  0.51167000718E+03  0.00000000000E+00 0. -1.
         -6    2    1    2    0  503 -0.91860400349E+02 -0.37122054785E+02 -0.29577716225E+03  0.35639861682E+03  0.17239334170E+03 0.  0.
        -24    2    3    3    0    0 -0.30454276745E+02 -0.58911675133E+02 -0.82086170296E+02  0.13294519972E+03  0.80859373835E+02 0.  0.
          6    2    1    2  501    0  0.91860400349E+02  0.37122054785E+02 -0.13149301242E+03  0.23967122288E+03  0.17417090073E+03 0.  0.
         24    2    5    5    0    0  0.32390810821E+02 -0.49193716763E+02 -0.73462551097E+02  0.11976847505E+03  0.74017260201E+02 0.  0.
          5    1    5    5  501    0  0.59469589529E+02  0.86315771548E+02 -0.58030461319E+02  0.11990274783E+03  0.47000000000E+01 0. -1.
        -13    1    6    6    0    0 -0.17518810443E+02 -0.34406238546E+02 -0.14821545787E+02  0.41356694618E+02  0.00000000000E+00 0.  1.
         14    1    6    6    0    0  0.49909621264E+02 -0.14787478217E+02 -0.58641005311E+02  0.78411780432E+02  0.00000000000E+00 0. -1.
         -5    1    3    3    0  503 -0.61406123604E+02  0.21789620349E+02 -0.21369099195E+03  0.22345341709E+03  0.47000000000E+01 0.  1.
         11    1    4    4    0    0 -0.14947105879E+02  0.19124346842E+02 -0.12787179460E+02  0.27434805901E+02  0.00000000000E+00 0. -1.
        -12    1    4    4    0    0 -0.15507170866E+02 -0.78036021975E+02 -0.69298990837E+02  0.10551039382E+03  0.00000000000E+00 0.  1.
</event>
<event>
12    1  0.8133495E-002  0.2108360E+03  0.7818608E-02  0.1140906E+00
         21   -1    0    0  503  502  0.00000000000E+00  0.00000000000E+00  0.40419930605E+03  0.40419930605E+03  0.00000000000E+00 0. -1.
         21   -1    0    0  501  503 -0.00000000000E+00 -0.00000000000E+00 -0.12372420889E+03  0.12372420889E+03  0.00000000000E+00 0. -1.
          6    2    1    2  501    0  0.12282410636E+03 -0.90452612868E+01  0.52242413965E+02  0.21721207751E+03  0.17112638296E+03 0.  0.
         24    2    3    3    0    0  0.89461432881E+02 -0.73184746709E+02  0.53007320120E+02  0.14475783917E+03  0.69178760403E+02 0.  0.
         -6    2    1    2    0  502 -0.12282410636E+03  0.90452612868E+01  0.22823268319E+03  0.31071143743E+03  0.17112528107E+03 0.  0.
        -24    2    5    5    0    0 -0.10831548582E+03  0.25896054364E+02  0.24634419234E+03  0.28165001866E+03  0.78983680676E+02 0.  0.
          5    1    3    3  501    0  0.33362673477E+02  0.64139485422E+02 -0.76490615527E+00  0.72454238338E+02  0.47000000000E+01 0. -1.
        -13    1    4    4    0    0  0.33264062721E+02 -0.50839090251E+02 -0.49982313395E+01  0.60959767739E+02  0.00000000000E+00 0.  1.
         14    1    4    4    0    0  0.56197370160E+02 -0.22345656458E+02  0.58005551459E+02  0.83798071431E+02  0.00000000000E+00 0. -1.
         -5    1    5    5    0  502 -0.14508620539E+02 -0.16850793077E+02 -0.18111509150E+02  0.29061418771E+02  0.47000000000E+01 0.  1.
         13    1    6    6    0    0 -0.16169589811E+02 -0.20232050744E+02  0.19250353064E+02  0.32270227843E+02  0.00000000000E+00 0. -1.
        -14    1    6    6    0    0 -0.92145896008E+02  0.46128105108E+02  0.22709383928E+03  0.24937979082E+03  0.00000000000E+00 0.  1.
</event>
<event>
12    1  0.8133495E-002  0.1978169E+03  0.7818608E-02  0.1151646E+00
         21   -1    0    0  503  502  0.00000000000E+00  0.00000000000E+00  0.48107536885E+03  0.48107536885E+03  0.00000000000E+00 0.  1.
         21   -1    0    0  501  503 -0.00000000000E+00 -0.00000000000E+00 -0.15559797608E+03  0.15559797608E+03  0.00000000000E+00 0. -1.
          6    2    1    2  501    0  0.77457750932E+02 -0.59511160703E+02 -0.57269448202E+02  0.20594008826E+03  0.17201816424E+03 0.  0.
         24    2    3    3    0    0 -0.24433776080E+02 -0.44109208925E+02 -0.38380039671E+02  0.10106872348E+03  0.78735174451E+02 0.  0.
         -6    2    1    2    0  502 -0.77457750932E+02  0.59511160703E+02  0.38274684097E+03  0.43073325668E+03  0.17174024778E+03 0.  0.
        -24    2    5    5    0    0 -0.91994289187E+02  0.95037828094E+01  0.14111752301E+03  0.18351095573E+03  0.72172324622E+02 0.  0.
          5    1    3    3  501    0  0.10189152701E+03 -0.15401951778E+02 -0.18889408531E+02  0.10487136478E+03  0.47000000000E+01 0. -1.
        -11    1    4    4    0    0 -0.67160582255E+01  0.21010599626E+02  0.24469248931E+01  0.22193201125E+02  0.00000000000E+00 0.  1.
         12    1    4    4    0    0 -0.17717717854E+02 -0.65119808551E+02 -0.40826964564E+02  0.78875522358E+02  0.00000000000E+00 0. -1.
         -5    1    5    5    0  502  0.14536538255E+02  0.50007377893E+02  0.24162931796E+03  0.24722230095E+03  0.47000000000E+01 0.  1.
         13    1    6    6    0    0 -0.40925849599E+01  0.20218965147E+02  0.51707673974E+01  0.21267172797E+02  0.00000000000E+00 0. -1.
        -14    1    6    6    0    0 -0.87901704227E+02 -0.10715182338E+02  0.13594675561E+03  0.16224378293E+03  0.00000000000E+00 0.  1.
</event>
<event>
12    1  0.8133495E-002  0.2867852E+03  0.7818608E-02  0.1092074E+00
         21   -1    0    0  503  502  0.00000000000E+00  0.00000000000E+00  0.12633630610E+03  0.12633630610E+03  0.00000000000E+00 0.  1.
         21   -1    0    0  501  503 -0.00000000000E+00 -0.00000000000E+00 -0.67315246041E+03  0.67315246041E+03  0.00000000000E+00 0. -1.
          6    2    1    2  501    0 -0.16732016375E+03 -0.15685490169E+03 -0.34674508168E+03  0.44981149755E+03  0.17175195568E+03 0.  0.
         24    2    3    3    0    0 -0.37249218595E+02 -0.60264194475E+02 -0.63703517918E+02  0.12364768547E+03  0.78812020062E+02 0.  0.
         -6    2    1    2    0  502  0.16732016375E+03  0.15685490169E+03 -0.20007107264E+03  0.34967726895E+03  0.17218089596E+03 0.  0.
        -24    2    5    5    0    0  0.12080826006E+03  0.18280408051E+03 -0.16200649576E+03  0.28404405267E+03  0.80143319398E+02 0.  0.
          5    1    3    3  501    0 -0.13007094515E+03 -0.96590707218E+02 -0.28304156376E+03  0.32616381208E+03  0.47000000000E+01 0. -1.
        -13    1    4    4    0    0 -0.54795889004E+02 -0.65996810054E+02 -0.43148690859E+02  0.96020716056E+02  0.00000000000E+00 0.  1.
         14    1    4    4    0    0  0.17546670409E+02  0.57326155789E+01 -0.20554827059E+02  0.27626969418E+02  0.00000000000E+00 0. -1.
         -5    1    5    5    0  502  0.46511903691E+02 -0.25949178815E+02 -0.38064576881E+02  0.65633216280E+02  0.47000000000E+01 0.  1.
         13    1    6    6    0    0  0.21716975660E+02  0.21296861598E+02 -0.63673634232E+02  0.70565678924E+02  0.00000000000E+00 0. -1.
        -14    1    6    6    0    0  0.99091284398E+02  0.16150721891E+03 -0.98332861524E+02  0.21347837375E+03  0.00000000000E+00 0.  1.
</event>
<event>
12    1  0.8133495E-002  0.3552258E+03  0.7818608E-02  0.1060516E+00
         21   -1    0    0  503  502  0.00000000000E+00  0.00000000000E+00  0.13157375307E+04  0.13157375307E+04  0.00000000000E+00 0. -1.
         21   -1    0    0  501  503 -0.00000000000E+00 -0.00000000000E+00 -0.99426855615E+02  0.99426855615E+02  0.00000000000E+00 0.  1.
          6    2    1    2  501    0 -0.23894293470E+02 -0.30957378981E+03  0.47349484528E+03  0.59178067339E+03  0.17204687820E+03 0.  0.
         24    2    3    3    0    0 -0.50134880345E+02 -0.14620580059E+03  0.32528341113E+03  0.36959519342E+03  0.83076272713E+02 0.  0.
         -6    2    1    2    0  502  0.23894293470E+02  0.30957378981E+03  0.74281582983E+03  0.82338371295E+03  0.17256451868E+03 0.  0.
        -24    2    5    5    0    0 -0.27410032427E+02  0.24545509421E+03  0.64705247505E+03  0.69714563985E+03  0.79596636506E+02 0.  0.
          5    1    3    3  501    0  0.26240586875E+02 -0.16336798921E+03  0.14821143415E+03  0.22218547998E+03  0.47000000000E+01 0. -1.
        -13    1    4    4    0    0 -0.72722859302E+01 -0.36991690899E+02  0.20287740322E+02  0.42811957975E+02  0.00000000000E+00 0.  1.
         14    1    4    4    0    0 -0.42862594415E+02 -0.10921410969E+03  0.30499567080E+03  0.32678323544E+03  0.00000000000E+00 0. -1.
         -5    1    5    5    0  502  0.51304325897E+02  0.64118695598E+02  0.95763354787E+02  0.12623807310E+03  0.47000000000E+01 0.  1.
         13    1    6    6    0    0 -0.14976014661E+02  0.24625906207E+03  0.62263235838E+03  0.66973043859E+03  0.00000000000E+00 0. -1.
        -14    1    6    6    0    0 -0.12434017765E+02 -0.80396786424E+00  0.24420116668E+02  0.27415201261E+02  0.00000000000E+00 0.  1.
</event>
<event>
12    1  0.8133495E-002  0.1765408E+03  0.7818608E-02  0.1171459E+00
         21   -1    0    0  503  502  0.00000000000E+00  0.00000000000E+00  0.75139797641E+03  0.75139797641E+03  0.00000000000E+00 0. -1.
         21   -1    0    0  501  503 -0.00000000000E+00 -0.00000000000E+00 -0.43404639617E+02  0.43404639617E+02  0.00000000000E+00 0. -1.
          6    2    1    2  501    0 -0.13996226839E+02  0.33375182533E+02  0.26602165106E+03  0.31927130871E+03  0.17279135555E+03 0.  0.
         24    2    3    3    0    0 -0.65493533392E+02  0.31491310209E+02  0.23361773990E+03  0.25821702945E+03  0.82569245879E+02 0.  0.
         -6    2    1    2    0  502  0.13996226839E+02 -0.33375182533E+02  0.44197168573E+03  0.47553130732E+03  0.17170106605E+03 0.  0.
        -24    2    5    5    0    0  0.53278029733E+02  0.26735568111E+02  0.21807680969E+03  0.24035612177E+03  0.81610240129E+02 0.  0.
          5    1    3    3  501    0  0.51497306554E+02  0.18838723245E+01  0.32403911163E+02  0.61054279259E+02  0.47000000000E+01 0. -1.
        -11    1    4    4    0    0 -0.17404705545E+02 -0.24851045962E+02  0.10997529228E+03  0.11408357977E+03  0.00000000000E+00 0.  1.
         12    1    4    4    0    0 -0.48088827847E+02  0.56342356171E+02  0.12364244762E+03  0.14413344968E+03  0.00000000000E+00 0. -1.
         -5    1    5    5    0  502 -0.39281802894E+02 -0.60110750644E+02  0.22389487604E+03  0.23517518555E+03  0.47000000000E+01 0.  1.
         11    1    6    6    0    0  0.15117763085E+02 -0.17093277647E+02  0.11100366378E+02  0.25376072099E+02  0.00000000000E+00 0. -1.
        -12    1    6    6    0    0  0.38160266648E+02  0.43828845758E+02  0.20697644331E+03  0.21498004967E+03  0.00000000000E+00 0.  1.
</event>
<event>
12    1  0.8133495E-002  0.1831904E+03  0.7818608E-02  0.1164832E+00
         21   -1    0    0  501  502  0.00000000000E+00  0.00000000000E+00  0.20953007950E+03  0.20953007950E+03  0.00000000000E+00 0. -1.
         21   -1    0    0  502  503 -0.00000000000E+00 -0.00000000000E+00 -0.16306435751E+03  0.16306435751E+03  0.00000000000E+00 0. -1.
         -6    2    1    2    0  503 -0.26531938847E+02 -0.56450559035E+02  0.49322888942E+02  0.18938177476E+03  0.17187815406E+03 0.  0.
        -24    2    3    3    0    0 -0.70357858595E+02  0.35727283566E+00  0.51747393542E+02  0.11743867762E+03  0.78509199158E+02 0.  0.
          6    2    1    2  501    0  0.26531938847E+02  0.56450559035E+02 -0.28571669595E+01  0.18321266225E+03  0.17224432302E+03 0.  0.
         24    2    5    5    0    0  0.63204391138E+02  0.67422169527E+02  0.37985075244E+02  0.12703950370E+03  0.78457794741E+02 0.  0.
          5    1    5    5  501    0 -0.36672452291E+02 -0.10971610492E+02 -0.40842242204E+02  0.56173158555E+02  0.47000000000E+01 0. -1.
        -13    1    6    6    0    0  0.28446353611E+02  0.77377998077E+02  0.38250829134E+02  0.90882757163E+02  0.00000000000E+00 0.  1.
         14    1    6    6    0    0  0.34758037527E+02 -0.99558285500E+01 -0.26575388970E+00  0.36156746535E+02  0.00000000000E+00 0. -1.
         -5    1    3    3    0  503  0.43825919748E+02 -0.56807831871E+02 -0.24245045998E+01  0.71943097140E+02  0.47000000000E+01 0.  1.
         11    1    4    4    0    0 -0.28828777748E+02  0.26532453935E+02  0.55800525359E+02  0.68181875661E+02  0.00000000000E+00 0. -1.
        -12    1    4    4    0    0 -0.41529080847E+02 -0.26175181100E+02 -0.40531318166E+01  0.49256801958E+02  0.00000000000E+00 0.  1.
</event>
<event>
12    1  0.8133495E-002  0.2726527E+03  0.7818608E-02  0.1100176E+00
         21   -1    0    0  501  502  0.00000000000E+00  0.00000000000E+00  0.63800963574E+02  0.63800963574E+02  0.00000000000E+00 0.  1.
         21   -1    0    0  502  503 -0.00000000000E+00 -0.00000000000E+00 -0.18262201189E+04  0.18262201189E+04  0.00000000000E+00 0. -1.
         -6    2    1    2    0  503  0.10767027607E+03  0.18047151379E+03 -0.31038160884E+03  0.41312982011E+03  0.17371427552E+03 0.  0.
        -24    2    3    3    0    0  0.75078907228E+02  0.21952234916E+02 -0.11895094523E+03  0.16241414835E+03  0.78168313811E+02 0.  0.
          6    2    1    2  501    0 -0.10767027607E+03 -0.18047151379E+03 -0.14520375465E+04  0.14768912624E+04  0.16920965932E+03 0.  0.
         24    2    5    5    0    0 -0.31606985005E+02 -0.12207888247E+02 -0.30392661069E+03  0.31401591099E+03  0.71320218989E+02 0.  0.
          5    1    5    5  501    0 -0.76063291066E+02 -0.16826362554E+03 -0.11481109358E+04  0.11628753514E+04  0.47000000000E+01 0. -1.
        -13    1    6    6    0    0  0.15804528836E+02 -0.89322108709E+01 -0.24047477767E+02  0.30130527869E+02  0.00000000000E+00 0.  1.
         14    1    6    6    0    0 -0.47411513841E+02 -0.32756773764E+01 -0.27987913292E+03  0.28388538312E+03  0.00000000000E+00 0. -1.
         -5    1    3    3    0  503  0.32591368842E+02  0.15851927887E+03 -0.19143066361E+03  0.25071567176E+03  0.47000000000E+01 0.  1.
         13    1    4    4    0    0  0.61524942869E+02  0.25637493434E+02 -0.12896025371E+03  0.14516661704E+03  0.00000000000E+00 0. -1.
        -14    1    4    4    0    0  0.13553964359E+02 -0.36852585185E+01  0.10009308478E+02  0.17247531313E+02  0.00000000000E+00 0.  1.
</event>
<event>
12    1  0.8133495E-002  0.6340460E+03  0.7818608E-02  0.9837271E-01
         21   -1    0    0  501  502  0.00000000000E+00  0.00000000000E+00  0.94835108328E+03  0.94835108328E+03  0.00000000000E+00 0.  1.
         21   -1    0    0  502  503 -0.00000000000E+00 -0.00000000000E+00 -0.86159239910E+03  0.86159239910E+03  0.00000000000E+00 0. -1.
         -6    2    1    2    0  503  0.38319475833E+03  0.47465667746E+03 -0.60171805220E+03  0.87398699123E+03  0.17219599946E+03 0.  0.
        -24    2    3    3    0    0  0.26012404390E+03  0.39688526681E+03 -0.51443894756E+03  0.70417967345E+03  0.77711958610E+02 0.  0.
          6    2    1    2  501    0 -0.38319475833E+03 -0.47465667746E+03  0.68847673637E+03  0.93595649115E+03  0.17285008685E+03 0.  0.
         24    2    5    5    0    0 -0.22316290773E+03 -0.26060978286E+03  0.48797477216E+03  0.60181670909E+03  0.79654446052E+02 0.  0.
          5    1    5    5  501    0 -0.16003185060E+03 -0.21404689460E+03  0.20050196422E+03  0.33413978205E+03  0.47000000000E+01 0. -1.
        -11    1    6    6    0    0 -0.20320354088E+03 -0.25986655067E+03  0.47378279460E+03  0.57731485313E+03  0.00000000000E+00 0.  1.
         12    1    6    6    0    0 -0.19959366843E+02 -0.74323219509E+00  0.14191977559E+02  0.24501855969E+02  0.00000000000E+00 0. -1.
         -5    1    3    3    0  503  0.12307071443E+03  0.77771410656E+02 -0.87279104638E+02  0.16980731778E+03  0.47000000000E+01 0.  1.
         11    1    4    4    0    0  0.49579818646E+02  0.35041952813E+02 -0.47786860630E+02  0.77263710257E+02  0.00000000000E+00 0. -1.
        -12    1    4    4    0    0  0.21054422525E+03  0.36184331399E+03 -0.46665208693E+03  0.62691596319E+03  0.00000000000E+00 0.  1.
</event>
<event>
12    1  0.8133495E-002  0.2105879E+03  0.7818608E-02  0.1141303E+00
         21   -1    0    0  501  502  0.00000000000E+00  0.00000000000E+00  0.15230261413E+04  0.15230261413E+04  0.00000000000E+00 0. -1.
         21   -1    0    0  502  503 -0.00000000000E+00 -0.00000000000E+00 -0.29925812666E+02  0.29925812666E+02  0.00000000000E+00 0. -1.
         -6    2    1    2    0  503 -0.87580934430E+02 -0.81773461608E+02  0.88658970232E+03  0.91125659521E+03  0.17317610386E+03 0.  0.
        -24    2    3    3    0    0 -0.11653416231E+03 -0.40724486909E+02  0.77532796233E+03  0.78909042758E+03  0.79319347565E+02 0.  0.
          6    2    1    2  501    0  0.87580934430E+02  0.81773461608E+02  0.60651062627E+03  0.64169535872E+03  0.17193159838E+03 0.  0.
         24    2    5    5    0    0  0.82105480437E+02  0.11253271133E+02  0.21746778025E+03  0.24624687421E+03  0.80481933257E+02 0.  0.
          5    1    5    5  501    0  0.54754539930E+01  0.70520190475E+02  0.38904284602E+03  0.39544848451E+03  0.47000000000E+01 0. -1.
        -11    1    6    6    0    0  0.17068349112E+02  0.40442362109E+02  0.73882223501E+02  0.85938909370E+02  0.00000000000E+00 0.  1.
         12    1    6    6    0    0  0.65037131326E+02 -0.29189090976E+02  0.14358555675E+03  0.16030796484E+03  0.00000000000E+00 0. -1.
         -5    1    3    3    0  503  0.28953227880E+02 -0.41048974700E+02  0.11126173999E+03  0.12216616763E+03  0.47000000000E+01 0.  1.
         13    1    4    4    0    0 -0.71064978916E+02  0.10956147934E+02  0.28386986329E+03  0.29283505202E+03  0.00000000000E+00 0. -1.
        -14    1    4    4    0    0 -0.45469183394E+02 -0.51680634842E+02  0.49145809904E+03  0.49625537555E+03  0.00000000000E+00 0.  1.
</event>
<event>
12    1  0.8133495E-002  0.2075077E+03  0.7818608E-02  0.1143851E+00
         21   -1    0    0  501  502  0.00000000000E+00  0.00000000000E+00  0.10539492933E+03  0.10539492933E+03  0.00000000000E+00 0.  1.
         21   -1    0    0  502  503 -0.00000000000E+00 -0.00000000000E+00 -0.40742158765E+03  0.40742158765E+03  0.00000000000E+00 0. -1.
         -6    2    1    2    0  503 -0.11596189297E+03  0.17318055668E+01 -0.13471821920E+03  0.24740343991E+03  0.17207354162E+03 0.  0.
        -24    2    3    3    0    0 -0.23395526224E+02 -0.26260309454E+02 -0.88509685143E+01  0.88605626481E+02  0.80843446861E+02 0.  0.
          6    2    1    2  501    0  0.11596189297E+03 -0.17318055668E+01 -0.16730843912E+03  0.26541307707E+03  0.17029923050E+03 0.  0.
         24    2    5    5    0    0  0.90504642868E+02 -0.19635030265E+02 -0.34078272875E+02  0.12851543562E+03  0.82330211448E+02 0.  0.
          5    1    5    5  501    0  0.25457250097E+02  0.17903224699E+02 -0.13323016624E+03  0.13689764145E+03  0.47000000000E+01 0. -1.
        -11    1    6    6    0    0  0.46348476313E+02 -0.67437525962E+01  0.25434953582E+02  0.53297244950E+02  0.00000000000E+00 0.  1.
         12    1    6    6    0    0  0.44156166555E+02 -0.12891277669E+02 -0.59513226456E+02  0.75218190672E+02  0.00000000000E+00 0. -1.
         -5    1    3    3    0  503 -0.92566366741E+02  0.27992115021E+02 -0.12586725069E+03  0.15879781343E+03  0.47000000000E+01 0.  1.
         11    1    4    4    0    0  0.16427061921E+02 -0.13820615207E+02 -0.33765606967E+02  0.40012172921E+02  0.00000000000E+00 0. -1.
        -12    1    4    4    0    0 -0.39822588146E+02 -0.12439694248E+02  0.24914638452E+02  0.48593453559E+02  0.00000000000E+00 0.  1.
</event>
<event>
12    1  0.8133495E-002  0.1946129E+03  0.7818608E-02  0.1154598E+00
         21   -1    0    0  501  502  0.00000000000E+00  0.00000000000E+00  0.48116495613E+03  0.48116495613E+03  0.00000000000E+00 0.  1.
         21   -1    0    0  502  503 -0.00000000000E+00 -0.00000000000E+00 -0.11044636035E+03  0.11044636035E+03  0.00000000000E+00 0.  1.
         -6    2    1    2    0  503  0.22995096852E+01  0.92127588145E+02  0.25374353691E+02  0.19520643259E+03  0.17020256537E+03 0.  0.
        -24    2    3    3    0    0 -0.31796562860E+02  0.11579301754E+03  0.25915158595E+02  0.15343350857E+03  0.91930418181E+02 0.  0.
          6    2    1    2  501    0 -0.22995096852E+01 -0.92127588145E+02  0.34534424209E+03  0.39640488389E+03  0.17141005277E+03 0.  0.
         24    2    5    5    0    0  0.98420297701E+01 -0.82881894429E+02  0.35786770487E+03  0.37611136392E+03  0.80151044347E+02 0.  0.
          5    1    5    5  501    0 -0.12141539455E+02 -0.92456937161E+01 -0.12523462785E+02  0.20293519970E+02  0.47000000000E+01 0. -1.
        -13    1    6    6    0    0  0.19586996767E+02 -0.21983291517E+02  0.25102759839E+03  0.25274843363E+03  0.00000000000E+00 0.  1.
         14    1    6    6    0    0 -0.97449669974E+01 -0.60898602911E+02  0.10684010648E+03  0.12336293029E+03  0.00000000000E+00 0. -1.
         -5    1    3    3    0  503  0.34096072545E+02 -0.23665429393E+02 -0.54080490424E+00  0.41772924021E+02  0.47000000000E+01 0.  1.
         13    1    4    4    0    0  0.20001148343E+02  0.36510814977E+02  0.39947462917E+02  0.57696493298E+02  0.00000000000E+00 0. -1.
        -14    1    4    4    0    0 -0.51797711203E+02  0.79282202560E+02 -0.14032304322E+02  0.95737015272E+02  0.00000000000E+00 0.  1.
</event>
<event>
12    1  0.8133495E-002  0.2081029E+03  0.7818608E-02  0.1143086E+00
         21   -1    0    0  503  502  0.00000000000E+00  0.00000000000E+00  0.15335264198E+03  0.15335264198E+03  0.00000000000E+00 0.  1.
         21   -1    0    0  501  503 -0.00000000000E+00 -0.00000000000E+00 -0.28471517743E+03  0.28471517743E+03  0.00000000000E+00 0.  1.
          6    2    1    2  501    0 -0.10856151006E+03 -0.44891914267E+02 -0.85695434893E+02  0.22505668979E+03  0.17177287512E+03 0.  0.
         24    2    3    3    0    0 -0.59773455122E+02 -0.55410507219E+02  0.11839858316E+02  0.11539293770E+03  0.80821764259E+02 0.  0.
         -6    2    1    2    0  502  0.10856151006E+03  0.44891914267E+02 -0.45667100558E+02  0.21301112963E+03  0.17171887444E+03 0.  0.
        -24    2    5    5    0    0  0.15447081697E+01 -0.36392294330E+01  0.14425858051E+02  0.80946291503E+02  0.79552288549E+02 0.  0.
          5    1    3    3  501    0 -0.48788054933E+02  0.10518592952E+02 -0.97535293209E+02  0.10966375209E+03  0.47000000000E+01 0. -1.
        -11    1    4    4    0    0 -0.21100352668E+02 -0.59125620127E+02 -0.19218001160E+02  0.65653601628E+02  0.00000000000E+00 0.  1.
         12    1    4    4    0    0 -0.38673102454E+02  0.37151129078E+01  0.31057859476E+02  0.49739336069E+02  0.00000000000E+00 0. -1.
         -5    1    5    5    0  502  0.10701680189E+03  0.48531143700E+02 -0.60092958609E+02  0.13206483813E+03  0.47000000000E+01 0.  1.
         13    1    6    6    0    0 -0.33093836196E+02  0.19104620237E+02  0.69404591587E+01  0.38837591093E+02  0.00000000000E+00 0. -1.
        -14    1    6    6    0    0  0.34638544366E+02 -0.22743849670E+02  0.74853988926E+01  0.42108700410E+02  0.00000000000E+00 0.  1.
</event>
<event>
12    1  0.8133495E-002  0.2313183E+03  0.7818608E-02  0.1128223E+00
         21   -1    0    0  501  502  0.00000000000E+00  0.00000000000E+00  0.71130227921E+03  0.71130227921E+03  0.00000000000E+00 0.  1.
         21   -1    0    0  502  503 -0.00000000000E+00 -0.00000000000E+00 -0.20818288654E+03  0.20818288654E+03  0.00000000000E+00 0.  1.
         -6    2    1    2    0  503 -0.99814888417E+02  0.88207354178E+02 -0.11923725019E+03  0.26024159578E+03  0.18911535385E+03 0.  0.
        -24    2    3    3    0    0  0.97109501871E+01  0.25254385634E+01 -0.68770676965E+01  0.81400323716E+02  0.80486261235E+02 0.  0.
          6    2    1    2  501    0  0.99814888417E+02 -0.88207354178E+02  0.62235664286E+03  0.65924356997E+03  0.17184511735E+03 0.  0.
         24    2    5    5    0    0  0.10189777988E+03 -0.11222249641E+03  0.39446361669E+03  0.43003103352E+03  0.79674956219E+02 0.  0.
          5    1    5    5  501    0 -0.20828914633E+01  0.24015142230E+02  0.22789302617E+03  0.22921253645E+03  0.47000000000E+01 0. -1.
        -11    1    6    6    0    0 -0.77053665088E+00 -0.48476052028E+02  0.14387836995E+03  0.15182722644E+03  0.00000000000E+00 0.  1.
         12    1    6    6    0    0  0.10266831653E+03 -0.63746444380E+02  0.25058524674E+03  0.27820380708E+03  0.00000000000E+00 0. -1.
         -5    1    3    3    0  503 -0.10952583860E+03  0.85681915614E+02 -0.11236018249E+03  0.17884127207E+03  0.47000000000E+01 0.  1.
         11    1    4    4    0    0  0.29069583519E+02  0.33171743514E+02  0.17423027072E+01  0.44141147158E+02  0.00000000000E+00 0. -1.
        -12    1    4    4    0    0 -0.19358633332E+02 -0.30646304951E+02 -0.86193704036E+01  0.37259176558E+02  0.00000000000E+00 0.  1.
</event>
<event>
12    1  0.8133495E-002  0.2018290E+03  0.7818608E-02  0.1148654E+00
         21   -1    0    0  501  502  0.00000000000E+00  0.00000000000E+00  0.40877685719E+02  0.40877685719E+02  0.00000000000E+00 0.  1.
         21   -1    0    0  502  503 -0.00000000000E+00 -0.00000000000E+00 -0.10121354967E+04  0.10121354967E+04  0.00000000000E+00 0.  1.
         -6    2    1    2    0  503 -0.10374292494E+02 -0.10129841646E+03 -0.39844539895E+03  0.44568379452E+03  0.17177401907E+03 0.  0.
        -24    2    3    3    0    0 -0.88854409238E+00  0.15853974130E+02 -0.16274994045E+03  0.18226568351E+03  0.80505268558E+02 0.  0.
          6    2    1    2  501    0  0.10374292494E+02  0.10129841646E+03 -0.57281241201E+03  0.60732938788E+03  0.17425823053E+03 0.  0.
         24    2    5    5    0    0  0.29260917444E+02  0.91232813112E+01 -0.41356041483E+03  0.42229898836E+03  0.79779592008E+02 0.  0.
          5    1    5    5  501    0 -0.18886624950E+02  0.92175135152E+02 -0.15925199718E+03  0.18503039952E+03  0.47000000000E+01 0. -1.
        -13    1    6    6    0    0  0.48121210831E+02  0.14293943951E+02 -0.15340573266E+03  0.16141030505E+03  0.00000000000E+00 0.  1.
         14    1    6    6    0    0 -0.18860293387E+02 -0.51706626399E+01 -0.26015468218E+03  0.26088868331E+03  0.00000000000E+00 0. -1.
         -5    1    3    3    0  503 -0.94857484015E+01 -0.11715239059E+03 -0.23569545851E+03  0.26341811101E+03  0.47000000000E+01 0.  1.
         11    1    4    4    0    0  0.10999560751E+02  0.30524529043E+02 -0.15991272696E+03  0.16317112935E+03  0.00000000000E+00 0. -1.
        -12    1    4    4    0    0 -0.11888104843E+02 -0.14670554914E+02 -0.28372134830E+01  0.19094554161E+02  0.00000000000E+00 0.  1.
</event>
<event>
12    1  0.8133495E-002  0.2375165E+03  0.7818608E-02  0.1122277E+00
         21   -1    0    0  503  502  0.00000000000E+00  0.00000000000E+00  0.31689302920E+02  0.31689302920E+02  0.00000000000E+00 0.  1.
         21   -1    0    0  501  503 -0.00000000000E+00 -0.00000000000E+00 -0.20567383569E+04  0.20567383569E+04  0.00000000000E+00 0. -1.
          6    2    1    2  501    0  0.12347847640E+03 -0.97633366906E+02 -0.14281456504E+04  0.14477617575E+04  0.17786202293E+03 0.  0.
         24    2    3    3    0    0  0.62216733985E+02 -0.68889826005E+02 -0.12668468164E+04  0.12727800553E+04  0.80321124198E+02 0.  0.
         -6    2    1    2    0  502 -0.12347847640E+03  0.97633366906E+02 -0.59690340355E+03  0.64066590231E+03  0.17140570803E+03 0.  0.
        -24    2    5    5    0    0  0.67654648295E+01  0.26313013059E+02 -0.22316109808E+03  0.23847754097E+03  0.79577105249E+02 0.  0.
          5    1    3    3  501    0  0.61261742412E+02 -0.28743540901E+02 -0.16129883402E+03  0.17498170213E+03  0.47000000000E+01 0. -1.
        -13    1    4    4    0    0 -0.19007005726E+02 -0.19401357655E+02 -0.33096317209E+03  0.33207574471E+03  0.00000000000E+00 0.  1.
         14    1    4    4    0    0  0.81223739711E+02 -0.49488468350E+02 -0.93588364429E+03  0.94070431063E+03  0.00000000000E+00 0. -1.
         -5    1    5    5    0  502 -0.13024394123E+03  0.71320353847E+02 -0.37374230547E+03  0.40218836134E+03  0.47000000000E+01 0.  1.
         11    1    6    6    0    0  0.21937041377E+02  0.44529822168E+02 -0.86130129446E+02  0.99410955357E+02  0.00000000000E+00 0. -1.
        -12    1    6    6    0    0 -0.15171576547E+02 -0.18216809108E+02 -0.13703096864E+03  0.13906658561E+03  0.00000000000E+00 0.  1.
</event>
<event>
12    1  0.8133495E-002  0.2269961E+03  0.7818608E-02  0.1130822E+00
         21   -1    0    0  503  502  0.00000000000E+00  0.00000000000E+00  0.19880724751E+03  0.19880724751E+03  0.00000000000E+00 0. -1.
         21   -1    0    0  501  503 -0.00000000000E+00 -0.00000000000E+00 -0.41162998077E+03  0.41162998077E+03  0.00000000000E+00 0. -1.
          6    2    1    2  501    0 -0.11948532352E+03 -0.41580948347E+02 -0.30123482604E+03  0.37718646938E+03  0.18847146857E+03 0.  0.
         24    2    3    3    0    0 -0.86669040692E+02  0.19372501372E+02 -0.72653040760E+02  0.13830584226E+03  0.77221922073E+02 0.  0.
         -6    2    1    2    0  502  0.11948532352E+03  0.41580948347E+02  0.88412092782E+02  0.23325075890E+03  0.17488139002E+03 0.  0.
        -24    2    5    5    0    0  0.27848428796E+02  0.90877597572E+01 -0.14528648518E+02  0.91575023509E+02  0.85538184100E+02 0.  0.
          5    1    3    3  501    0 -0.32816282824E+02 -0.60953449719E+02 -0.22858178528E+03  0.23888062712E+03  0.47000000000E+01 0. -1.
        -11    1    4    4    0    0 -0.70665907710E+02 -0.53956858846E+01 -0.81030143318E+02  0.10765067610E+03  0.00000000000E+00 0.  1.
         12    1    4    4    0    0 -0.16003132981E+02  0.24768187257E+02  0.83771025584E+01  0.30655166163E+02  0.00000000000E+00 0. -1.
         -5    1    5    5    0  502  0.91636894719E+02  0.32493188589E+02  0.10294074130E+03  0.14167573539E+03  0.47000000000E+01 0.  1.
         13    1    6    6    0    0  0.25037419843E+02 -0.64342832106E+01  0.32756288465E+02  0.41728249745E+02  0.00000000000E+00 0. -1.
        -14    1    6    6    0    0  0.28110089532E+01  0.15522042968E+02 -0.47284936982E+02  0.49846773764E+02  0.00000000000E+00 0.  1.
</event>
<event>
12    1  0.8133495E-002  0.3110403E+03  0.7818608E-02  0.1080511E+00
         21   -1    0    0  503  502  0.00000000000E+00  0.00000000000E+00  0.63239360089E+02  0.63239360089E+02  0.00000000000E+00 0. -1.
         21   -1    0    0  501  503 -0.00000000000E+00 -0.00000000000E+00 -0.15226251620E+04  0.15226251620E+04  0.00000000000E+00 0. -1.
          6    2    1    2  501    0 -0.20985956741E+03 -0.14073342746E+03 -0.81348955466E+03  0.86897676653E+03  0.17178017814E+03 0.  0.
         24    2    3    3    0    0 -0.15907094718E+03 -0.16930153583E+03 -0.68706543140E+03  0.72969012072E+03  0.80138561097E+02 0.  0.
         -6    2    1    2    0  502  0.20985956741E+03  0.14073342746E+03 -0.64589624729E+03  0.71688775559E+03  0.18138124549E+03 0.  0.
        -24    2    5    5    0    0  0.21823137095E+03  0.76914532249E+02 -0.54785070910E+03  0.59950821717E+03  0.75689672069E+02 0.  0.
          5    1    3    3  501    0 -0.50788620238E+02  0.28568108375E+02 -0.12642412325E+03  0.13928664581E+03  0.47000000000E+01 0. -1.
        -13    1    4    4    0    0 -0.28803723835E+02 -0.84067336603E+02 -0.21590603022E+03  0.23347887587E+03  0.00000000000E+00 0.  1.
         14    1    4    4    0    0 -0.13026722334E+03 -0.85234199231E+02 -0.47115940118E+03  0.49621124485E+03  0.00000000000E+00 0. -1.
         -5    1    5    5    0  502 -0.83718035375E+01  0.63818895211E+02 -0.98045538191E+02  0.11737953842E+03  0.47000000000E+01 0.  1.
         13    1    6    6    0    0  0.13412495008E+03  0.82888222453E+02 -0.38727086006E+03  0.41813715299E+03  0.00000000000E+00 0. -1.
        -14    1    6    6    0    0  0.84106420875E+02 -0.59736902043E+01 -0.16057984904E+03  0.18137106419E+03  0.00000000000E+00 0.  1.
</event>
<event>
12    1  0.8133495E-002  0.1972332E+03  0.7818608E-02  0.1152625E+00
         21   -1    0    0  503  502  0.00000000000E+00  0.00000000000E+00  0.17096183165E+03  0.17096183165E+03  0.00000000000E+00 0.  1.
         21   -1    0    0  501  503 -0.00000000000E+00 -0.00000000000E+00 -0.28549597215E+03  0.28549597215E+03  0.00000000000E+00 0.  1.
          6    2    1    2  501    0 -0.60751232211E+02 -0.74449541588E+02 -0.16284718237E+03  0.25577357407E+03  0.17224247423E+03 0.  0.
         24    2    3    3    0    0 -0.80087215329E+02 -0.10874693102E+03 -0.13722514702E+03  0.20856372488E+03  0.80176238962E+02 0.  0.
         -6    2    1    2    0  502  0.60751232211E+02  0.74449541588E+02  0.48313041877E+02  0.20068422973E+03  0.16943011418E+03 0.  0.
        -24    2    5    5    0    0  0.51253285052E+02 -0.17484678449E+02  0.53087553109E+02  0.10801817461E+03  0.76922197981E+02 0.  0.
          5    1    3    3  501    0  0.19335983118E+02  0.34297389435E+02 -0.25622035348E+02  0.47209849190E+02  0.47000000000E+01 0. -1.
        -11    1    4    4    0    0 -0.72049234339E+01 -0.69400371777E+02 -0.38476998422E+02  0.79679369551E+02  0.00000000000E+00 0.  1.
         12    1    4    4    0    0 -0.72882291895E+02 -0.39346559245E+02 -0.98748148600E+02  0.12888435533E+03  0.00000000000E+00 0. -1.
         -5    1    5    5    0  502  0.94979471590E+01  0.91934220036E+02 -0.47745112319E+01  0.92666055119E+02  0.47000000000E+01 0.  1.
         13    1    6    6    0    0  0.38093263387E+02 -0.47030788681E+02  0.26169923802E+02  0.65938279559E+02  0.00000000000E+00 0. -1.
        -14    1    6    6    0    0  0.13160021665E+02  0.29546110232E+02  0.26917629307E+02  0.42079895052E+02  0.00000000000E+00 0.  1.
</event>
<event>
12    1  0.8133495E-002  0.1861942E+03  0.7818608E-02  0.1162212E+00
         21   -1    0    0  503  502  0.00000000000E+00  0.00000000000E+00  0.28419434131E+03  0.28419434131E+03  0.00000000000E+00 0. -1.
         21   -1    0    0  501  503 -0.00000000000E+00 -0.00000000000E+00 -0.13560519669E+03  0.13560519669E+03  0.00000000000E+00 0. -1.
          6    2    1    2  501    0 -0.45049416185E+02 -0.51809036877E+02  0.61390324720E+01  0.18629541484E+03  0.17307416812E+03 0.  0.
         24    2    3    3    0    0  0.11291878245E+02 -0.79789984182E+02 -0.27177893549E+02  0.11495550715E+03  0.77344570821E+02 0.  0.
         -6    2    1    2    0  502  0.45049416185E+02  0.51809036877E+02  0.14245011214E+03  0.23350412316E+03  0.17180953083E+03 0.  0.
        -24    2    5    5    0    0 -0.19802196130E+02 -0.21300282044E+02  0.77276337313E+02  0.11594386177E+03  0.81397283660E+02 0.  0.
          5    1    3    3  501    0 -0.56341294430E+02  0.27980947305E+02  0.33316926021E+02  0.71339907693E+02  0.47000000000E+01 0. -1.
        -11    1    4    4    0    0  0.43700705444E+02 -0.32920525449E+02 -0.13477447141E+02  0.56348506933E+02  0.00000000000E+00 0.  1.
         12    1    4    4    0    0 -0.32408827198E+02 -0.46869458733E+02 -0.13700446408E+02  0.58607000214E+02  0.00000000000E+00 0. -1.
         -5    1    5    5    0  502  0.64851612315E+02  0.73109318921E+02  0.65173774827E+02  0.11756026139E+03  0.47000000000E+01 0.  1.
         11    1    6    6    0    0 -0.51570932961E+02 -0.11941498182E+02  0.52763012842E+02  0.74740190189E+02  0.00000000000E+00 0. -1.
        -12    1    6    6    0    0  0.31768736831E+02 -0.93587838621E+01  0.24513324471E+02  0.41203671582E+02  0.00000000000E+00 0.  1.
</event>
<event>
12    1  0.8133495E-002  0.1768353E+03  0.7818608E-02  0.1171476E+00
         21   -1    0    0  503  502  0.00000000000E+00  0.00000000000E+00  0.36163354419E+03  0.36163354419E+03  0.00000000000E+00 0. -1.
         21   -1    0    0  501  503 -0.00000000000E+00 -0.00000000000E+00 -0.10563831866E+03  0.10563831866E+03  0.00000000000E+00 0. -1.
          6    2    1    2  501    0  0.19488931245E+02 -0.29276893736E+02  0.26282051304E+02  0.17877766980E+03  0.17330249292E+03 0.  0.
         24    2    3    3    0    0  0.64933085353E+02 -0.33092557116E+02  0.59170296738E+02  0.12235553658E+03  0.78475030464E+02 0.  0.
         -6    2    1    2    0  502 -0.19488931245E+02  0.29276893736E+02  0.22971317422E+03  0.28849419304E+03  0.17094970622E+03 0.  0.
        -24    2    5    5    0    0  0.26093978295E+02  0.70519652151E+02  0.18234836131E+03  0.21074921078E+03  0.74231987244E+02 0.  0.
          5    1    3    3  501    0 -0.45444154108E+02  0.38156633807E+01 -0.32888245434E+02  0.56422133222E+02  0.47000000000E+01 0. -1.
        -11    1    4    4    0    0  0.74079390216E+02 -0.44538355717E+01  0.28753765659E+02  0.79588766453E+02  0.00000000000E+00 0.  1.
         12    1    4    4    0    0 -0.91463048628E+01 -0.28638721545E+02  0.30416531079E+02  0.42766770129E+02  0.00000000000E+00 0. -1.
         -5    1    5    5    0  502 -0.45582909540E+02 -0.41242758415E+02  0.47364812912E+02  0.77744982256E+02  0.47000000000E+01 0.  1.
         13    1    6    6    0    0  0.53913978892E+01 -0.38444317684E+01  0.90625962304E+02  0.90867551251E+02  0.00000000000E+00 0. -1.
        -14    1    6    6    0    0  0.20702580406E+02  0.74364083919E+02  0.91722399007E+02  0.11988165953E+03  0.00000000000E+00 0.  1.
</event>
<event>
12    1  0.8133495E-002  0.2630639E+03  0.7818608E-02  0.1105369E+00
         21   -1    0    0  503  502  0.00000000000E+00  0.00000000000E+00  0.92106470247E+03  0.92106470247E+03  0.00000000000E+00 0.  1.
         21   -1    0    0  501  503 -0.00000000000E+00 -0.00000000000E+00 -0.81758527230E+02  0.81758527230E+02  0.00000000000E+00 0. -1.
          6    2    1    2  501    0 -0.68947932190E+02  0.18582563555E+03  0.27555876634E+03  0.38071892067E+03  0.17242180452E+03 0.  0.
         24    2    3    3    0    0 -0.57401223130E+02  0.39610880015E+02  0.16566529516E+03  0.19738658246E+03  0.81563169895E+02 0.  0.
         -6    2    1    2    0  502  0.68947932190E+02 -0.18582563555E+03  0.56374740891E+03  0.62210430903E+03  0.17296718210E+03 0.  0.
        -24    2    5    5    0    0 -0.15075330897E+01 -0.87612137904E+02  0.35409157833E+03  0.38005571680E+03  0.10669274886E+03 0.  0.
          5    1    3    3  501    0 -0.11546709060E+02  0.14621475554E+03  0.10989347118E+03  0.18333233821E+03  0.47000000000E+01 0. -1.
        -11    1    4    4    0    0  0.20050069413E+02  0.11880342223E+02  0.52866019823E+02  0.57775114597E+02  0.00000000000E+00 0.  1.
         12    1    4    4    0    0 -0.77451292543E+02  0.27730537792E+02  0.11279927534E+03  0.13961146787E+03  0.00000000000E+00 0. -1.
         -5    1    5    5    0  502  0.70455465280E+02 -0.98213497649E+02  0.20965583057E+03  0.24204859223E+03  0.47000000000E+01 0.  1.
         11    1    6    6    0    0  0.40743197800E+02 -0.84021679290E+02  0.20936364617E+03  0.22924394669E+03  0.00000000000E+00 0. -1.
        -12    1    6    6    0    0 -0.42250730890E+02 -0.35904586133E+01  0.14472793217E+03  0.15081177011E+03  0.00000000000E+00 0.  1.
</event>
<event>
12    1  0.8133495E-002  0.1822703E+03  0.7818608E-02  0.1166308E+00
         21   -1    0    0  503  502  0.00000000000E+00  0.00000000000E+00  0.28754044693E+02  0.28754044693E+02  0.00000000000E+00 0.  1.
         21   -1    0    0  501  503 -0.00000000000E+00 -0.00000000000E+00 -0.11376277956E+04  0.11376277956E+04  0.00000000000E+00 0.  1.
          6    2    1    2  501    0 -0.17119189715E+02  0.47519213266E+02 -0.55823342048E+03  0.58635837719E+03  0.17216402781E+03 0.  0.
         24    2    3    3    0    0 -0.87490053278E+01 -0.31977469651E+02 -0.17968165234E+03  0.19943032994E+03  0.79924068053E+02 0.  0.
         -6    2    1    2    0  502  0.17119189715E+02 -0.47519213266E+02 -0.55064033039E+03  0.58002346307E+03  0.17513224139E+03 0.  0.
        -24    2    5    5    0    0  0.67845839450E+02 -0.61307449083E+02 -0.27959727413E+03  0.30388991424E+03  0.76241609602E+02 0.  0.
          5    1    3    3  501    0 -0.83701843875E+01  0.79496682916E+02 -0.37855176814E+03  0.38692804725E+03  0.47000000000E+01 0. -1.
        -11    1    4    4    0    0  0.28159543545E+02 -0.20473351822E+02 -0.13906263121E+03  0.14335457240E+03  0.00000000000E+00 0.  1.
         12    1    4    4    0    0 -0.36908548873E+02 -0.11504117829E+02 -0.40619021124E+02  0.56075757543E+02  0.00000000000E+00 0. -1.
         -5    1    5    5    0  502 -0.50726649734E+02  0.13788235818E+02 -0.27104305626E+03  0.27613354883E+03  0.47000000000E+01 0.  1.
         13    1    6    6    0    0  0.44545090958E+02 -0.11067326304E+01 -0.17821323066E+03  0.18369933470E+03  0.00000000000E+00 0. -1.
        -14    1    6    6    0    0  0.23300748492E+02 -0.60200716453E+02 -0.10138404347E+03  0.12019057955E+03  0.00000000000E+00 0.  1.
</event>
<event>
12    1  0.8133495E-002  0.2843409E+03  0.7818608E-02  0.1094088E+00
         21   -1    0    0  503  502  0.00000000000E+00  0.00000000000E+00  0.23593967958E+03  0.23593967958E+03  0.00000000000E+00 0.  1.
         21   -1    0    0  501  503 -0.00000000000E+00 -0.00000000000E+00 -0.35869552381E+03  0.35869552381E+03  0.00000000000E+00 0. -1.
          6    2    1    2  501    0  0.22657315444E+03 -0.10969950621E+01 -0.13663322282E+03  0.31546535783E+03  0.17179393675E+03 0.  0.
         24    2    3    3    0    0  0.12685365433E+03  0.24444630313E+02 -0.14771517689E+02  0.15587613982E+03  0.85963850900E+02 0.  0.
         -6    2    1    2    0  502 -0.22657315444E+03  0.10969950621E+01  0.13877378588E+02  0.27916984556E+03  0.16250114868E+03 0.  0.
        -24    2    5    5    0    0 -0.17684006117E+03  0.38409902098E+02 -0.33999074228E+02  0.20055764338E+03  0.79496562534E+02 0.  0.
          5    1    3    3  501    0  0.99719500105E+02 -0.25541625376E+02 -0.12186170513E+03  0.15958921801E+03  0.47000000000E+01 0. -1.
        -11    1    4    4    0    0  0.32609840855E+02  0.47993699357E+02 -0.63421648961E+01  0.58369683520E+02  0.00000000000E+00 0.  1.
         12    1    4    4    0    0  0.94243813479E+02 -0.23549069044E+02 -0.84293527931E+01  0.97506456301E+02  0.00000000000E+00 0. -1.
         -5    1    5    5    0  502 -0.49733093270E+02 -0.37312907036E+02  0.47876452816E+02  0.78612202182E+02  0.47000000000E+01 0.  1.
         13    1    6    6    0    0 -0.13844313879E+03  0.62756887638E+00 -0.45005569268E+02  0.14557608933E+03  0.00000000000E+00 0. -1.
        -14    1    6    6    0    0 -0.38396922383E+02  0.37782333222E+02  0.11006495040E+02  0.54981554046E+02  0.00000000000E+00 0.  1.
</event>
<event>
12    1  0.8133495E-002  0.1807212E+03  0.7818608E-02  0.1167486E+00
         21   -1    0    0  503  502  0.00000000000E+00  0.00000000000E+00  0.13842591282E+03  0.13842591282E+03  0.00000000000E+00 0. -1.
         21   -1    0    0  501  503 -0.00000000000E+00 -0.00000000000E+00 -0.24199066400E+03  0.24199066400E+03  0.00000000000E+00 0. -1.
          6    2    1    2  501    0  0.24094686647E+02 -0.60224939190E+02 -0.86349594226E+02  0.19887731249E+03  0.16699801129E+03 0.  0.
         24    2    3    3    0    0  0.65199004640E+02 -0.45809862573E+02 -0.10272437064E+03  0.15210571113E+03  0.78958199820E+02 0.  0.
         -6    2    1    2    0  502 -0.24094686647E+02  0.60224939190E+02 -0.17215156950E+02  0.18153926433E+03  0.16867882392E+03 0.  0.
        -24    2    5    5    0    0 -0.58395358975E+02  0.61958003639E+02 -0.50193458841E+02  0.13369369996E+03  0.90032271625E+02 0.  0.
          5    1    3    3  501    0 -0.41104317992E+02 -0.14415076617E+02  0.16374776417E+02  0.46771601365E+02  0.47000000000E+01 0. -1.
        -13    1    4    4    0    0  0.25801697322E+02  0.20163126223E+02 -0.16696127623E+02  0.36756494955E+02  0.00000000000E+00 0.  1.
         14    1    4    4    0    0  0.39397307318E+02 -0.65972988796E+02 -0.86028243020E+02  0.11534921617E+03  0.00000000000E+00 0. -1.
         -5    1    5    5    0  502  0.34300672328E+02 -0.17330644492E+01  0.32978301891E+02  0.47845564373E+02  0.47000000000E+01 0.  1.
         13    1    6    6    0    0 -0.39251251304E+02  0.76060917379E+02 -0.89125263173E+01  0.86054384007E+02  0.00000000000E+00 0. -1.
        -14    1    6    6    0    0 -0.19144107671E+02 -0.14102913740E+02 -0.41280932524E+02  0.47639315953E+02  0.00000000000E+00 0.  1.
</event>
<event>
12    1  0.8133495E-002  0.1833608E+03  0.7818608E-02  0.1165142E+00
         21   -1    0    0  503  502  0.00000000000E+00  0.00000000000E+00  0.14785593594E+04  0.14785593594E+04  0.00000000000E+00 0. -1.
         21   -1    0    0  501  503 -0.00000000000E+00 -0.00000000000E+00 -0.31770033605E+02  0.31770033605E+02  0.00000000000E+00 0. -1.
          6    2    1    2  501    0 -0.53257407041E+02  0.14794227543E+02  0.31768708073E+03  0.36680551029E+03  0.17483129166E+03 0.  0.
         24    2    3    3    0    0  0.10467461061E+02 -0.45228805667E+02  0.20599117707E+03  0.22481365058E+03  0.77159573951E+02 0.  0.
         -6    2    1    2    0  502  0.53257407041E+02 -0.14794227543E+02  0.11291022450E+04  0.11435238827E+04  0.17239422831E+03 0.  0.
        -24    2    5    5    0    0 -0.23555966621E+02 -0.33064079666E+02  0.39280062768E+03  0.40298607569E+03  0.80357496018E+02 0.  0.
          5    1    3    3  501    0 -0.63724868102E+02  0.60023033209E+02  0.11169590367E+03  0.14199185972E+03  0.47000000000E+01 0. -1.
        -13    1    4    4    0    0 -0.85314973265E+01  0.18479106990E+02  0.77685982600E+02  0.80308005418E+02  0.00000000000E+00 0.  1.
         14    1    4    4    0    0  0.18998958388E+02 -0.63707912656E+02  0.12830519447E+03  0.14450564516E+03  0.00000000000E+00 0. -1.
         -5    1    5    5    0  502  0.76813373661E+02  0.18269852123E+02  0.73630161734E+03  0.74053780698E+03  0.47000000000E+01 0.  1.
         11    1    6    6    0    0 -0.73182051065E+01 -0.38658084788E+02  0.37877321881E+03  0.38081118015E+03  0.00000000000E+00 0. -1.
        -12    1    6    6    0    0 -0.16237761514E+02  0.55940051220E+01  0.14027408874E+02  0.22174895535E+02  0.00000000000E+00 0.  1.
</event>
<event>
12    1  0.8133495E-002  0.1940160E+03  0.7818608E-02  0.1155033E+00
         21   -1    0    0  501  502  0.00000000000E+00  0.00000000000E+00  0.22471776761E+03  0.22471776761E+03  0.00000000000E+00 0.  1.
         21   -1    0    0  502  503 -0.00000000000E+00 -0.00000000000E+00 -0.33927470438E+03  0.33927470438E+03  0.00000000000E+00 0.  1.
         -6    2    1    2    0  503  0.11380990275E+02 -0.86811548639E+02 -0.25830664012E+03  0.32305501452E+03  0.17313708488E+03 0.  0.
        -24    2    3    3    0    0  0.30187957656E+02  0.15700377704E+02 -0.14108841878E+03  0.16613274561E+03  0.80847588740E+02 0.  0.
          6    2    1    2  501    0 -0.11380990275E+02  0.86811548639E+02  0.14374970335E+03  0.24093745747E+03  0.17239811276E+03 0.  0.
         24    2    5    5    0    0  0.11591661926E+02  0.57206523798E+02  0.16875127845E+03  0.19564541619E+03  0.79957375559E+02 0.  0.
          5    1    5    5  501    0 -0.22972652200E+02  0.29605024841E+02 -0.25001575107E+02  0.45292041274E+02  0.47000000000E+01 0. -1.
        -13    1    6    6    0    0  0.38564238939E+02  0.42186560773E+02  0.61151915139E+02  0.83704618510E+02  0.00000000000E+00 0.  1.
         14    1    6    6    0    0 -0.26972577013E+02  0.15019963025E+02  0.10759936332E+03  0.11194079768E+03  0.00000000000E+00 0. -1.
         -5    1    3    3    0  503 -0.18806967381E+02 -0.10251192634E+03 -0.11721822135E+03  0.15692226891E+03  0.47000000000E+01 0.  1.
         13    1    4    4    0    0 -0.22808186079E+02  0.13083851621E+02 -0.17364092719E+02  0.31510510015E+02  0.00000000000E+00 0. -1.
        -14    1    4    4    0    0  0.52996143735E+02  0.26165260825E+01 -0.12372432606E+03  0.13462223560E+03  0.00000000000E+00 0.  1.
</event>
<event>
12    1  0.8133495E-002  0.2292411E+03  0.7818608E-02  0.1127344E+00
         21   -1    0    0  503  502  0.00000000000E+00  0.00000000000E+00  0.64374658965E+03  0.64374658965E+03  0.00000000000E+00 0.  1.
         21   -1    0    0  501  503 -0.00000000000E+00 -0.00000000000E+00 -0.81822068809E+02  0.81822068809E+02  0.00000000000E+00 0. -1.
          6    2    1    2  501    0  0.13769789717E+03  0.61934390239E+02  0.25240535705E+03  0.34096913912E+03  0.17249611586E+03 0.  0.
         24    2    3    3    0    0  0.16889239495E+03  0.56445604083E+02  0.23555764965E+03  0.30478684083E+03  0.75477577758E+02 0.  0.
         -6    2    1    2    0  502 -0.13769789717E+03 -0.61934390239E+02  0.30951916380E+03  0.38459951934E+03  0.17122528417E+03 0.  0.
        -24    2    5    5    0    0 -0.82781825301E+01  0.12958782274E+01  0.81083922011E+02  0.11450272359E+03  0.80411838018E+02 0.  0.
          5    1    3    3  501    0 -0.31194497777E+02  0.54887861561E+01  0.16847707398E+02  0.36182298291E+02  0.47000000000E+01 0. -1.
        -11    1    4    4    0    0  0.19382138889E+02  0.35271940768E+02  0.69714550619E+02  0.80497799234E+02  0.00000000000E+00 0.  1.
         12    1    4    4    0    0  0.14951025606E+03  0.21173663316E+02  0.16584309903E+03  0.22428904160E+03  0.00000000000E+00 0. -1.
         -5    1    5    5    0  502 -0.12941971464E+03 -0.63230268467E+02  0.22843524179E+03  0.27009679576E+03  0.47000000000E+01 0.  1.
         11    1    6    6    0    0 -0.11020839939E+02 -0.21457793642E+01 -0.14767084350E+02  0.18550742902E+02  0.00000000000E+00 0. -1.
        -12    1    6    6    0    0  0.27426574090E+01  0.34416575917E+01  0.95851006360E+02  0.95951980683E+02  0.00000000000E+00 0.  1.
</event>
<event>
12    1  0.8133495E-002  0.1880762E+03  0.7818608E-02  0.1160967E+00
         21   -1    0    0  503  502  0.00000000000E+00  0.00000000000E+00  0.15521561427E+03  0.15521561427E+03  0.00000000000E+00 0. -1.
         21   -1    0    0  501  503 -0.00000000000E+00 -0.00000000000E+00 -0.39135660114E+03  0.39135660114E+03  0.00000000000E+00 0. -1.
          6    2    1    2  501    0  0.29309114271E+02  0.61316016439E+02 -0.29741570473E+03  0.35189308929E+03  0.17536808952E+03 0.  0.
         24    2    3    3    0    0  0.24465774728E+02  0.93031239419E+02 -0.13014834812E+03  0.18151183477E+03  0.82186178898E+02 0.  0.
         -6    2    1    2    0  502 -0.29309114271E+02 -0.61316016439E+02  0.61274717851E+02  0.19467912612E+03  0.17183332927E+03 0.  0.
        -24    2    5    5    0    0 -0.18817596452E+02  0.28388325105E+02 -0.45954160953E+00  0.85179584434E+02  0.78072732035E+02 0.  0.
          5    1    3    3  501    0  0.48433395424E+01 -0.31715222980E+02 -0.16726735660E+03  0.17038125452E+03  0.47000000000E+01 0. -1.
        -13    1    4    4    0    0 -0.23127028931E+02  0.59494521430E+01 -0.10561544872E+02  0.26111332368E+02  0.00000000000E+00 0.  1.
         14    1    4    4    0    0  0.47592803659E+02  0.87081787276E+02 -0.11958680325E+03  0.15540050240E+03  0.00000000000E+00 0. -1.
         -5    1    5    5    0  502 -0.10491517819E+02 -0.89704341544E+02  0.61734259460E+02  0.10949954168E+03  0.47000000000E+01 0.  1.
         13    1    6    6    0    0 -0.80070719956E+01 -0.16320546542E+02  0.26295028810E+02  0.31967201652E+02  0.00000000000E+00 0. -1.
        -14    1    6    6    0    0 -0.10810524456E+02  0.44708871647E+02 -0.26754570419E+02  0.53212382782E+02  0.00000000000E+00 0.  1.
</event>
<event>
12    1  0.8133495E-002  0.1861825E+03  0.7818608E-02  0.1162359E+00
         21   -1    0    0  503  502  0.00000000000E+00  0.00000000000E+00  0.98201031940E+02  0.98201031940E+02  0.00000000000E+00 0. -1.
         21   -1    0    0  501  503 -0.00000000000E+00 -0.00000000000E+00 -0.80706944053E+03  0.80706944053E+03  0.00000000000E+00 0. -1.
          6    2    1    2  501    0  0.40041280482E+01 -0.66163814938E+02 -0.69591492390E+03  0.72038981890E+03  0.17398340843E+03 0.  0.
         24    2    3    3    0    0  0.65568165289E+02 -0.62344295084E+02 -0.38622905370E+03  0.40458584866E+03  0.79566523012E+02 0.  0.
         -6    2    1    2    0  502 -0.40041280482E+01  0.66163814938E+02 -0.12953484688E+02  0.18488065358E+03  0.17210281768E+03 0.  0.
        -24    2    5    5    0    0 -0.86254469550E+01 -0.17437214923E+02  0.34981028167E+02  0.88287194664E+02  0.78692449515E+02 0.  0.
          5    1    3    3  501    0 -0.61564037241E+02 -0.38195198534E+01 -0.30968587020E+03  0.31580397024E+03  0.47000000000E+01 0. -1.
        -11    1    4    4    0    0  0.11289727791E+02 -0.61948143829E+02 -0.16020865960E+03  0.17213902837E+03  0.00000000000E+00 0.  1.
         12    1    4    4    0    0  0.54278437498E+02 -0.39615125479E+00 -0.22602039411E+03  0.23244682029E+03  0.00000000000E+00 0. -1.
         -5    1    5    5    0  502  0.46213189069E+01  0.83601029860E+02 -0.47934512855E+02  0.96593458913E+02  0.47000000000E+01 0.  1.
         11    1    6    6    0    0 -0.40070535342E+02 -0.16377777235E+02  0.29505284528E+01  0.43388765919E+02  0.00000000000E+00 0. -1.
        -12    1    6    6    0    0  0.31445088387E+02 -0.10594376873E+01  0.32030499714E+02  0.44898428746E+02  0.00000000000E+00 0.  1.
</event>
<event>
12    1  0.8133495E-002  0.1782267E+03  0.7818608E-02  0.1169624E+00
         21   -1    0    0  503  502  0.00000000000E+00  0.00000000000E+00  0.65003158196E+02  0.65003158196E+02  0.00000000000E+00 0. -1.
         21   -1    0    0  501  503 -0.00000000000E+00 -0.00000000000E+00 -0.66335908253E+03  0.66335908253E+03  0.00000000000E+00 0. -1.
          6    2    1    2  501    0 -0.40395297948E+01 -0.46743743660E+02 -0.48638783517E+03  0.51788279654E+03  0.17154640588E+03 0.  0.
         24    2    3    3    0    0 -0.20269302765E+02  0.37213292906E+02 -0.21954342233E+03  0.23763251521E+03  0.80462563912E+02 0.  0.
         -6    2    1    2    0  502  0.40395297948E+01  0.46743743660E+02 -0.11196808916E+03  0.21047944419E+03  0.17194024562E+03 0.  0.
        -24    2    5    5    0    0 -0.35591019667E+02  0.73091338138E+02 -0.11604698780E+03  0.16248461530E+03  0.79531644274E+02 0.  0.
          5    1    3    3  501    0  0.16229772971E+02 -0.83957036566E+02 -0.26684441284E+03  0.28025028133E+03  0.47000000000E+01 0. -1.
        -11    1    4    4    0    0  0.10252015602E+02  0.26310826651E+02 -0.19485455568E+03  0.19688997256E+03  0.00000000000E+00 0.  1.
         12    1    4    4    0    0 -0.30521318367E+02  0.10902466255E+02 -0.24688866650E+02  0.40742542652E+02  0.00000000000E+00 0. -1.
         -5    1    5    5    0  502  0.39630549462E+02 -0.26347594478E+02  0.40788986433E+01  0.47994828883E+02  0.47000000000E+01 0.  1.
         11    1    6    6    0    0 -0.37696043950E+02  0.60634294652E+02 -0.33303466658E+02  0.78782169993E+02  0.00000000000E+00 0. -1.
        -12    1    6    6    0    0  0.21050242833E+01  0.12457043486E+02 -0.82743521145E+02  0.83702445312E+02  0.00000000000E+00 0.  1.
</event>
<event>
12    1  0.8133495E-002  0.1763675E+03  0.7818608E-02  0.1171395E+00
         21   -1    0    0  503  502  0.00000000000E+00  0.00000000000E+00  0.45517523868E+03  0.45517523868E+03  0.00000000000E+00 0. -1.
         21   -1    0    0  501  503 -0.00000000000E+00 -0.00000000000E+00 -0.15946466330E+03  0.15946466330E+03  0.00000000000E+00 0. -1.
          6    2    1    2  501    0 -0.87240574095E+01 -0.39375894494E+02 -0.84543199402E+02  0.19547593694E+03  0.17157132369E+03 0.  0.
         24    2    3    3    0    0 -0.15163896911E+02 -0.73956181118E+02 -0.53870689376E+01  0.10872888658E+03  0.78060808160E+02 0.  0.
         -6    2    1    2    0  502  0.87240574095E+01  0.39375894494E+02  0.38025377478E+03  0.41916396504E+03  0.17169428095E+03 0.  0.
        -24    2    5    5    0    0 -0.77381962757E+00  0.40415793323E+02  0.39257544533E+03  0.40287886072E+03  0.81005314601E+02 0.  0.
          5    1    3    3  501    0  0.64398395014E+01  0.34580286624E+02 -0.79156130465E+02  0.86747050359E+02  0.47000000000E+01 0. -1.
        -11    1    4    4    0    0  0.28552431021E+02 -0.38531547187E+02 -0.17718618781E+02  0.51126029548E+02  0.00000000000E+00 0.  1.
         12    1    4    4    0    0 -0.43716327932E+02 -0.35424633931E+02  0.12331549843E+02  0.57602857034E+02  0.00000000000E+00 0. -1.
         -5    1    5    5    0  502  0.94978770370E+01 -0.10398988288E+01 -0.12321670547E+02  0.16285104324E+02  0.47000000000E+01 0.  1.
         11    1    6    6    0    0  0.88098126902E+01 -0.23854752687E+02  0.11999260974E+03  0.12265760644E+03  0.00000000000E+00 0. -1.
        -12    1    6    6    0    0 -0.95836323177E+01  0.64270546010E+02  0.27258283558E+03  0.28022125427E+03  0.00000000000E+00 0.  1.
</event>
<event>
12    1  0.8133495E-002  0.4012709E+03  0.7818608E-02  0.1043354E+00
         21   -1    0    0  501  502  0.00000000000E+00  0.00000000000E+00  0.10876578361E+03  0.10876578361E+03  0.00000000000E+00 0.  1.
         21   -1    0    0  502  503 -0.00000000000E+00 -0.00000000000E+00 -0.17598125645E+04  0.17598125645E+04  0.00000000000E+00 0. -1.
         -6    2    1    2    0  503  0.35634493124E+03  0.63577105657E+02 -0.11983164396E+04  0.12637169855E+04  0.17318941012E+03 0.  0.
        -24    2    3    3    0    0  0.16017160895E+03  0.10330191675E+03 -0.59802303096E+03  0.63091662253E+03  0.64015691050E+02 0.  0.
          6    2    1    2  501    0 -0.35634493124E+03 -0.63577105657E+02 -0.45273034128E+03  0.60486136256E+03  0.17282577243E+03 0.  0.
         24    2    5    5    0    0 -0.33509038500E+03 -0.89499471799E+02 -0.44528704145E+03  0.57020277755E+03  0.80962563397E+02 0.  0.
          5    1    5    5  501    0 -0.21254546238E+02  0.25922366142E+02 -0.74432998300E+01  0.34658585005E+02  0.47000000000E+01 0. -1.
        -13    1    6    6    0    0 -0.41851819870E+01 -0.68422455180E+01 -0.38603310256E+02  0.39427752088E+02  0.00000000000E+00 0.  1.
         14    1    6    6    0    0 -0.33090520301E+03 -0.82657226281E+02 -0.40668373120E+03  0.53077502547E+03  0.00000000000E+00 0. -1.
         -5    1    3    3    0  503  0.19617332229E+03 -0.39724811093E+02 -0.60029340861E+03  0.63280036300E+03  0.47000000000E+01 0.  1.
         13    1    4    4    0    0  0.75314081017E+01 -0.36337693444E+01 -0.79098824691E+02  0.79539615634E+02  0.00000000000E+00 0. -1.
        -14    1    4    4    0    0  0.15264020085E+03  0.10693568609E+03 -0.51892420627E+03  0.55137700689E+03  0.00000000000E+00 0.  1.
</event>
<event>
12    1  0.8133495E-002  0.1786913E+03  0.7818608E-02  0.1169469E+00
         21   -1    0    0  503  502  0.00000000000E+00  0.00000000000E+00  0.81952059120E+02  0.81952059120E+02  0.00000000000E+00 0. -1.
         21   -1    0    0  501  503 -0.00000000000E+00 -0.00000000000E+00 -0.53056707996E+03  0.53056707996E+03  0.00000000000E+00 0. -1.
          6    2    1    2  501    0  0.34558989495E+02 -0.13844656340E+02 -0.38336000637E+03  0.42228556324E+03  0.17313059861E+03 0.  0.
         24    2    3    3    0    0  0.73926796314E+02 -0.15547941714E+01 -0.16163607934E+03  0.19670973399E+03  0.84266889720E+02 0.  0.
         -6    2    1    2    0  502 -0.34558989495E+02  0.13844656340E+02 -0.65255014471E+02  0.19023357584E+03  0.17477012959E+03 0.  0.
        -24    2    5    5    0    0 -0.87570351069E+02 -0.10766993912E+02 -0.33830858883E+02  0.12370910411E+03  0.79843101661E+02 0.  0.
          5    1    3    3  501    0 -0.39367806819E+02 -0.12289862169E+02 -0.22172392703E+03  0.22557582925E+03  0.47000000000E+01 0. -1.
        -11    1    4    4    0    0  0.90884931755E+02  0.90262945176E+01 -0.14087098098E+03  0.16788739707E+03  0.00000000000E+00 0.  1.
         12    1    4    4    0    0 -0.16958135441E+02 -0.10581088689E+02 -0.20765098356E+02  0.28822336914E+02  0.00000000000E+00 0. -1.
         -5    1    5    5    0  502  0.53011361574E+02  0.24611650252E+02 -0.31424155588E+02  0.66524471727E+02  0.47000000000E+01 0.  1.
         11    1    6    6    0    0 -0.73882682517E+02 -0.32638360986E+02  0.48919973673E+00  0.80772227283E+02  0.00000000000E+00 0. -1.
        -12    1    6    6    0    0 -0.13687668552E+02  0.21871367075E+02 -0.34320058619E+02  0.42936876828E+02  0.00000000000E+00 0.  1.
</event>
<event>
12    1  0.8133495E-002  0.1901839E+03  0.7818608E-02  0.1158964E+00
         21   -1    0    0  501  502  0.00000000000E+00  0.00000000000E+00  0.22091025690E+03  0.22091025690E+03  0.00000000000E+00 0.  1.
         21   -1    0    0  502  503 -0.00000000000E+00 -0.00000000000E+00 -0.32939985399E+03  0.32939985399E+03  0.00000000000E+00 0.  1.
         -6    2    1    2    0  503  0.14347265127E+02  0.78169394148E+02 -0.25065131785E+03  0.31286565420E+03  0.16953623872E+03 0.  0.
        -24    2    3    3    0    0  0.63166065535E+01  0.65696748544E+01 -0.63719272067E+02  0.11247430952E+03  0.92234833572E+02 0.  0.
          6    2    1    2  501    0 -0.14347265127E+02 -0.78169394148E+02  0.14216172076E+03  0.23744445669E+03  0.17278199259E+03 0.  0.
         24    2    5    5    0    0 -0.70609932506E+02 -0.79344788388E+02  0.11082622786E+03  0.17286216494E+03  0.79482811181E+02 0.  0.
          5    1    5    5  501    0  0.56262667378E+02  0.11753942395E+01  0.31335492904E+02  0.64582291750E+02  0.47000000000E+01 0. -1.
        -13    1    6    6    0    0 -0.67485425040E+02 -0.23110035091E+02  0.84816169877E+02  0.11082481215E+03  0.00000000000E+00 0.  1.
         14    1    6    6    0    0 -0.31245074664E+01 -0.56234753297E+02  0.26010057979E+02  0.62037352791E+02  0.00000000000E+00 0. -1.
         -5    1    3    3    0  503  0.80306585739E+01  0.71599719294E+02 -0.18693204579E+03  0.20039134468E+03  0.47000000000E+01 0.  1.
         11    1    4    4    0    0 -0.13941263835E+01  0.72800891624E+00  0.24086232939E+02  0.24137526852E+02  0.00000000000E+00 0. -1.
        -12    1    4    4    0    0  0.77107329370E+01  0.58416659382E+01 -0.87805505006E+02  0.88336782671E+02  0.00000000000E+00 0.  1.
</event>
<event>
12    1  0.8133495E-002  0.2220951E+03  0.7818608E-02  0.1132531E+00
         21   -1    0    0  503  502  0.00000000000E+00  0.00000000000E+00  0.10730718202E+03  0.10730718202E+03  0.00000000000E+00 0.  1.
         21   -1    0    0  501  503 -0.00000000000E+00 -0.00000000000E+00 -0.90007022249E+03  0.90007022249E+03  0.00000000000E+00 0.  1.
          6    2    1    2  501    0  0.16939836519E+02 -0.13622455885E+03 -0.74911147948E+03  0.78103319043E+03  0.17320723819E+03 0.  0.
         24    2    3    3    0    0  0.56513365517E+02 -0.11982714571E+03 -0.38888485342E+03  0.41823813605E+03  0.78354348303E+02 0.  0.
         -6    2    1    2    0  502 -0.16939836519E+02  0.13622455885E+03 -0.43651560988E+02  0.22634421408E+03  0.17459139719E+03 0.  0.
        -24    2    5    5    0    0 -0.34915166173E+02  0.11939811423E+02 -0.48163437511E+02  0.10059741313E+03  0.80240232363E+02 0.  0.
          5    1    3    3  501    0 -0.39573528998E+02 -0.16397413140E+02 -0.36022662607E+03  0.36279505438E+03  0.47000000000E+01 0. -1.
        -11    1    4    4    0    0 -0.18996797544E+02 -0.22174445404E+02 -0.55097804014E+02  0.62356654441E+02  0.00000000000E+00 0.  1.
         12    1    4    4    0    0  0.75510163061E+02 -0.97652700304E+02 -0.33378704940E+03  0.35588148161E+03  0.00000000000E+00 0. -1.
         -5    1    5    5    0  502  0.17975329654E+02  0.12428474743E+03  0.45118765224E+01  0.12574680095E+03  0.47000000000E+01 0.  1.
         11    1    6    6    0    0 -0.26038706063E+02  0.26167155756E+02 -0.66307489141E+02  0.75890825334E+02  0.00000000000E+00 0. -1.
        -12    1    6    6    0    0 -0.88764601103E+01 -0.14227344334E+02  0.18144051630E+02  0.24706587794E+02  0.00000000000E+00 0.  1.
</event>
<event>
12    1  0.8133495E-002  0.1802655E+03  0.7818608E-02  0.1167907E+00
         21   -1    0    0  503  502  0.00000000000E+00  0.00000000000E+00  0.38999150697E+03  0.38999150697E+03  0.00000000000E+00 0. -1.
         21   -1    0    0  501  503 -0.00000000000E+00 -0.00000000000E+00 -0.81211114790E+03  0.81211114790E+03  0.00000000000E+00 0. -1.
          6    2    1    2  501    0  0.30706635156E+02  0.43728853377E+02 -0.78062088526E+03  0.80083120065E+03  0.17060637553E+03 0.  0.
         24    2    3    3    0    0 -0.51799001449E+00  0.31319712176E+01 -0.70398886520E+03  0.70854013631E+03  0.80116945049E+02 0.  0.
         -6    2    1    2    0  502 -0.30706635156E+02 -0.43728853377E+02  0.35850124433E+03  0.40127145423E+03  0.17216424638E+03 0.  0.
        -24    2    5    5    0    0  0.25795224865E+02  0.15724105531E+02  0.25292664213E+03  0.26749850801E+03  0.81675726936E+02 0.  0.
          5    1    3    3  501    0  0.31224625171E+02  0.40596882159E+02 -0.76632020059E+02  0.92291064337E+02  0.47000000000E+01 0. -1.
        -11    1    4    4    0    0  0.24771906637E+02 -0.11497372873E+02 -0.94912747013E+02  0.98763690124E+02  0.00000000000E+00 0.  1.
         12    1    4    4    0    0 -0.25289896652E+02  0.14629344091E+02 -0.60907611819E+03  0.60977644619E+03  0.00000000000E+00 0. -1.
         -5    1    5    5    0  502 -0.56501860021E+02 -0.59452958908E+02  0.10557460220E+03  0.13377294622E+03  0.47000000000E+01 0.  1.
         13    1    6    6    0    0  0.26436156786E+00 -0.25801357772E+02  0.31251325514E+02  0.40526846612E+02  0.00000000000E+00 0. -1.
        -14    1    6    6    0    0  0.25530863297E+02  0.41525463303E+02  0.22167531661E+03  0.22697166140E+03  0.00000000000E+00 0.  1.
</event>
<event>
12    1  0.8133495E-002  0.1853094E+03  0.7818608E-02  0.1163216E+00
         21   -1    0    0  501  502  0.00000000000E+00  0.00000000000E+00  0.13123093105E+03  0.13123093105E+03  0.00000000000E+00 0.  1.
         21   -1    0    0  502  503 -0.00000000000E+00 -0.00000000000E+00 -0.51026163462E+03  0.51026163462E+03  0.00000000000E+00 0.  1.
         -6    2    1    2    0  503 -0.57982607177E+02  0.26429668804E+02 -0.41512128943E+03  0.45460449766E+03  0.17400877629E+03 0.  0.
        -24    2    3    3    0    0 -0.80177225724E+02  0.64843592374E+02 -0.22742313967E+03  0.26167726775E+03  0.78234448961E+02 0.  0.
          6    2    1    2  501    0  0.57982607177E+02 -0.26429668804E+02  0.36090585850E+02  0.18688806801E+03  0.17194216891E+03 0.  0.
         24    2    5    5    0    0  0.85345717074E+02 -0.19609230381E+02 -0.23810484098E+02  0.12051423021E+03  0.79298973454E+02 0.  0.
          5    1    5    5  501    0 -0.27363109897E+02 -0.68204384238E+01  0.59901069948E+02  0.66373837801E+02  0.47000000000E+01 0. -1.
        -11    1    6    6    0    0 -0.12190747523E+01 -0.29359547008E+02  0.25652071545E+01  0.29496600338E+02  0.00000000000E+00 0.  1.
         12    1    6    6    0    0  0.86564791826E+02  0.97503166274E+01 -0.26375691253E+02  0.91017629871E+02  0.00000000000E+00 0. -1.
         -5    1    3    3    0  503  0.22194618547E+02 -0.38413923570E+02 -0.18769814976E+03  0.19292722991E+03  0.47000000000E+01 0.  1.
         13    1    4    4    0    0 -0.37895625312E+02  0.66095670099E+02 -0.90140551985E+02  0.11802556984E+03  0.00000000000E+00 0. -1.
        -14    1    4    4    0    0 -0.42281600412E+02 -0.12520777248E+01 -0.13728258768E+03  0.14365169791E+03  0.00000000000E+00 0.  1.
</event>
<event>
12    1  0.8133495E-002  0.2079796E+03  0.7818608E-02  0.1143681E+00
         21   -1    0    0  501  502  0.00000000000E+00  0.00000000000E+00  0.14371654635E+04  0.14371654635E+04  0.00000000000E+00 0.  1.
         21   -1    0    0  502  503 -0.00000000000E+00 -0.00000000000E+00 -0.30654866622E+02  0.30654866622E+02  0.00000000000E+00 0.  1.
         -6    2    1    2    0  503 -0.74897524455E+02 -0.91808238136E+02  0.57212006949E+03  0.60789995481E+03  0.16787670889E+03 0.  0.
        -24    2    3    3    0    0  0.55689306415E+01 -0.77822039247E+01  0.15495765848E+03  0.17479281798E+03  0.80306149248E+02 0.  0.
          6    2    1    2  501    0  0.74897524455E+02  0.91808238136E+02  0.83439052742E+03  0.85992037534E+03  0.17093012584E+03 0.  0.
         24    2    5    5    0    0  0.42070482999E+02  0.66682703231E+02  0.79377077032E+03  0.80177433660E+03  0.80953953308E+02 0.  0.
          5    1    5    5  501    0  0.32827041456E+02  0.25125534906E+02  0.40619757095E+02  0.58146038743E+02  0.47000000000E+01 0. -1.
        -11    1    6    6    0    0  0.31359257707E+02  0.84241341894E+02  0.56800810824E+03  0.57507670597E+03  0.00000000000E+00 0.  1.
         12    1    6    6    0    0  0.10711225292E+02 -0.17558638663E+02  0.22576266209E+03  0.22669763063E+03  0.00000000000E+00 0. -1.
         -5    1    3    3    0  503 -0.80466455097E+02 -0.84026034212E+02  0.41716241100E+03  0.43310713683E+03  0.47000000000E+01 0.  1.
         11    1    4    4    0    0 -0.28782248372E+02  0.21103238860E+02  0.76211391342E+02  0.84154267164E+02  0.00000000000E+00 0. -1.
        -12    1    4    4    0    0  0.34351179014E+02 -0.28885442785E+02  0.78746267143E+02  0.90638550813E+02  0.00000000000E+00 0.  1.
</event>
<event>
12    1  0.8133495E-002  0.2034077E+03  0.7818608E-02  0.1149322E+00
         21   -1    0    0  503  502  0.00000000000E+00  0.00000000000E+00  0.65124525982E+03  0.65124525982E+03  0.00000000000E+00 0.  1.
         21   -1    0    0  501  503 -0.00000000000E+00 -0.00000000000E+00 -0.64420503678E+02  0.64420503678E+02  0.00000000000E+00 0.  1.
          6    2    1    2  501    0 -0.51365906708E+02 -0.68502492084E+02  0.20781045742E+03  0.29079183894E+03  0.18450923984E+03 0.  0.
         24    2    3    3    0    0 -0.46370514532E+02 -0.71649901212E+02  0.23584933597E+03  0.26175515804E+03  0.74879373149E+02 0.  0.
         -6    2    1    2    0  502  0.51365906708E+02  0.68502492084E+02  0.37901429871E+03  0.42487392455E+03  0.17185739828E+03 0.  0.
        -24    2    5    5    0    0  0.48238441745E+02  0.16952898110E+02  0.87492505337E+02  0.12877565085E+03  0.79459937993E+02 0.  0.
          5    1    3    3  501    0 -0.49953921767E+01  0.31474091275E+01 -0.28038878548E+02  0.29036680895E+02  0.47000000000E+01 0. -1.
        -13    1    4    4    0    0 -0.58798946199E+02 -0.57172724519E+02  0.12653679265E+03  0.15078990814E+03  0.00000000000E+00 0.  1.
         14    1    4    4    0    0  0.12428431667E+02 -0.14477176692E+02  0.10931254332E+03  0.11096524990E+03  0.00000000000E+00 0. -1.
         -5    1    5    5    0  502  0.31274649629E+01  0.51549593974E+02  0.29152179338E+03  0.29609827370E+03  0.47000000000E+01 0.  1.
         13    1    6    6    0    0  0.20946036286E+02  0.32824753890E+02  0.35592228734E+01  0.39100754104E+02  0.00000000000E+00 0. -1.
        -14    1    6    6    0    0  0.27292405459E+02 -0.15871855780E+02  0.83933282464E+02  0.89674896748E+02  0.00000000000E+00 0.  1.
</event>
<event>
12    1  0.8133495E-002  0.1835737E+03  0.7818608E-02  0.1165393E+00
         21   -1    0    0  501  502  0.00000000000E+00  0.00000000000E+00  0.10657656254E+04  0.10657656254E+04  0.00000000000E+00 0. -1.
         21   -1    0    0  502  503 -0.00000000000E+00 -0.00000000000E+00 -0.30923347193E+02  0.30923347193E+02  0.00000000000E+00 0. -1.
         -6    2    1    2    0  503  0.41406635900E+02  0.24666879670E+02  0.50812721742E+03  0.54027084562E+03  0.17713371529E+03 0.  0.
        -24    2    3    3    0    0  0.56593045543E+02  0.67081350424E+02  0.20357738796E+03  0.23237101939E+03  0.69640917459E+02 0.  0.
          6    2    1    2  501    0 -0.41406635900E+02 -0.24666879670E+02  0.52671506077E+03  0.55641812696E+03  0.17276982467E+03 0.  0.
         24    2    5    5    0    0  0.35928261152E+02  0.18629039907E+02  0.29068433374E+03  0.30425187812E+03  0.80211859327E+02 0.  0.
          5    1    5    5  501    0 -0.77334897052E+02 -0.43295919577E+02  0.23603072702E+03  0.25216624884E+03  0.47000000000E+01 0. -1.
        -13    1    6    6    0    0  0.33679993162E+02  0.79693321991E+01  0.38255746906E+02  0.51588316182E+02  0.00000000000E+00 0.  1.
         14    1    6    6    0    0  0.22482679896E+01  0.10659707708E+02  0.25242858684E+03  0.25266356194E+03  0.00000000000E+00 0. -1.
         -5    1    3    3    0  503 -0.15186409644E+02 -0.42414470754E+02  0.30454982946E+03  0.30789982623E+03  0.47000000000E+01 0.  1.
         13    1    4    4    0    0 -0.44475421027E+01  0.24076261815E+02  0.10980613186E+03  0.11250259379E+03  0.00000000000E+00 0. -1.
        -14    1    4    4    0    0  0.61040587646E+02  0.43005088609E+02  0.93771256094E+02  0.11986842560E+03  0.00000000000E+00 0.  1.
</event>
<event>
12    1  0.8133495E-002  0.3064123E+03  0.7818608E-02  0.1082242E+00
         21   -1    0    0  501  502  0.00000000000E+00  0.00000000000E+00  0.56632108679E+03  0.56632108679E+03  0.00000000000E+00 0.  1.
         21   -1    0    0  502  503 -0.00000000000E+00 -0.00000000000E+00 -0.16843558702E+03  0.16843558702E+03  0.00000000000E+00 0. -1.
         -6    2    1    2    0  503 -0.25062690808E+03  0.26950110821E+02  0.14737441218E+03  0.34001137008E+03  0.17420780375E+03 0.  0.
        -24    2    3    3    0    0 -0.63831517464E+02  0.12193064157E+02  0.10598654799E+03  0.14805998643E+03  0.80408194798E+02 0.  0.
          6    2    1    2  501    0  0.25062690808E+03 -0.26950110821E+02  0.25051108759E+03  0.39474530374E+03  0.17183682460E+03 0.  0.
         24    2    5    5    0    0  0.25561378123E+03 -0.64462810077E+01  0.25754885153E+03  0.37200995544E+03  0.81731489168E+02 0.  0.
          5    1    5    5  501    0 -0.49868731512E+01 -0.20503829813E+02 -0.70377639485E+01  0.22735348298E+02  0.47000000000E+01 0. -1.
        -11    1    6    6    0    0  0.44396628619E+02 -0.25897056721E+02  0.24668130584E+02  0.57010830954E+02  0.00000000000E+00 0.  1.
         12    1    6    6    0    0  0.21121715262E+03  0.19450775713E+02  0.23288072095E+03  0.31499912448E+03  0.00000000000E+00 0. -1.
         -5    1    3    3    0  503 -0.18679539062E+03  0.14757046664E+02  0.41387864193E+02  0.19195138365E+03  0.47000000000E+01 0.  1.
         11    1    4    4    0    0 -0.80748470927E+02  0.11955039137E+02  0.67154079719E+02  0.10570198173E+03  0.00000000000E+00 0. -1.
        -12    1    4    4    0    0  0.16916953462E+02  0.23802501967E+00  0.38832468268E+02  0.42358004700E+02  0.00000000000E+00 0.  1.
</event>
<event>
12    1  0.8133495E-002  0.2599104E+03  0.7818608E-02  0.1107224E+00
         21   -1    0    0  501  502  0.00000000000E+00  0.00000000000E+00  0.28277097651E+03  0.28277097651E+03  0.00000000000E+00 0. -1.
         21   -1    0    0  502  503 -0.00000000000E+00 -0.00000000000E+00 -0.24135974279E+03  0.24135974279E+03  0.00000000000E+00 0.  1.
         -6    2    1    2    0  503  0.79699673882E+00  0.19426180317E+03 -0.66182192313E+01  0.25999463578E+03  0.17267057200E+03 0.  0.
        -24    2    3    3    0    0  0.53648686918E+02  0.15969239719E+03  0.27006245427E+02  0.18829359250E+03  0.79657368486E+02 0.  0.
          6    2    1    2  501    0 -0.79699673882E+00 -0.19426180317E+03  0.48029452947E+02  0.26413608352E+03  0.17240289699E+03 0.  0.
         24    2    5    5    0    0  0.65594828883E+02 -0.11466591507E+03  0.43440835694E+02  0.16027788538E+03  0.79692789395E+02 0.  0.
          5    1    5    5  501    0 -0.66391825621E+02 -0.79595888105E+02  0.45886172523E+01  0.10385819814E+03  0.47000000000E+01 0. -1.
        -11    1    6    6    0    0  0.65754254654E+02 -0.50458536058E+02  0.22951520851E+00  0.82883885910E+02  0.00000000000E+00 0.  1.
         12    1    6    6    0    0 -0.15942577181E+00 -0.64207379009E+02  0.43211320486E+02  0.77393999470E+02  0.00000000000E+00 0. -1.
         -5    1    3    3    0  503 -0.52851690180E+02  0.34569405977E+02 -0.33624464658E+02  0.71701043284E+02  0.47000000000E+01 0.  1.
         11    1    4    4    0    0  0.14871351382E+02 -0.23709688863E+01  0.14950347699E+02  0.21220072613E+02  0.00000000000E+00 0. -1.
        -12    1    4    4    0    0  0.38777335536E+02  0.16206336608E+03  0.12055897728E+02  0.16707351988E+03  0.00000000000E+00 0.  1.
</event>
<event>
12    1  0.8133495E-002  0.1753433E+03  0.7818608E-02  0.1172477E+00
         21   -1    0    0  503  502  0.00000000000E+00  0.00000000000E+00  0.20471594992E+03  0.20471594992E+03  0.00000000000E+00 0.  1.
         21   -1    0    0  501  503 -0.00000000000E+00 -0.00000000000E+00 -0.25047974121E+03  0.25047974121E+03  0.00000000000E+00 0.  1.
          6    2    1    2  501    0  0.31996375452E+02 -0.72285745451E+01 -0.16713385558E+03  0.24223744928E+03  0.17224760033E+03 0.  0.
         24    2    3    3    0    0  0.61827266335E+02 -0.46814466787E+02 -0.74807347438E+02  0.13734131483E+03  0.85160392006E+02 0.  0.
         -6    2    1    2    0  502 -0.31996375452E+02  0.72285745451E+01  0.12137006429E+03  0.21295824185E+03  0.17188513587E+03 0.  0.
        -24    2    5    5    0    0  0.37505648340E+02  0.97622863018E+01  0.21740473295E+02  0.91364260057E+02  0.79829843702E+02 0.  0.
          5    1    3    3  501    0 -0.29830890883E+02  0.39585892242E+02 -0.92326508140E+02  0.10489613444E+03  0.47000000000E+01 0. -1.
        -11    1    4    4    0    0  0.14204765763E+02 -0.46284223756E+02 -0.75524580457E+02  0.89710462000E+02  0.00000000000E+00 0.  1.
         12    1    4    4    0    0  0.47622500573E+02 -0.53024303080E+00  0.71723301903E+00  0.47630852834E+02  0.00000000000E+00 0. -1.
         -5    1    5    5    0  502 -0.69502023792E+02 -0.25337117567E+01  0.99629590999E+02  0.12159398180E+03  0.47000000000E+01 0.  1.
         11    1    6    6    0    0 -0.10826360050E+02 -0.25759012740E+02  0.12139893610E+01  0.27968027808E+02  0.00000000000E+00 0. -1.
        -12    1    6    6    0    0  0.48332008390E+02  0.35521299042E+02  0.20526483934E+02  0.63396232249E+02  0.00000000000E+00 0.  1.
</event>
<event>
12    1  0.8133495E-002  0.2265855E+03  0.7818608E-02  0.1131789E+00
         21   -1    0    0  501  502  0.00000000000E+00  0.00000000000E+00  0.31097448793E+03  0.31097448793E+03  0.00000000000E+00 0. -1.
         21   -1    0    0  502  503 -0.00000000000E+00 -0.00000000000E+00 -0.15766069124E+03  0.15766069124E+03  0.00000000000E+00 0. -1.
         -6    2    1    2    0  503 -0.11803360557E+03  0.21751744274E+02  0.41503402113E+02  0.21596435316E+03  0.17467970410E+03 0.  0.
        -24    2    3    3    0    0 -0.71207860682E+02  0.36823480054E+02 -0.39599684351E+02  0.12099273509E+03  0.81514286101E+02 0.  0.
          6    2    1    2  501    0  0.11803360557E+03 -0.21751744274E+02  0.11181039457E+03  0.25267082601E+03  0.19218717845E+03 0.  0.
         24    2    5    5    0    0  0.15359920947E+02 -0.75135269937E+02  0.58711257789E+02  0.12526087878E+03  0.79762397162E+02 0.  0.
          5    1    5    5  501    0  0.10267368463E+03  0.53383525663E+02  0.53099136782E+02  0.12740994723E+03  0.47000000000E+01 0. -1.
        -13    1    6    6    0    0  0.17641164505E+01 -0.21577137788E+02  0.66060500362E+02  0.69517441625E+02  0.00000000000E+00 0.  1.
         14    1    6    6    0    0  0.13595804496E+02 -0.53558132150E+02 -0.73492425730E+01  0.55743437153E+02  0.00000000000E+00 0. -1.
         -5    1    3    3    0  503 -0.46825744892E+02 -0.15071735780E+02  0.81103086465E+02  0.94971618067E+02  0.47000000000E+01 0.  1.
         11    1    4    4    0    0 -0.32890991123E+02  0.60787487664E+02 -0.25048984004E+02  0.73514539740E+02  0.00000000000E+00 0. -1.
        -12    1    4    4    0    0 -0.38316869558E+02 -0.23964007609E+02 -0.14550700348E+02  0.47478195354E+02  0.00000000000E+00 0.  1.
</event>
<event>
12    1  0.8133495E-002  0.1987043E+03  0.7818608E-02  0.1151080E+00
         21   -1    0    0  501  502  0.00000000000E+00  0.00000000000E+00  0.16974137420E+03  0.16974137420E+03  0.00000000000E+00 0.  1.
         21   -1    0    0  502  503 -0.00000000000E+00 -0.00000000000E+00 -0.71940423200E+03  0.71940423200E+03  0.00000000000E+00 0.  1.
         -6    2    1    2    0  503 -0.94874157268E+02  0.21348863758E+02 -0.64128993266E+03  0.67136889217E+03  0.17328165495E+03 0.  0.
        -24    2    3    3    0    0 -0.11755965751E+03 -0.20776006404E+02 -0.38617889846E+03  0.41176753166E+03  0.78526702458E+02 0.  0.
          6    2    1    2  501    0  0.94874157268E+02 -0.21348863758E+02  0.91627074861E+02  0.21777671402E+03  0.17197179019E+03 0.  0.
         24    2    5    5    0    0  0.66406209048E+02 -0.25204413554E+02 -0.13787886442E+02  0.10841633085E+03  0.80740001983E+02 0.  0.
          5    1    5    5  501    0  0.28467948220E+02  0.38555497960E+01  0.10541496130E+03  0.10936038317E+03  0.47000000000E+01 0. -1.
        -13    1    6    6    0    0 -0.37255677035E+01 -0.72650668600E+01  0.24993135307E+02  0.26292924213E+02  0.00000000000E+00 0.  1.
         14    1    6    6    0    0  0.70131776751E+02 -0.17939346694E+02 -0.38781021749E+02  0.82123406639E+02  0.00000000000E+00 0. -1.
         -5    1    3    3    0  503  0.22685500246E+02  0.42124870161E+02 -0.25511103420E+03  0.25960136051E+03  0.47000000000E+01 0.  1.
         11    1    4    4    0    0 -0.45345359723E+01 -0.34808200343E+01  0.27757493400E+01  0.63547548335E+01  0.00000000000E+00 0. -1.
        -12    1    4    4    0    0 -0.11302512154E+03 -0.17295186369E+02 -0.38895464780E+03  0.40541277683E+03  0.00000000000E+00 0.  1.
</event>
<event>
12    1  0.8133495E-002  0.2080293E+03  0.7818608E-02  0.1143353E+00
         21   -1    0    0  501  502  0.00000000000E+00  0.00000000000E+00  0.11071565347E+03  0.11071565347E+03  0.00000000000E+00 0. -1.
         21   -1    0    0  502  503 -0.00000000000E+00 -0.00000000000E+00 -0.76689672645E+03  0.76689672645E+03  0.00000000000E+00 0. -1.
         -6    2    1    2    0  503  0.10000862871E+03  0.55749138360E+02 -0.63661402209E+03  0.66974144084E+03  0.17368503740E+03 0.  0.
        -24    2    3    3    0    0  0.63513768953E+02  0.77733890903E+02 -0.60036076745E+03  0.61360239378E+03  0.77448627586E+02 0.  0.
          6    2    1    2  501    0 -0.10000862871E+03 -0.55749138360E+02 -0.19567050891E+02  0.20787093907E+03  0.17238841488E+03 0.  0.
         24    2    5    5    0    0 -0.80333110831E+02  0.24113688755E+02 -0.39590192235E+02  0.12308760729E+03  0.80921548840E+02 0.  0.
          5    1    5    5  501    0 -0.19675517884E+02 -0.79862827114E+02  0.20023141345E+02  0.84783331782E+02  0.47000000000E+01 0. -1.
        -11    1    6    6    0    0  0.83743923464E+00  0.23984279409E+02 -0.34144075665E+02  0.41734456583E+02  0.00000000000E+00 0.  1.
         12    1    6    6    0    0 -0.81170550065E+02  0.12940934543E+00 -0.54461165699E+01  0.81353150710E+02  0.00000000000E+00 0. -1.
         -5    1    3    3    0  503  0.36494859762E+02 -0.21984752543E+02 -0.36253254641E+02  0.56139047066E+02  0.47000000000E+01 0.  1.
         13    1    4    4    0    0  0.44927957834E+02  0.41675712327E+02 -0.15930964247E+03  0.17068962644E+03  0.00000000000E+00 0. -1.
        -14    1    4    4    0    0  0.18585811119E+02  0.36058178576E+02 -0.44105112498E+03  0.44291276733E+03  0.00000000000E+00 0.  1.
</event>
<event>
12    1  0.8133495E-002  0.1785760E+03  0.7818608E-02  0.1170244E+00
         21   -1    0    0  501  502  0.00000000000E+00  0.00000000000E+00  0.25365267797E+03  0.25365267797E+03  0.00000000000E+00 0. -1.
         21   -1    0    0  502  503 -0.00000000000E+00 -0.00000000000E+00 -0.32217084696E+03  0.32217084696E+03  0.00000000000E+00 0. -1.
         -6    2    1    2    0  503  0.34275973897E+02 -0.27204759232E+02 -0.26093492411E+03  0.31619045675E+03  0.17313124792E+03 0.  0.
        -24    2    3    3    0    0  0.45469890345E+02  0.52579182026E+02 -0.18465288729E+03  0.20514172785E+03  0.56163675180E+02 0.  0.
          6    2    1    2  501    0 -0.34275973897E+02  0.27204759232E+02  0.19241675513E+03  0.25963306818E+03  0.16873109118E+03 0.  0.
         24    2    5    5    0    0 -0.31728276489E+02 -0.46789660879E+02  0.87211155457E+02  0.13090089205E+03  0.79582045775E+02 0.  0.
          5    1    5    5  501    0 -0.25476974073E+01  0.73994420111E+02  0.10520559967E+03  0.12873217613E+03  0.47000000000E+01 0. -1.
        -13    1    6    6    0    0 -0.26824837991E+02 -0.54089671706E+02  0.20722605312E+02  0.63833305487E+02  0.00000000000E+00 0.  1.
         14    1    6    6    0    0 -0.49034384985E+01  0.73000108275E+01  0.66488550145E+02  0.67067586565E+02  0.00000000000E+00 0. -1.
         -5    1    3    3    0  503 -0.11193916448E+02 -0.79783941258E+02 -0.76282036817E+02  0.11104872890E+03  0.47000000000E+01 0.  1.
         13    1    4    4    0    0  0.30573399877E+02 -0.39144929795E+01 -0.68886700941E+02  0.75468096583E+02  0.00000000000E+00 0. -1.
        -14    1    4    4    0    0  0.14896490468E+02  0.56493675006E+02 -0.11576618635E+03  0.12967363127E+03  0.00000000000E+00 0.  1.
</event>
<event>
12    1  0.8133495E-002  0.1879507E+03  0.7818608E-02  0.1160640E+00
         21   -1    0    0  501  502  0.00000000000E+00  0.00000000000E+00  0.50213944379E+03  0.50213944379E+03  0.00000000000E+00 0.  1.
         21   -1    0    0  502  503 -0.00000000000E+00 -0.00000000000E+00 -0.70148026589E+02  0.70148026589E+02  0.00000000000E+00 0.  1.
         -6    2    1    2    0  503 -0.54742751881E+02 -0.50112848963E+02  0.23435172204E+03  0.29954780285E+03  0.17117269075E+03 0.  0.
        -24    2    3    3    0    0  0.32570845483E+02 -0.14034173944E+02  0.78385175787E+02  0.11713895267E+03  0.79495159828E+02 0.  0.
          6    2    1    2  501    0  0.54742751881E+02  0.50112848963E+02  0.19763969517E+03  0.27273966753E+03  0.17267718617E+03 0.  0.
         24    2    5    5    0    0  0.92044745513E+02  0.60049596762E+02  0.18978109843E+03  0.23306568073E+03  0.78895861518E+02 0.  0.
          5    1    5    5  501    0 -0.37301993632E+02 -0.99367477984E+01  0.78585967343E+01  0.39673986797E+02  0.47000000000E+01 0. -1.
        -11    1    6    6    0    0  0.57874308157E+02  0.69638031493E+02  0.16955104015E+03  0.19221458371E+03  0.00000000000E+00 0.  1.
         12    1    6    6    0    0  0.34170437355E+02 -0.95884347310E+01  0.20230058281E+02  0.40851097019E+02  0.00000000000E+00 0. -1.
         -5    1    3    3    0  503 -0.87313597363E+02 -0.36078675019E+02  0.15596654625E+03  0.18240885018E+03  0.47000000000E+01 0.  1.
         11    1    4    4    0    0 -0.69417894094E+01  0.91585266627E+01 -0.11495368003E+02  0.16254554326E+02  0.00000000000E+00 0. -1.
        -12    1    4    4    0    0  0.39512634892E+02 -0.23192700607E+02  0.89880543790E+02  0.10088439835E+03  0.00000000000E+00 0.  1.
</event>
<event>
12    1  0.8133495E-002  0.1849004E+03  0.7818608E-02  0.1163372E+00
         21   -1    0    0  501  502  0.00000000000E+00  0.00000000000E+00  0.61813720831E+03  0.61813720831E+03  0.00000000000E+00 0.  1.
         21   -1    0    0  502  503 -0.00000000000E+00 -0.00000000000E+00 -0.73055404800E+02  0.73055404800E+02  0.00000000000E+00 0.  1.
         -6    2    1    2    0  503  0.50987259585E+02  0.38634948604E+02  0.10135400682E+03  0.21085729171E+03  0.17348141940E+03 0.  0.
        -24    2    3    3    0    0  0.43383450006E+02 -0.42823689342E+02  0.38101905702E+02  0.10733798959E+03  0.79710078964E+02 0.  0.
          6    2    1    2  501    0 -0.50987259585E+02 -0.38634948604E+02  0.44372779670E+03  0.48033532140E+03  0.17243927491E+03 0.  0.
         24    2    5    5    0    0 -0.17056996381E+02 -0.52795654559E+02  0.42964637749E+03  0.44068478898E+03  0.80800688644E+02 0.  0.
          5    1    5    5  501    0 -0.33930263204E+02  0.14160705956E+02  0.14081419209E+02  0.39650532420E+02  0.47000000000E+01 0. -1.
        -11    1    6    6    0    0  0.27797835501E+02 -0.32415197837E+02  0.12530299095E+03  0.13237939512E+03  0.00000000000E+00 0.  1.
         12    1    6    6    0    0 -0.44854831882E+02 -0.20380456722E+02  0.30434338653E+03  0.30830539387E+03  0.00000000000E+00 0. -1.
         -5    1    3    3    0  503  0.76038095791E+01  0.81458637945E+02  0.63252101116E+02  0.10351930212E+03  0.47000000000E+01 0.  1.
         11    1    4    4    0    0  0.56321667925E+02 -0.26321273431E+02  0.52935327778E+02  0.81652242099E+02  0.00000000000E+00 0. -1.
        -12    1    4    4    0    0 -0.12938217919E+02 -0.16502415911E+02 -0.14833422076E+02  0.25685747493E+02  0.00000000000E+00 0.  1.
</event>
<event>
12    1  0.8133495E-002  0.1776003E+03  0.7818608E-02  0.1170536E+00
         21   -1    0    0  501  502  0.00000000000E+00  0.00000000000E+00  0.26191637954E+04  0.26191637954E+04  0.00000000000E+00 0.  1.
         21   -1    0    0  502  503 -0.00000000000E+00 -0.00000000000E+00 -0.19947788409E+02  0.19947788409E+02  0.00000000000E+00 0.  1.
         -6    2    1    2    0  503 -0.25458942051E+02 -0.31863727697E+02  0.45988952850E+03  0.49242584721E+03  0.17123487292E+03 0.  0.
        -24    2    3    3    0    0 -0.68351382708E+02 -0.13731831315E+02  0.41250274245E+03  0.42582160842E+03  0.79404376237E+02 0.  0.
          6    2    1    2  501    0  0.25458942051E+02  0.31863727697E+02  0.21393264785E+04  0.21466857366E+04  0.17285373952E+03 0.  0.
         24    2    5    5    0    0 -0.48643741450E+02  0.40462801593E+02  0.11248167716E+04  0.11294260907E+04  0.79919164229E+02 0.  0.
          5    1    5    5  501    0  0.74102683501E+02 -0.85990738957E+01  0.10145097069E+04  0.10172596459E+04  0.47000000000E+01 0. -1.
        -13    1    6    6    0    0  0.21082022564E+01  0.43064319047E+02  0.74190924264E+03  0.74316102185E+03  0.00000000000E+00 0.  1.
         14    1    6    6    0    0 -0.50751943707E+02 -0.26015174542E+01  0.38290752893E+03  0.38626506883E+03  0.00000000000E+00 0. -1.
         -5    1    3    3    0  503  0.42892440658E+02 -0.18131896381E+02  0.47386786056E+02  0.66604238789E+02  0.47000000000E+01 0.  1.
         11    1    4    4    0    0 -0.63613298292E+01  0.25826109677E+02  0.18034413760E+03  0.18229498738E+03  0.00000000000E+00 0. -1.
        -12    1    4    4    0    0 -0.61990052879E+02 -0.39557940992E+02  0.23215860485E+03  0.24352662104E+03  0.00000000000E+00 0.  1.
</event>
<event>
12    1  0.8133495E-002  0.2025425E+03  0.7818608E-02  0.1149002E+00
         21   -1    0    0  501  502  0.00000000000E+00  0.00000000000E+00  0.19930315154E+03  0.19930315154E+03  0.00000000000E+00 0. -1.
         21   -1    0    0  502  503 -0.00000000000E+00 -0.00000000000E+00 -0.20221152252E+03  0.20221152252E+03  0.00000000000E+00 0. -1.
         -6    2    1    2    0  503  0.47742034460E+02  0.81294430057E+02 -0.25986904810E+02  0.20420284671E+03  0.17926348532E+03 0.  0.
        -24    2    3    3    0    0  0.13340514367E+02 -0.24452076891E+02 -0.30826000473E+02  0.92796854215E+02  0.82976746496E+02 0.  0.
          6    2    1    2  501    0 -0.47742034460E+02 -0.81294430057E+02  0.23078533829E+02  0.19731182736E+03  0.17178839390E+03 0.  0.
         24    2    5    5    0    0  0.12647250347E+02 -0.44715850047E+02  0.68962155282E+02  0.11297764122E+03  0.76476848567E+02 0.  0.
          5    1    5    5  501    0 -0.60389284807E+02 -0.36578580010E+02 -0.45883621453E+02  0.84334186145E+02  0.47000000000E+01 0. -1.
        -11    1    6    6    0    0  0.17670000716E+02 -0.35237863361E+02 -0.36396918999E+01  0.39587665966E+02  0.00000000000E+00 0.  1.
         12    1    6    6    0    0 -0.50227503686E+01 -0.94779866868E+01  0.72601847182E+02  0.73389975249E+02  0.00000000000E+00 0. -1.
         -5    1    3    3    0  503  0.34401520093E+02  0.10574650695E+03  0.48390956631E+01  0.11140599249E+03  0.47000000000E+01 0.  1.
         11    1    4    4    0    0  0.18328465763E+02 -0.39842478055E+02 -0.50787522668E+02  0.67102370849E+02  0.00000000000E+00 0. -1.
        -12    1    4    4    0    0 -0.49879513959E+01  0.15390401163E+02  0.19961522195E+02  0.25694483366E+02  0.00000000000E+00 0.  1.
</event>
<event>
12    1  0.8133495E-002  0.2021936E+03  0.7818608E-02  0.1148561E+00
         21   -1    0    0  503  502  0.00000000000E+00  0.00000000000E+00  0.48235619059E+03  0.48235619059E+03  0.00000000000E+00 0. -1.
         21   -1    0    0  501  503 -0.00000000000E+00 -0.00000000000E+00 -0.46842806960E+03  0.46842806960E+03  0.00000000000E+00 0.  1.
          6    2    1    2  501    0 -0.71855792444E+02  0.76673155410E+02 -0.42399985485E+03  0.46974262715E+03  0.17274325221E+03 0.  0.
         24    2    3    3    0    0 -0.57716834221E+02  0.93293040133E+02 -0.18606431362E+03  0.23076241356E+03  0.81219076703E+02 0.  0.
         -6    2    1    2    0  502  0.71855792444E+02 -0.76673155410E+02  0.43792797584E+03  0.48104163304E+03  0.16905062268E+03 0.  0.
        -24    2    5    5    0    0  0.68802709946E+02 -0.10990904951E+03  0.40909492623E+03  0.43668646740E+03  0.80762615601E+02 0.  0.
          5    1    3    3  501    0 -0.14138958224E+02 -0.16619884723E+02 -0.23793554123E+03  0.23898021359E+03  0.47000000000E+01 0. -1.
        -13    1    4    4    0    0 -0.31602021896E+02  0.90119479578E+01 -0.10821373493E+03  0.11309339248E+03  0.00000000000E+00 0.  1.
         14    1    4    4    0    0 -0.26114812325E+02  0.84281092175E+02 -0.77850578685E+02  0.11766902108E+03  0.00000000000E+00 0. -1.
         -5    1    5    5    0  502  0.30530824983E+01  0.33235894104E+02  0.28833049604E+02  0.44355165642E+02  0.47000000000E+01 0.  1.
         11    1    6    6    0    0  0.65255493432E+02 -0.93542454650E+02  0.22916252079E+03  0.25597642700E+03  0.00000000000E+00 0. -1.
        -12    1    6    6    0    0  0.35472165142E+01 -0.16366594864E+02  0.17993240544E+03  0.18071004040E+03  0.00000000000E+00 0.  1.
</event>
<event>
12    1  0.8133495E-002  0.3016548E+03  0.7818608E-02  0.1084456E+00
         21   -1    0    0  501  502  0.00000000000E+00  0.00000000000E+00  0.20499719847E+03  0.20499719847E+03  0.00000000000E+00 0.  1.
         21   -1    0    0  502  503 -0.00000000000E+00 -0.00000000000E+00 -0.44747603866E+03  0.44747603866E+03  0.00000000000E+00 0. -1.
         -6    2    1    2    0  503  0.21597512424E+03 -0.12202710283E+03 -0.15225699035E+03  0.33761518414E+03  0.17107294742E+03 0.  0.
        -24    2    3    3    0    0  0.74588564130E+02 -0.11516566064E+03 -0.88666761296E+02  0.18236362698E+03  0.81043905383E+02 0.  0.
          6    2    1    2  501    0 -0.21597512424E+03  0.12202710283E+03 -0.90221849839E+02  0.31485805299E+03  0.17163840837E+03 0.  0.
         24    2    5    5    0    0 -0.18294444807E+03  0.15677048970E+03 -0.65963185214E+02  0.26092567580E+03  0.75401650971E+02 0.  0.
          5    1    5    5  501    0 -0.33030676175E+02 -0.34743386871E+02 -0.24258664625E+02  0.53932377189E+02  0.47000000000E+01 0. -1.
        -11    1    6    6    0    0 -0.17625081831E+02 -0.23579262347E+01  0.84671013065E+01  0.19695053445E+02  0.00000000000E+00 0.  1.
         12    1    6    6    0    0 -0.16531936624E+03  0.15912841593E+03 -0.74430286521E+02  0.24123062235E+03  0.00000000000E+00 0. -1.
         -5    1    3    3    0  503  0.14138656011E+03 -0.68614421907E+01 -0.63590229057E+02  0.15525155716E+03  0.47000000000E+01 0.  1.
         13    1    4    4    0    0  0.74253191236E+02 -0.85176417120E+02 -0.99414204939E+02  0.15050495867E+03  0.00000000000E+00 0. -1.
        -14    1    4    4    0    0  0.33537289396E+00 -0.29989243515E+02  0.10747443643E+02  0.31858668310E+02  0.00000000000E+00 0.  1.
</event>
<event>
12    1  0.8133495E-002  0.1903977E+03  0.7818608E-02  0.1158233E+00
         21   -1    0    0  503  502  0.00000000000E+00  0.00000000000E+00  0.21780339606E+03  0.21780339606E+03  0.00000000000E+00 0.  1.
         21   -1    0    0  501  503 -0.00000000000E+00 -0.00000000000E+00 -0.53751018198E+03  0.53751018198E+03  0.00000000000E+00 0.  1.
          6    2    1    2  501    0 -0.36956831261E+02 -0.73841923625E+02 -0.47377586259E+03  0.51038793894E+03  0.17092057565E+03 0.  0.
         24    2    3    3    0    0 -0.81891583183E+02 -0.86964066815E+02 -0.36394881177E+03  0.39090826006E+03  0.77984292556E+02 0.  0.
         -6    2    1    2    0  502  0.36956831261E+02  0.73841923625E+02  0.15406907667E+03  0.24492563909E+03  0.17156005140E+03 0.  0.
        -24    2    5    5    0    0 -0.35837143012E+02  0.13551412381E+02  0.11642087200E+03  0.14307581950E+03  0.73816861837E+02 0.  0.
          5    1    3    3  501    0  0.44934751922E+02  0.13122143190E+02 -0.10982705082E+03  0.11947967888E+03  0.47000000000E+01 0. -1.
        -13    1    4    4    0    0 -0.62695358142E+02 -0.84625562463E+02 -0.35364866330E+03  0.36899806342E+03  0.00000000000E+00 0.  1.
         14    1    4    4    0    0 -0.19196225041E+02 -0.23385043524E+01 -0.10300148467E+02  0.21910196642E+02  0.00000000000E+00 0. -1.
         -5    1    5    5    0  502  0.72793974273E+02  0.60290511245E+02  0.37648204672E+02  0.10184981960E+03  0.47000000000E+01 0.  1.
         11    1    6    6    0    0 -0.33026687131E+02 -0.15178221008E+02  0.18099774221E+02  0.40604707642E+02  0.00000000000E+00 0. -1.
        -12    1    6    6    0    0 -0.28104558809E+01  0.28729633389E+02  0.98321097776E+02  0.10247111186E+03  0.00000000000E+00 0.  1.
</event>
<event>
12    1  0.8133495E-002  0.2192313E+03  0.7818608E-02  0.1134749E+00
         21   -1    0    0  501  502  0.00000000000E+00  0.00000000000E+00  0.51527835105E+03  0.51527835105E+03  0.00000000000E+00 0.  1.
         21   -1    0    0  502  503 -0.00000000000E+00 -0.00000000000E+00 -0.96436585879E+02  0.96436585879E+02  0.00000000000E+00 0. -1.
         -6    2    1    2    0  503  0.13403588281E+03 -0.38755936031E+01  0.14925818473E+03  0.26521757339E+03  0.17344081821E+03 0.  0.
        -24    2    3    3    0    0  0.14739904028E+02 -0.37318034871E+02  0.35454503932E+02  0.96922311444E+02  0.80789925790E+02 0.  0.
          6    2    1    2  501    0 -0.13403588281E+03  0.38755936031E+01  0.26958358044E+03  0.34649736354E+03  0.17147733957E+03 0.  0.
         24    2    5    5    0    0 -0.16991474171E+02  0.16576647858E+02  0.54990020436E+02  0.10168478957E+03  0.82172979955E+02 0.  0.
          5    1    5    5  501    0 -0.11704440864E+03 -0.12701054255E+02  0.21459356001E+03  0.24481257396E+03  0.47000000000E+01 0. -1.
        -13    1    6    6    0    0 -0.42717423518E+02 -0.13877916610E+02  0.22389723934E+02  0.50186398350E+02  0.00000000000E+00 0.  1.
         14    1    6    6    0    0  0.25725949347E+02  0.30454564468E+02  0.32600296502E+02  0.51498391225E+02  0.00000000000E+00 0. -1.
         -5    1    3    3    0  503  0.11929597878E+03  0.33442441268E+02  0.11380368079E+03  0.16829526195E+03  0.47000000000E+01 0.  1.
         11    1    4    4    0    0 -0.21164639999E+02 -0.37122022625E+02  0.42571713348E+02  0.60318631677E+02  0.00000000000E+00 0. -1.
        -12    1    4    4    0    0  0.35904544027E+02 -0.19601224646E+00 -0.71172094155E+01  0.36603679767E+02  0.00000000000E+00 0.  1.
</event>
<event>
12    1  0.8133495E-002  0.1893840E+03  0.7818608E-02  0.1159024E+00
         21   -1    0    0  501  502  0.00000000000E+00  0.00000000000E+00  0.19047169126E+03  0.19047169126E+03  0.00000000000E+00 0. -1.
         21   -1    0    0  502  503 -0.00000000000E+00 -0.00000000000E+00 -0.18828541435E+03  0.18828541435E+03  0.00000000000E+00 0.  1.
         -6    2    1    2    0  503 -0.79746278663E+02 -0.14693348707E+02 -0.25008892831E+00  0.18938418038E+03  0.17114596628E+03 0.  0.
        -24    2    3    3    0    0 -0.11744989451E+03 -0.34761736344E+02  0.99694767490E+01  0.14521595251E+03  0.77365537302E+02 0.  0.
          6    2    1    2  501    0  0.79746278663E+02  0.14693348707E+02  0.24363658353E+01  0.18937292524E+03  0.17111635070E+03 0.  0.
         24    2    5    5    0    0  0.32581817382E+02 -0.41747678765E+02  0.45936984866E+02  0.10378980864E+03  0.76535444685E+02 0.  0.
          5    1    5    5  501    0  0.47164461280E+02  0.56441027472E+02 -0.43500619031E+02  0.85583116594E+02  0.47000000000E+01 0. -1.
        -11    1    6    6    0    0 -0.82691257811E+00  0.17654004159E+02 -0.53841715939E+01  0.18475306521E+02  0.00000000000E+00 0.  1.
         12    1    6    6    0    0  0.33408729961E+02 -0.59401682925E+02  0.51321156460E+02  0.85314502121E+02  0.00000000000E+00 0. -1.
         -5    1    3    3    0  503  0.37703615848E+02  0.20068387637E+02 -0.10219565677E+02  0.44168227868E+02  0.47000000000E+01 0.  1.
         11    1    4    4    0    0 -0.12235647064E+03 -0.24788534672E+02 -0.68789487846E+01  0.12503158519E+03  0.00000000000E+00 0. -1.
        -12    1    4    4    0    0  0.49065761332E+01 -0.99732016715E+01  0.16848425534E+02  0.20184367315E+02  0.00000000000E+00 0.  1.
</event>
<event>
12    1  0.8133495E-002  0.1971013E+03  0.7818608E-02  0.1153139E+00
         21   -1    0    0  501  502  0.00000000000E+00  0.00000000000E+00  0.42849951348E+03  0.42849951348E+03  0.00000000000E+00 0. -1.
         21   -1    0    0  502  503 -0.00000000000E+00 -0.00000000000E+00 -0.16620928925E+03  0.16620928925E+03  0.00000000000E+00 0. -1.
         -6    2    1    2    0  503  0.80873715048E+02  0.32054580695E+02 -0.71133950814E+02  0.20954466803E+03  0.17686400146E+03 0.  0.
        -24    2    3    3    0    0  0.98399404157E+02  0.58548923570E+02 -0.94563790840E+02  0.16979360029E+03  0.82323368318E+02 0.  0.
          6    2    1    2  501    0 -0.80873715048E+02 -0.32054580695E+02  0.33342417505E+03  0.38516413469E+03  0.17208043531E+03 0.  0.
         24    2    5    5    0    0  0.64269685364E+01 -0.19766990518E+02  0.74767902990E+02  0.11185560702E+03  0.80556797754E+02 0.  0.
          5    1    5    5  501    0 -0.87300683585E+02 -0.12287590177E+02  0.25865627206E+03  0.27330852768E+03  0.47000000000E+01 0. -1.
        -13    1    6    6    0    0 -0.33996288388E+02  0.69980652792E+01  0.31805823493E+02  0.47077924231E+02  0.00000000000E+00 0.  1.
         14    1    6    6    0    0  0.40423256924E+02 -0.26765055797E+02  0.42962079497E+02  0.64777682785E+02  0.00000000000E+00 0. -1.
         -5    1    3    3    0  503 -0.17525689109E+02 -0.26494342875E+02  0.23429840025E+02  0.39751067743E+02  0.47000000000E+01 0.  1.
         11    1    4    4    0    0  0.74313003926E+02  0.39761160633E+02 -0.10751689231E+03  0.13661352268E+03  0.00000000000E+00 0. -1.
        -12    1    4    4    0    0  0.24086400231E+02  0.18787762937E+02  0.12953101471E+02  0.33180077607E+02  0.00000000000E+00 0.  1.
</event>
<event>
12    1  0.8133495E-002  0.1904982E+03  0.7818608E-02  0.1159017E+00
         21   -1    0    0  501  502  0.00000000000E+00  0.00000000000E+00  0.10274990146E+04  0.10274990146E+04  0.00000000000E+00 0. -1.
         21   -1    0    0  502  503 -0.00000000000E+00 -0.00000000000E+00 -0.40875479965E+02  0.40875479965E+02  0.00000000000E+00 0. -1.
         -6    2    1    2    0  503 -0.76365245207E+02 -0.26474618029E+02  0.69930911257E+03  0.72364395917E+03  0.16761500125E+03 0.  0.
        -24    2    3    3    0    0 -0.50965238822E+02  0.36363316176E+01  0.66304838158E+03  0.66989677110E+03  0.80733197288E+02 0.  0.
          6    2    1    2  501    0  0.76365245207E+02  0.26474618029E+02  0.28731442211E+03  0.34473053544E+03  0.17250219952E+03 0.  0.
         24    2    5    5    0    0  0.84740228861E+02  0.73884357038E+02  0.17952101601E+03  0.22658091799E+03  0.80444469095E+02 0.  0.
          5    1    5    5  501    0 -0.83749836537E+01 -0.47409739009E+02  0.10779340610E+03  0.11814961745E+03  0.47000000000E+01 0. -1.
        -13    1    6    6    0    0  0.17231685993E+02  0.59025947099E+02  0.12213452968E+03  0.13674003354E+03  0.00000000000E+00 0.  1.
         14    1    6    6    0    0  0.67508542868E+02  0.14858409939E+02  0.57386486332E+02  0.89840884455E+02  0.00000000000E+00 0. -1.
         -5    1    3    3    0  503 -0.25400006385E+02 -0.30110949647E+02  0.36260730993E+02  0.53747188067E+02  0.47000000000E+01 0.  1.
         13    1    4    4    0    0 -0.71532417431E+02  0.52178142878E+01  0.57544916293E+03  0.57990158773E+03  0.00000000000E+00 0. -1.
        -14    1    4    4    0    0  0.20567178608E+02 -0.15814826702E+01  0.87599218649E+02  0.89995183378E+02  0.00000000000E+00 0.  1.
</event>
<event>
12    1  0.8133495E-002  0.1942588E+03  0.7818608E-02  0.1154754E+00
         21   -1    0    0  503  502  0.00000000000E+00  0.00000000000E+00  0.17735077711E+03  0.17735077711E+03  0.00000000000E+00 0. -1.
         21   -1    0    0  501  503 -0.00000000000E+00 -0.00000000000E+00 -0.29154581425E+03  0.29154581425E+03  0.00000000000E+00 0. -1.
          6    2    1    2  501    0 -0.77378094424E+02  0.47396372489E+02  0.65028065714E+02  0.20485392489E+03  0.17176348736E+03 0.  0.
         24    2    3    3    0    0 -0.11210624782E+03  0.52557016185E+02  0.22308677102E+02  0.14935876253E+03  0.80500385850E+02 0.  0.
         -6    2    1    2    0  502  0.77378094424E+02 -0.47396372489E+02 -0.17922310286E+03  0.26404266647E+03  0.17135875671E+03 0.  0.
        -24    2    5    5    0    0  0.29521163595E+02  0.39477625706E+02 -0.68021533818E+02  0.11496129156E+03  0.78480490965E+02 0.  0.
          5    1    3    3  501    0  0.34728153391E+02 -0.51606436960E+01  0.42719388613E+02  0.55495162355E+02  0.47000000000E+01 0. -1.
        -11    1    4    4    0    0  0.68996073375E+01 -0.97276670359E+01 -0.38167148586E+01  0.12521956704E+02  0.00000000000E+00 0.  1.
         12    1    4    4    0    0 -0.11900585515E+03  0.62284683221E+02  0.26125391960E+02  0.13683680583E+03  0.00000000000E+00 0. -1.
         -5    1    5    5    0  502  0.47856930828E+02 -0.86873998195E+02 -0.11120156904E+03  0.14908137492E+03  0.47000000000E+01 0.  1.
         11    1    6    6    0    0  0.46842128856E+02  0.35470358118E+01 -0.56428627220E+02  0.73423133062E+02  0.00000000000E+00 0. -1.
        -12    1    6    6    0    0 -0.17320965261E+02  0.35930589894E+02 -0.11592906599E+02  0.41538158494E+02  0.00000000000E+00 0.  1.
</event>
<event>
12    1  0.8133495E-002  0.1929110E+03  0.7818608E-02  0.1156476E+00
         21   -1    0    0  501  502  0.00000000000E+00  0.00000000000E+00  0.82446100540E+02  0.82446100540E+02  0.00000000000E+00 0. -1.
         21   -1    0    0  502  503 -0.00000000000E+00 -0.00000000000E+00 -0.44921655401E+03  0.44921655401E+03  0.00000000000E+00 0.  1.
         -6    2    1    2    0  503 -0.14170982051E+02  0.83731974559E+02 -0.15880370455E+03  0.24986648781E+03  0.17321311976E+03 0.  0.
        -24    2    3    3    0    0  0.40995738717E+02  0.21690629507E+02 -0.13482538830E+03  0.16332432915E+03  0.79660637449E+02 0.  0.
          6    2    1    2  501    0  0.14170982051E+02 -0.83731974559E+02 -0.20796674892E+03  0.28179616674E+03  0.17013832795E+03 0.  0.
         24    2    5    5    0    0  0.12799608257E+02 -0.12346867446E+03 -0.14569776095E+03  0.20776642374E+03  0.80812782069E+02 0.  0.
          5    1    5    5  501    0  0.13713737944E+01  0.39736699900E+02 -0.62268987968E+02  0.74029742992E+02  0.47000000000E+01 0. -1.
        -11    1    6    6    0    0  0.27855542106E+02 -0.39519523047E+02 -0.99839625798E+02  0.11093094612E+03  0.00000000000E+00 0.  1.
         12    1    6    6    0    0 -0.15055933850E+02 -0.83949151412E+02 -0.45858135150E+02  0.96835477622E+02  0.00000000000E+00 0. -1.
         -5    1    3    3    0  503 -0.55166720768E+02  0.62041345053E+02 -0.23978316248E+02  0.86542158665E+02  0.47000000000E+01 0.  1.
         11    1    4    4    0    0 -0.10075110574E+02 -0.15036185620E+02 -0.45594090231E+01  0.18665019199E+02  0.00000000000E+00 0. -1.
        -12    1    4    4    0    0  0.51070849291E+02  0.36726815127E+02 -0.13026597928E+03  0.14465930995E+03  0.00000000000E+00 0.  1.
</event>
<event>
12    1  0.8133495E-002  0.2168181E+03  0.7818608E-02  0.1138238E+00
         21   -1    0    0  501  502  0.00000000000E+00  0.00000000000E+00  0.23980856621E+03  0.23980856621E+03  0.00000000000E+00 0. -1.
         21   -1    0    0  502  503 -0.00000000000E+00 -0.00000000000E+00 -0.29863481903E+03  0.29863481903E+03  0.00000000000E+00 0. -1.
         -6    2    1    2    0  503  0.64172242063E+02 -0.94821095357E+02 -0.19352106861E+03  0.28319294835E+03  0.17215901144E+03 0.  0.
        -24    2    3    3    0    0  0.44349211997E+02  0.74618257496E+01 -0.13511473546E+03  0.16365994779E+03  0.80660122254E+02 0.  0.
          6    2    1    2  501    0 -0.64172242063E+02  0.94821095357E+02  0.13469481580E+03  0.25525043689E+03  0.18412217507E+03 0.  0.
         24    2    5    5    0    0 -0.66853480318E+02  0.18404231337E+02  0.14278596806E+03  0.17821614005E+03  0.81025035257E+02 0.  0.
          5    1    5    5  501    0  0.26812382552E+01  0.76416864020E+02 -0.80911522581E+01  0.77034296843E+02  0.47000000000E+01 0. -1.
        -13    1    6    6    0    0 -0.47357749431E+02 -0.28077759724E+02  0.87703098730E+02  0.10355168057E+03  0.00000000000E+00 0.  1.
         14    1    6    6    0    0 -0.19495730887E+02  0.46481991061E+02  0.55082869327E+02  0.74664459478E+02  0.00000000000E+00 0. -1.
         -5    1    3    3    0  503  0.19823030066E+02 -0.10228292111E+03 -0.58406333153E+02  0.11953300056E+03  0.47000000000E+01 0.  1.
         11    1    4    4    0    0  0.58331582563E+02  0.21025019036E+02 -0.60822237275E+02  0.86856027407E+02  0.00000000000E+00 0. -1.
        -12    1    4    4    0    0 -0.13982370566E+02 -0.13563193286E+02 -0.74292498186E+02  0.76803920378E+02  0.00000000000E+00 0.  1.
</event>
<event>
12    1  0.8133495E-002  0.1887667E+03  0.7818608E-02  0.1159579E+00
         21   -1    0    0  503  502  0.00000000000E+00  0.00000000000E+00  0.10592840750E+04  0.10592840750E+04  0.00000000000E+00 0. -1.
         21   -1    0    0  501  503 -0.00000000000E+00 -0.00000000000E+00 -0.38609157622E+02  0.38609157622E+02  0.00000000000E+00 0. -1.
          6    2    1    2  501    0 -0.58767541667E+02 -0.53076050775E+02  0.31336959877E+03  0.36583197653E+03  0.17135296466E+03 0.  0.
         24    2    3    3    0    0 -0.59308492201E+02 -0.41356081670E+02  0.32866343933E+03  0.34599156669E+03  0.80390827399E+02 0.  0.
         -6    2    1    2    0  502  0.58767541667E+02  0.53076050775E+02  0.70730531857E+03  0.73206125606E+03  0.17135395479E+03 0.  0.
        -24    2    5    5    0    0  0.24305015561E+02  0.86986760273E+02  0.31903940797E+03  0.34076838715E+03  0.78609920476E+02 0.  0.
          5    1    3    3  501    0  0.54095053433E+00 -0.11719969105E+02 -0.15293840562E+02  0.19840409836E+02  0.47000000000E+01 0. -1.
        -13    1    4    4    0    0 -0.27074560869E+02  0.15711021779E+02  0.44752839541E+02  0.54613960657E+02  0.00000000000E+00 0.  1.
         14    1    4    4    0    0 -0.32233931332E+02 -0.57067103450E+02  0.28391059979E+03  0.29137760603E+03  0.00000000000E+00 0. -1.
         -5    1    5    5    0  502  0.34462526105E+02 -0.33910709498E+02  0.38826591060E+03  0.39129286891E+03  0.47000000000E+01 0.  1.
         13    1    6    6    0    0  0.23910581931E+02  0.33668466284E+02  0.25075535843E+03  0.25413290093E+03  0.00000000000E+00 0. -1.
        -14    1    6    6    0    0  0.39443363068E+00  0.53318293989E+02  0.68284049539E+02  0.86635486224E+02  0.00000000000E+00 0.  1.
</event>
<event>
12    1  0.8133495E-002  0.2574604E+03  0.7818608E-02  0.1108769E+00
         21   -1    0    0  503  502  0.00000000000E+00  0.00000000000E+00  0.40686576311E+03  0.40686576311E+03  0.00000000000E+00 0.  1.
         21   -1    0    0  501  503 -0.00000000000E+00 -0.00000000000E+00 -0.16311624648E+03  0.16311624648E+03  0.00000000000E+00 0. -1.
          6    2    1    2  501    0 -0.13417256414E+03  0.13799571901E+03  0.10510765689E+03  0.27808895222E+03  0.17099927011E+03 0.  0.
         24    2    3    3    0    0 -0.90192980908E+02  0.40368077417E+02  0.76598824327E+02  0.16718266891E+03  0.11098787959E+03 0.  0.
         -6    2    1    2    0  502  0.13417256414E+03 -0.13799571901E+03  0.13864185974E+03  0.29189305736E+03  0.17010260501E+03 0.  0.
        -24    2    5    5    0    0  0.71485634692E+02 -0.12074891615E+03  0.27879341657E+02  0.16337251914E+03  0.78884888301E+02 0.  0.
          5    1    3    3  501    0 -0.43979583230E+02  0.97627641596E+02  0.28508832566E+02  0.11090628332E+03  0.47000000000E+01 0. -1.
        -13    1    4    4    0    0 -0.45259997805E+01 -0.33170855787E+02  0.59626262798E+01  0.34005047564E+02  0.00000000000E+00 0.  1.
         14    1    4    4    0    0 -0.85666981127E+02  0.73538933204E+02  0.70636198047E+02  0.13317762134E+03  0.00000000000E+00 0. -1.
         -5    1    5    5    0  502  0.62686929445E+02 -0.17246802868E+02  0.11076251808E+03  0.12852053822E+03  0.47000000000E+01 0.  1.
         13    1    6    6    0    0  0.40790554637E+02 -0.19925446898E+02 -0.17463370782E+02  0.48640128502E+02  0.00000000000E+00 0. -1.
        -14    1    6    6    0    0  0.30695080055E+02 -0.10082346925E+03  0.45342712439E+02  0.11473239064E+03  0.00000000000E+00 0.  1.
</event>
<event>
12    1  0.8133495E-002  0.1914029E+03  0.7818608E-02  0.1157696E+00
         21   -1    0    0  501  502  0.00000000000E+00  0.00000000000E+00  0.11902309942E+03  0.11902309942E+03  0.00000000000E+00 0.  1.
         21   -1    0    0  502  503 -0.00000000000E+00 -0.00000000000E+00 -0.37149448811E+03  0.37149448811E+03  0.00000000000E+00 0. -1.
         -6    2    1    2    0  503  0.13456447598E+02  0.83869488279E+02 -0.22996468314E+03  0.29779601157E+03  0.16906667907E+03 0.  0.
        -24    2    3    3    0    0  0.19117067864E+02  0.11582300916E+03 -0.22253875360E+03  0.26417600937E+03  0.80529717102E+02 0.  0.
          6    2    1    2  501    0 -0.13456447598E+02 -0.83869488279E+02 -0.22506705544E+02  0.19272157596E+03  0.17152226386E+03 0.  0.
         24    2    5    5    0    0 -0.29408729630E+02 -0.35758053182E+00 -0.55643548078E+02  0.10134951036E+03  0.79438766140E+02 0.  0.
          5    1    5    5  501    0  0.15952282032E+02 -0.83511907747E+02  0.33136842534E+02  0.91372065593E+02  0.47000000000E+01 0. -1.
        -11    1    6    6    0    0 -0.22840467926E+02  0.33246983005E+02 -0.56151165506E+01  0.40725647789E+02  0.00000000000E+00 0.  1.
         12    1    6    6    0    0 -0.65682617039E+01 -0.33604563536E+02 -0.50028431527E+02  0.60623862574E+02  0.00000000000E+00 0. -1.
         -5    1    3    3    0  503 -0.56606202659E+01 -0.31953520886E+02 -0.74259295436E+01  0.33620002207E+02  0.47000000000E+01 0.  1.
         11    1    4    4    0    0  0.42072833734E+02  0.10290936027E+03 -0.20275077932E+03  0.23123221723E+03  0.00000000000E+00 0. -1.
        -12    1    4    4    0    0 -0.22955765870E+02  0.12913648896E+02 -0.19787974278E+02  0.32943792140E+02  0.00000000000E+00 0.  1.
</event>
<event>
12    1  0.8133495E-002  0.2950629E+03  0.7818608E-02  0.1088008E+00
         21   -1    0    0  503  502  0.00000000000E+00  0.00000000000E+00  0.25920021036E+03  0.25920021036E+03  0.00000000000E+00 0. -1.
         21   -1    0    0  501  503 -0.00000000000E+00 -0.00000000000E+00 -0.48490978863E+03  0.48490978863E+03  0.00000000000E+00 0. -1.
          6    2    1    2  501    0 -0.63238535851E+02 -0.22858242740E+03 -0.32049473495E+03  0.43419654139E+03  0.17193232066E+03 0.  0.
         24    2    3    3    0    0 -0.42837592288E+01 -0.51513063641E+02 -0.53602494113E+02  0.10849302055E+03  0.78902229458E+02 0.  0.
         -6    2    1    2    0  502  0.63238535851E+02  0.22858242740E+03  0.94785156687E+02  0.30991345760E+03  0.17553656811E+03 0.  0.
        -24    2    5    5    0    0 -0.72835203808E+01  0.19786147989E+03  0.92338405024E+02  0.23280824621E+03  0.80443045481E+02 0.  0.
          5    1    3    3  501    0 -0.58954776622E+02 -0.17706936376E+03 -0.26689224084E+03  0.32570352084E+03  0.47000000000E+01 0. -1.
        -13    1    4    4    0    0 -0.23858753719E+02 -0.22147137815E+01  0.97482792245E+01  0.25868398365E+02  0.00000000000E+00 0.  1.
         14    1    4    4    0    0  0.19574994490E+02 -0.49298349860E+02 -0.63350773337E+02  0.82624622181E+02  0.00000000000E+00 0. -1.
         -5    1    5    5    0  502  0.70522056232E+02  0.30720947510E+02  0.24467516630E+01  0.77105211399E+02  0.47000000000E+01 0.  1.
         13    1    6    6    0    0  0.21328164154E+02  0.26081056870E+02 -0.37693565056E+01  0.33901624771E+02  0.00000000000E+00 0. -1.
        -14    1    6    6    0    0 -0.28611684535E+02  0.17178042302E+03  0.96107761530E+02  0.19890662143E+03  0.00000000000E+00 0.  1.
</event>
<event>
12    1  0.8133495E-002  0.2263456E+03  0.7818608E-02  0.1129468E+00
         21   -1    0    0  503  502  0.00000000000E+00  0.00000000000E+00  0.87285515427E+03  0.87285515427E+03  0.00000000000E+00 0. -1.
         21   -1    0    0  501  503 -0.00000000000E+00 -0.00000000000E+00 -0.39109772853E+03  0.39109772853E+03  0.00000000000E+00 0.  1.
          6    2    1    2  501    0  0.13353387476E+03 -0.61993399491E+02 -0.34193488216E+03  0.41006316329E+03  0.17192398599E+03 0.  0.
         24    2    3    3    0    0  0.16435660414E+03 -0.41999368053E+02 -0.26329993600E+03  0.32314166597E+03  0.79477290735E+02 0.  0.
         -6    2    1    2    0  502 -0.13353387476E+03  0.61993399491E+02  0.82369230790E+03  0.85388971951E+03  0.17024734269E+03 0.  0.
        -24    2    5    5    0    0 -0.53909496196E+02 -0.13769789332E+02  0.55390534931E+03  0.56253564717E+03  0.80866417383E+02 0.  0.
          5    1    3    3  501    0 -0.30822729379E+02 -0.19994031438E+02 -0.78634946157E+02  0.86921497321E+02  0.47000000000E+01 0. -1.
        -13    1    4    4    0    0  0.93228785295E+01  0.12472925052E+02 -0.58657767817E+02  0.60689567874E+02  0.00000000000E+00 0.  1.
         14    1    4    4    0    0  0.15503372561E+03 -0.54472293105E+02 -0.20464216818E+03  0.26245209809E+03  0.00000000000E+00 0. -1.
         -5    1    5    5    0  502 -0.79624378566E+02  0.75763188823E+02  0.26978695859E+03  0.29135407234E+03  0.47000000000E+01 0.  1.
         11    1    6    6    0    0 -0.68412583275E+02 -0.10683662253E+02  0.52928540985E+03  0.53379534212E+03  0.00000000000E+00 0. -1.
        -12    1    6    6    0    0  0.14503087079E+02 -0.30861270782E+01  0.24619939466E+02  0.28740305052E+02  0.00000000000E+00 0.  1.
</event>
<event>
12    1  0.8133495E-002  0.2253678E+03  0.7818608E-02  0.1129946E+00
         21   -1    0    0  503  502  0.00000000000E+00  0.00000000000E+00  0.29077952631E+03  0.29077952631E+03  0.00000000000E+00 0. -1.
         21   -1    0    0  501  503 -0.00000000000E+00 -0.00000000000E+00 -0.18156279323E+03  0.18156279323E+03  0.00000000000E+00 0.  1.
          6    2    1    2  501    0 -0.13090205442E+03  0.63465811563E+02  0.10066097919E+03  0.24681214455E+03  0.17210562128E+03 0.  0.
         24    2    3    3    0    0 -0.39588033566E+02  0.28804632780E+02 -0.13978048746E+02  0.96134195115E+02  0.81544333662E+02 0.  0.
         -6    2    1    2    0  502  0.13090205442E+03 -0.63465811563E+02  0.85557538811E+01  0.22553017499E+03  0.17212612183E+03 0.  0.
        -24    2    5    5    0    0  0.35739877836E+02 -0.83862994803E+02  0.31496952126E+02  0.12542885874E+03  0.80187279832E+02 0.  0.
          5    1    3    3  501    0 -0.91314020858E+02  0.34661178783E+02  0.11463902794E+03  0.15067794944E+03  0.47000000000E+01 0. -1.
        -11    1    4    4    0    0 -0.40074852204E+02 -0.20867697715E+02 -0.10175891833E+02  0.46314181000E+02  0.00000000000E+00 0.  1.
         12    1    4    4    0    0  0.48681863749E+00  0.49672330495E+02 -0.38021569127E+01  0.49820014115E+02  0.00000000000E+00 0. -1.
         -5    1    5    5    0  502  0.95162176588E+02  0.20397183240E+02 -0.22941198245E+02  0.10010131625E+03  0.47000000000E+01 0.  1.
         13    1    6    6    0    0  0.19004437953E+02 -0.41863155436E+02  0.57228151405E+02  0.73408131418E+02  0.00000000000E+00 0. -1.
        -14    1    6    6    0    0  0.16735439883E+02 -0.41999839367E+02 -0.25731199279E+02  0.52020727324E+02  0.00000000000E+00 0.  1.
</event>
<event>
12    1  0.8133495E-002  0.1852101E+03  0.7818608E-02  0.1163235E+00
         21   -1    0    0  501  502  0.00000000000E+00  0.00000000000E+00  0.24776199270E+03  0.24776199270E+03  0.00000000000E+00 0.  1.
         21   -1    0    0  502  503 -0.00000000000E+00 -0.00000000000E+00 -0.16965719984E+03  0.16965719984E+03  0.00000000000E+00 0.  1.
         -6    2    1    2    0  503  0.19866791029E+02 -0.62098716265E+02 -0.52043525649E+02  0.19238323472E+03  0.17335466677E+03 0.  0.
        -24    2    3    3    0    0  0.46219111457E+02 -0.52553470653E+02  0.25629984704E+02  0.10967398060E+03  0.80457518999E+02 0.  0.
          6    2    1    2  501    0 -0.19866791029E+02  0.62098716265E+02  0.13014831852E+03  0.22503595782E+03  0.17161485237E+03 0.  0.
         24    2    5    5    0    0  0.47956118037E+02  0.71401048260E+01  0.43199661339E+02  0.10173731651E+03  0.78316667934E+02 0.  0.
          5    1    5    5  501    0 -0.67822909066E+02  0.54958611439E+02  0.86948657178E+02  0.12329864132E+03  0.47000000000E+01 0. -1.
        -11    1    6    6    0    0  0.38605819872E+02  0.35142425740E+02  0.49059048130E+02  0.71639302190E+02  0.00000000000E+00 0.  1.
         12    1    6    6    0    0  0.93502981650E+01 -0.28002320914E+02 -0.58593867904E+01  0.30098014318E+02  0.00000000000E+00 0. -1.
         -5    1    3    3    0  503 -0.26352320427E+02 -0.95452456127E+01 -0.77673510353E+02  0.82709254115E+02  0.47000000000E+01 0.  1.
         11    1    4    4    0    0  0.13784027981E+02 -0.68903221978E+02  0.15367742001E+02  0.71929277214E+02  0.00000000000E+00 0. -1.
        -12    1    4    4    0    0  0.32435083476E+02  0.16349751325E+02  0.10262242702E+02  0.37744703387E+02  0.00000000000E+00 0.  1.
</event>
<event>
12    1  0.8133495E-002  0.2161523E+03  0.7818608E-02  0.1137023E+00
         21   -1    0    0  501  502  0.00000000000E+00  0.00000000000E+00  0.16208608496E+03  0.16208608496E+03  0.00000000000E+00 0.  1.
         21   -1    0    0  502  503 -0.00000000000E+00 -0.00000000000E+00 -0.31545186317E+03  0.31545186317E+03  0.00000000000E+00 0. -1.
         -6    2    1    2    0  503 -0.10141750030E+02  0.12889531548E+03 -0.14909910217E+03  0.26258783212E+03  0.17321942692E+03 0.  0.
        -24    2    3    3    0    0 -0.22403002622E+02  0.12600532017E+03 -0.46058485606E+02  0.15867368943E+03  0.81711201091E+02 0.  0.
          6    2    1    2  501    0  0.10141750030E+02 -0.12889531548E+03 -0.42666760337E+01  0.21495011601E+03  0.17166388788E+03 0.  0.
         24    2    5    5    0    0  0.67123442639E+02 -0.45607114194E+02 -0.53097637205E+01  0.11392033922E+03  0.79775213447E+02 0.  0.
          5    1    5    5  501    0 -0.56981692609E+02 -0.83288201288E+02  0.10430876868E+01  0.10102977679E+03  0.47000000000E+01 0. -1.
        -11    1    6    6    0    0  0.22330052690E+02 -0.11652936467E+02 -0.40436024633E+02  0.47639209372E+02  0.00000000000E+00 0.  1.
         12    1    6    6    0    0  0.44793389949E+02 -0.33954177727E+02  0.35126260913E+02  0.66281129849E+02  0.00000000000E+00 0. -1.
         -5    1    3    3    0  503  0.12261252592E+02  0.28899953076E+01 -0.10304061657E+03  0.10391414269E+03  0.47000000000E+01 0.  1.
         13    1    4    4    0    0  0.15531196581E+02  0.21202442358E+02 -0.38953129852E+02  0.46990509196E+02  0.00000000000E+00 0. -1.
        -14    1    4    4    0    0 -0.37934199204E+02  0.10480287782E+03 -0.71053557531E+01  0.11168318024E+03  0.00000000000E+00 0.  1.
</event>
<event>
12    1  0.8133495E-002  0.1918175E+03  0.7818608E-02  0.1156847E+00
         21   -1    0    0  503  502  0.00000000000E+00  0.00000000000E+00  0.52028964843E+02  0.52028964843E+02  0.00000000000E+00 0. -1.
         21   -1    0    0  501  503 -0.00000000000E+00 -0.00000000000E+00 -0.76392220605E+03  0.76392220605E+03  0.00000000000E+00 0. -1.
          6    2    1    2  501    0 -0.82723017539E+02  0.13307300990E+02 -0.46731180018E+03  0.50512319745E+03  0.17247882226E+03 0.  0.
         24    2    3    3    0    0 -0.83970858135E+02 -0.18450641211E+02 -0.16875569537E+03  0.20484339175E+03  0.78043572724E+02 0.  0.
         -6    2    1    2    0  502  0.82723017539E+02 -0.13307300990E+02 -0.24458144103E+03  0.31082797344E+03  0.17255076322E+03 0.  0.
        -24    2    5    5    0    0  0.78730545140E+02 -0.65304687488E+02 -0.95080001829E+02  0.15242204438E+03  0.61066127434E+02 0.  0.
          5    1    3    3  501    0  0.12478405966E+01  0.31757942201E+02 -0.29855610480E+03  0.30027980570E+03  0.47000000000E+01 0. -1.
        -11    1    4    4    0    0 -0.20410436941E+02  0.27446906209E+02 -0.30121954125E+02  0.45576866028E+02  0.00000000000E+00 0.  1.
         12    1    4    4    0    0 -0.63560421194E+02 -0.45897547420E+02 -0.13863374125E+03  0.15926652572E+03  0.00000000000E+00 0. -1.
         -5    1    5    5    0  502  0.39924723993E+01  0.51997386499E+02 -0.14950143920E+03  0.15840592906E+03  0.47000000000E+01 0.  1.
         11    1    6    6    0    0 -0.10340522513E+02 -0.89888940403E+01 -0.95722488800E+01  0.16713903510E+02  0.00000000000E+00 0. -1.
        -12    1    6    6    0    0  0.89071067653E+02 -0.56315793448E+02 -0.85507752949E+02  0.13570814087E+03  0.00000000000E+00 0.  1.
</event>
<event>
12    1  0.8133495E-002  0.2145137E+03  0.7818608E-02  0.1138206E+00
         21   -1    0    0  501  502  0.00000000000E+00  0.00000000000E+00  0.10264713394E+04  0.10264713394E+04  0.00000000000E+00 0.  1.
         21   -1    0    0  502  503 -0.00000000000E+00 -0.00000000000E+00 -0.51235834311E+02  0.51235834311E+02  0.00000000000E+00 0.  1.
         -6    2    1    2    0  503  0.80911162263E+02 -0.99942499740E+02  0.29528138650E+03  0.36497562037E+03  0.17170028195E+03 0.  0.
        -24    2    3    3    0    0 -0.14538809948E+02 -0.10876563161E+02  0.14357015249E+03  0.16477115794E+03  0.78787493818E+02 0.  0.
          6    2    1    2  501    0 -0.80911162263E+02  0.99942499740E+02  0.67995411864E+03  0.71273155338E+03  0.17062691553E+03 0.  0.
         24    2    5    5    0    0 -0.88983133345E+02  0.26097079459E+02  0.27435565978E+03  0.30035975192E+03  0.79661138231E+02 0.  0.
          5    1    5    5  501    0  0.80719710817E+01  0.73845420281E+02  0.40559845886E+03  0.41237180147E+03  0.47000000000E+01 0. -1.
        -13    1    6    6    0    0 -0.53708979754E+02  0.53864871174E+02  0.15074093831E+03  0.16884581528E+03  0.00000000000E+00 0.  1.
         14    1    6    6    0    0 -0.35274153592E+02 -0.27767791715E+02  0.12361472146E+03  0.13151393664E+03  0.00000000000E+00 0. -1.
         -5    1    3    3    0  503  0.95449972212E+02 -0.89065936579E+02  0.15171123401E+03  0.20020446243E+03  0.47000000000E+01 0.  1.
         11    1    4    4    0    0  0.59112962175E+01  0.30506774014E+02  0.82931097039E+02  0.88561693411E+02  0.00000000000E+00 0. -1.
        -12    1    4    4    0    0 -0.20450106166E+02 -0.41383337174E+02  0.60639055449E+02  0.76209464528E+02  0.00000000000E+00 0.  1.
</event>
<event>
12    1  0.8133495E-002  0.1866832E+03  0.7818608E-02  0.1162122E+00
         21   -1    0    0  501  502  0.00000000000E+00  0.00000000000E+00  0.14707646286E+04  0.14707646286E+04  0.00000000000E+00 0.  1.
         21   -1    0    0  502  503 -0.00000000000E+00 -0.00000000000E+00 -0.36360188291E+02  0.36360188291E+02  0.00000000000E+00 0.  1.
         -6    2    1    2    0  503 -0.42887274858E+02  0.56303118960E+02  0.26984806553E+03  0.32812895942E+03  0.17274627633E+03 0.  0.
        -24    2    3    3    0    0  0.38625852962E+02  0.20589824542E+02  0.91474722613E+02  0.12873244774E+03  0.79300194398E+02 0.  0.
          6    2    1    2  501    0  0.42887274858E+02 -0.56303118960E+02  0.11645563748E+04  0.11789958575E+04  0.16979494210E+03 0.  0.
         24    2    5    5    0    0 -0.28498590586E+02 -0.30756934873E+02  0.88235665684E+03  0.88675054937E+03  0.77557128810E+02 0.  0.
          5    1    5    5  501    0  0.71385865445E+02 -0.25546184087E+02  0.28219971793E+03  0.29224530810E+03  0.47000000000E+01 0. -1.
        -11    1    6    6    0    0  0.23022368416E+02 -0.22584807391E+02  0.47040098353E+03  0.47150523675E+03  0.00000000000E+00 0.  1.
         12    1    6    6    0    0 -0.51520959002E+02 -0.81721274813E+01  0.41195567331E+03  0.41524531262E+03  0.00000000000E+00 0. -1.
         -5    1    3    3    0  503 -0.81513127821E+02  0.35713294418E+02  0.17837334292E+03  0.19939651168E+03  0.47000000000E+01 0.  1.
         13    1    4    4    0    0  0.22444419185E+02 -0.17964651052E+02  0.80535175922E+02  0.85512544114E+02  0.00000000000E+00 0. -1.
        -14    1    4    4    0    0  0.16181433777E+02  0.38554475594E+02  0.10939546691E+02  0.43219903624E+02  0.00000000000E+00 0.  1.
</event>
<event>
12    1  0.8133495E-002  0.1950519E+03  0.7818608E-02  0.1154931E+00
         21   -1    0    0  503  502  0.00000000000E+00  0.00000000000E+00  0.39663166584E+03  0.39663166584E+03  0.00000000000E+00 0. -1.
         21   -1    0    0  501  503 -0.00000000000E+00 -0.00000000000E+00 -0.18055143248E+03  0.18055143248E+03  0.00000000000E+00 0. -1.
          6    2    1    2  501    0 -0.92283512285E+02  0.56573510123E+01 -0.92602346419E+02  0.21203904417E+03  0.16684456668E+03 0.  0.
         24    2    3    3    0    0 -0.11065549719E+03  0.10676466145E+02 -0.11734650544E+03  0.18046239533E+03  0.80236200071E+02 0.  0.
         -6    2    1    2    0  502  0.92283512285E+02 -0.56573510123E+01  0.30868257978E+03  0.36514405415E+03  0.17174688633E+03 0.  0.
        -24    2    5    5    0    0  0.63580562058E+01  0.39567747230E+02  0.92453695299E+02  0.12806703292E+03  0.79040797358E+02 0.  0.
          5    1    3    3  501    0  0.18371984909E+02 -0.50191151327E+01  0.24744159019E+02  0.31576648837E+02  0.47000000000E+01 0. -1.
        -13    1    4    4    0    0 -0.18762917001E+02 -0.28469021098E+02 -0.14363972748E+02  0.36998053054E+02  0.00000000000E+00 0.  1.
         14    1    4    4    0    0 -0.91892580193E+02  0.39145487243E+02 -0.10298253269E+03  0.14346434228E+03  0.00000000000E+00 0. -1.
         -5    1    5    5    0  502  0.85925456079E+02 -0.45225098242E+02  0.21622888448E+03  0.23707702123E+03  0.47000000000E+01 0.  1.
         11    1    6    6    0    0  0.22433249758E+02 -0.15664245259E+02  0.13859912800E+02  0.30671101334E+02  0.00000000000E+00 0. -1.
        -12    1    6    6    0    0 -0.16075193552E+02  0.55231992489E+02  0.78593782499E+02  0.97395931586E+02  0.00000000000E+00 0.  1.
</event>
<event>
12    1  0.8133495E-002  0.1740292E+03  0.7818608E-02  0.1173746E+00
         21   -1    0    0  503  502  0.00000000000E+00  0.00000000000E+00  0.25673289893E+02  0.25673289893E+02  0.00000000000E+00 0. -1.
         21   -1    0    0  501  503 -0.00000000000E+00 -0.00000000000E+00 -0.16108281428E+04  0.16108281428E+04  0.00000000000E+00 0. -1.
          6    2    1    2  501    0 -0.27735500100E+02  0.57835670993E+01 -0.12166246938E+04  0.12290084590E+04  0.17170742308E+03 0.  0.
         24    2    3    3    0    0 -0.35261054474E+02 -0.54732461727E+02 -0.53832484775E+03  0.54795662922E+03  0.78891326950E+02 0.  0.
         -6    2    1    2    0  502  0.27735500100E+02 -0.57835670993E+01 -0.36853015916E+03  0.40749297373E+03  0.17156146950E+03 0.  0.
        -24    2    5    5    0    0 -0.21546828625E+02  0.42424194104E+02 -0.12788012450E+03  0.15711872317E+03  0.77903073488E+02 0.  0.
          5    1    3    3  501    0  0.75255543740E+01  0.60516028827E+02 -0.67829984602E+03  0.68105182977E+03  0.47000000000E+01 0. -1.
        -11    1    4    4    0    0 -0.60120740763E+02 -0.41363301616E+02 -0.34986220388E+03  0.35739192478E+03  0.00000000000E+00 0.  1.
         12    1    4    4    0    0  0.24859686290E+02 -0.13369160112E+02 -0.18846264386E+03  0.19056470444E+03  0.00000000000E+00 0. -1.
         -5    1    5    5    0  502  0.49282328725E+02 -0.48207761204E+02 -0.24065003466E+03  0.25037425056E+03  0.47000000000E+01 0.  1.
         11    1    6    6    0    0  0.26044547250E+02  0.25011727174E+02 -0.30193724509E+02  0.47069798569E+02  0.00000000000E+00 0. -1.
        -12    1    6    6    0    0 -0.47591375875E+02  0.17412466931E+02 -0.97686399990E+02  0.11004892460E+03  0.00000000000E+00 0.  1.
</event>
<event>
12    1  0.8133495E-002  0.1797150E+03  0.7818608E-02  0.1168206E+00
         21   -1    0    0  503  502  0.00000000000E+00  0.00000000000E+00  0.13163728908E+03  0.13163728908E+03  0.00000000000E+00 0.  1.
         21   -1    0    0  501  503 -0.00000000000E+00 -0.00000000000E+00 -0.26293185724E+03  0.26293185724E+03  0.00000000000E+00 0.  1.
          6    2    1    2  501    0  0.39328031244E+02 -0.29514089341E+02 -0.13521397032E+02  0.17970174034E+03  0.17231399187E+03 0.  0.
         24    2    3    3    0    0 -0.39859925121E+02 -0.10947104297E+02  0.21181672486E+02  0.91147472229E+02  0.78425415021E+02 0.  0.
         -6    2    1    2    0  502 -0.39328031244E+02  0.29514089341E+02 -0.11777317113E+03  0.21486740598E+03  0.17285747541E+03 0.  0.
        -24    2    5    5    0    0 -0.30431537847E+02  0.68713292987E+02 -0.24170320918E+02  0.11289040500E+03  0.80699714989E+02 0.  0.
          5    1    3    3  501    0  0.79187956365E+02 -0.18566985044E+02 -0.34703069518E+02  0.88554268112E+02  0.47000000000E+01 0. -1.
        -13    1    4    4    0    0  0.15111588858E+02  0.79629742597E+01  0.27810864097E+02  0.32637604671E+02  0.00000000000E+00 0.  1.
         14    1    4    4    0    0 -0.54971513979E+02 -0.18910078556E+02 -0.66291916108E+01  0.58509867557E+02  0.00000000000E+00 0. -1.
         -5    1    5    5    0  502 -0.88964933972E+01 -0.39199203646E+02 -0.93602850209E+02  0.10197700098E+03  0.47000000000E+01 0.  1.
         13    1    6    6    0    0 -0.18260431070E+02  0.60267950295E+02 -0.51799328845E+02  0.81540417245E+02  0.00000000000E+00 0. -1.
        -14    1    6    6    0    0 -0.12171106777E+02  0.84453426912E+01  0.27629007927E+02  0.31349987757E+02  0.00000000000E+00 0.  1.
</event>
<event>
12    1  0.8133495E-002  0.2878870E+03  0.7818608E-02  0.1091531E+00
         21   -1    0    0  503  502  0.00000000000E+00  0.00000000000E+00  0.30431207493E+03  0.30431207493E+03  0.00000000000E+00 0. -1.
         21   -1    0    0  501  503 -0.00000000000E+00 -0.00000000000E+00 -0.17300403525E+04  0.17300403525E+04  0.00000000000E+00 0. -1.
          6    2    1    2  501    0 -0.65615814077E+02  0.22172682496E+03 -0.16468292529E+04  0.16718030801E+04  0.17149556973E+03 0.  0.
         24    2    3    3    0    0 -0.34962513258E+02  0.12977894999E+03 -0.56809159291E+03  0.58870979433E+03  0.76067146797E+02 0.  0.
         -6    2    1    2    0  502  0.65615814077E+02 -0.22172682496E+03  0.22110097536E+03  0.36254934732E+03  0.17055253728E+03 0.  0.
        -24    2    5    5    0    0  0.52911638097E+02 -0.23910602011E+03  0.22258660011E+03  0.34046474652E+03  0.80000742329E+02 0.  0.
          5    1    3    3  501    0 -0.30653300819E+02  0.91947874967E+02 -0.10787376600E+04  0.10830932858E+04  0.47000000000E+01 0. -1.
        -13    1    4    4    0    0  0.23646416169E+02  0.51221687340E+02 -0.20427374530E+03  0.21192115814E+03  0.00000000000E+00 0.  1.
         14    1    4    4    0    0 -0.58608929427E+02  0.78557262648E+02 -0.36381784761E+03  0.37678863619E+03  0.00000000000E+00 0. -1.
         -5    1    5    5    0  502  0.12704175980E+02  0.17379195154E+02 -0.14856247551E+01  0.22084600799E+02  0.47000000000E+01 0.  1.
         11    1    6    6    0    0 -0.13893817618E+01 -0.15486283648E+03  0.11140832559E+03  0.19077799536E+03  0.00000000000E+00 0. -1.
        -12    1    6    6    0    0  0.54301019859E+02 -0.84243183634E+02  0.11117827452E+03  0.14968675116E+03  0.00000000000E+00 0.  1.
</event>
<event>
12    1  0.8133495E-002  0.4857645E+03  0.7818608E-02  0.1017601E+00
         21   -1    0    0  501  502  0.00000000000E+00  0.00000000000E+00  0.37984015877E+03  0.37984015877E+03  0.00000000000E+00 0. -1.
         21   -1    0    0  502  503 -0.00000000000E+00 -0.00000000000E+00 -0.62635123198E+03  0.62635123198E+03  0.00000000000E+00 0.  1.
         -6    2    1    2    0  503 -0.43850955159E+03 -0.11846944630E+03 -0.17191738729E+03  0.51528896029E+03  0.17216703518E+03 0.  0.
        -24    2    3    3    0    0 -0.12520884767E+03 -0.40459603486E+02 -0.96970583437E+01  0.15392987050E+03  0.79285162814E+02 0.  0.
          6    2    1    2  501    0  0.43850955159E+03  0.11846944630E+03 -0.74593685922E+02  0.49090243046E+03  0.17057356686E+03 0.  0.
         24    2    5    5    0    0  0.35727066196E+03  0.13850523322E+03 -0.99392267546E+02  0.40350535044E+03  0.78177486913E+02 0.  0.
          5    1    5    5  501    0  0.81238889629E+02 -0.20035786919E+02  0.24798581625E+02  0.87397080021E+02  0.47000000000E+01 0. -1.
        -13    1    6    6    0    0  0.16725705773E+03  0.51643637783E+02 -0.83589562588E+02  0.19398248286E+03  0.00000000000E+00 0.  1.
         14    1    6    6    0    0  0.19001360423E+03  0.86861595433E+02 -0.15802704958E+02  0.20952286758E+03  0.00000000000E+00 0. -1.
         -5    1    3    3    0  503 -0.31330070392E+03 -0.78009842811E+02 -0.16222032894E+03  0.36135908979E+03  0.47000000000E+01 0.  1.
         11    1    4    4    0    0 -0.12613373237E+03 -0.15397473987E+02 -0.80291449366E-01  0.12707008732E+03  0.00000000000E+00 0. -1.
        -12    1    4    4    0    0  0.92488469645E+00 -0.25062129499E+02 -0.96167668943E+01  0.26859783176E+02  0.00000000000E+00 0.  1.
</event>
<event>
12    1  0.8133495E-002  0.2235556E+03  0.7818608E-02  0.1131345E+00
         21   -1    0    0  501  502  0.00000000000E+00  0.00000000000E+00  0.18275291309E+04  0.18275291309E+04  0.00000000000E+00 0.  1.
         21   -1    0    0  502  503 -0.00000000000E+00 -0.00000000000E+00 -0.29531786675E+02  0.29531786675E+02  0.00000000000E+00 0.  1.
         -6    2    1    2    0  503  0.13606598804E+03 -0.41389275837E+02  0.64402713212E+03  0.68172433827E+03  0.17248217657E+03 0.  0.
        -24    2    3    3    0    0  0.15257902674E+03  0.18312268423E+00  0.57357574117E+03  0.59813945177E+03  0.74170613886E+02 0.  0.
          6    2    1    2  501    0 -0.13606598804E+03  0.41389275837E+02  0.11539702121E+04  0.11753365793E+04  0.17187727878E+03 0.  0.
         24    2    5    5    0    0 -0.62423647525E+02  0.87881357580E+02  0.58591137983E+03  0.60062131510E+03  0.76380457943E+02 0.  0.
          5    1    5    5  501    0 -0.73642340518E+02 -0.46492081743E+02  0.56805883228E+03  0.57471526421E+03  0.47000000000E+01 0. -1.
        -13    1    6    6    0    0 -0.19705657769E+02 -0.33739370242E+01  0.22568067314E+03  0.22656447786E+03  0.00000000000E+00 0.  1.
         14    1    6    6    0    0 -0.42717989756E+02  0.91255294604E+02  0.36023070669E+03  0.37405683724E+03  0.00000000000E+00 0. -1.
         -5    1    3    3    0  503 -0.16513038699E+02 -0.41572398521E+02  0.70451390947E+02  0.83584886506E+02  0.47000000000E+01 0.  1.
         11    1    4    4    0    0  0.20557428725E+01 -0.16734437119E+02  0.83671490711E+02  0.85353300008E+02  0.00000000000E+00 0. -1.
        -12    1    4    4    0    0  0.15052328387E+03  0.16917559803E+02  0.48990425046E+03  0.51278615176E+03  0.00000000000E+00 0.  1.
</event>
<event>
12    1  0.8133495E-002  0.1991257E+03  0.7818608E-02  0.1150635E+00
         21   -1    0    0  501  502  0.00000000000E+00  0.00000000000E+00  0.50399953943E+03  0.50399953943E+03  0.00000000000E+00 0.  1.
         21   -1    0    0  502  503 -0.00000000000E+00 -0.00000000000E+00 -0.78420095660E+02  0.78420095660E+02  0.00000000000E+00 0.  1.
         -6    2    1    2    0  503  0.95397910237E+02 -0.24825994744E+02  0.20685944884E+03  0.28712696317E+03  0.17301436389E+03 0.  0.
        -24    2    3    3    0    0  0.11622469309E+03 -0.59004793902E+02  0.14030797972E+03  0.20932507863E+03  0.84503931168E+02 0.  0.
          6    2    1    2  501    0 -0.95397910237E+02  0.24825994744E+02  0.21871999493E+03  0.29529267192E+03  0.17216920344E+03 0.  0.
         24    2    5    5    0    0 -0.66646705437E+02  0.82504216944E+02  0.15752755065E+03  0.20629820956E+03  0.80593379970E+02 0.  0.
          5    1    5    5  501    0 -0.28751204800E+02 -0.57678222200E+02  0.61192444278E+02  0.88994462358E+02  0.47000000000E+01 0. -1.
        -11    1    6    6    0    0 -0.83986184635E+02  0.54036501248E+02  0.11894974517E+03  0.15531472742E+03  0.00000000000E+00 0.  1.
         12    1    6    6    0    0  0.17339479198E+02  0.28467715696E+02  0.38577805482E+02  0.50983482145E+02  0.00000000000E+00 0. -1.
         -5    1    3    3    0  503 -0.20826782856E+02  0.34178799158E+02  0.66551469113E+02  0.77801884534E+02  0.47000000000E+01 0.  1.
         11    1    4    4    0    0  0.54618055810E+02  0.16196602480E+01  0.10000006160E+03  0.11395511239E+03  0.00000000000E+00 0. -1.
        -12    1    4    4    0    0  0.61606637283E+02 -0.60624454150E+02  0.40307918129E+02  0.95369966248E+02  0.00000000000E+00 0.  1.
</event>
<event>
12    1  0.8133495E-002  0.2271525E+03  0.7818608E-02  0.1128757E+00
         21   -1    0    0  503  502  0.00000000000E+00  0.00000000000E+00  0.34596795437E+03  0.34596795437E+03  0.00000000000E+00 0. -1.
         21   -1    0    0  501  503 -0.00000000000E+00 -0.00000000000E+00 -0.22092028535E+03  0.22092028535E+03  0.00000000000E+00 0.  1.
          6    2    1    2  501    0  0.70027784934E+02 -0.13005329943E+03 -0.99388940680E+02  0.24794435920E+03  0.17257025345E+03 0.  0.
         24    2    3    3    0    0  0.64330895847E+02 -0.15803185338E+03 -0.10785965532E+03  0.21779312320E+03  0.81777799102E+02 0.  0.
         -6    2    1    2    0  502 -0.70027784934E+02  0.13005329943E+03  0.22443660970E+03  0.31894388052E+03  0.17185940704E+03 0.  0.
        -24    2    5    5    0    0 -0.18547919403E+02  0.35517342275E+01  0.49367056728E+02  0.96853221253E+02  0.81159103290E+02 0.  0.
          5    1    3    3  501    0  0.56968890877E+01  0.27978553945E+02  0.84707146352E+01  0.30151236004E+02  0.47000000000E+01 0. -1.
        -13    1    4    4    0    0  0.12180370393E+01 -0.40504320228E+02 -0.66952352801E+02  0.78260469695E+02  0.00000000000E+00 0.  1.
         14    1    4    4    0    0  0.63112858807E+02 -0.11752753315E+03 -0.40907302515E+02  0.13953265350E+03  0.00000000000E+00 0. -1.
         -5    1    5    5    0  502 -0.51479865532E+02  0.12650156520E+03  0.17506955297E+03  0.22209065926E+03  0.47000000000E+01 0.  1.
         11    1    6    6    0    0  0.24017119210E+02  0.25836716078E+02  0.21475553001E+02  0.41298393305E+02  0.00000000000E+00 0. -1.
        -12    1    6    6    0    0 -0.42565038613E+02 -0.22284981851E+02  0.27891503727E+02  0.55554827948E+02  0.00000000000E+00 0.  1.
</event>
<event>
12    1  0.8133495E-002  0.1858174E+03  0.7818608E-02  0.1162366E+00
         21   -1    0    0  501  502  0.00000000000E+00  0.00000000000E+00  0.47458277323E+02  0.47458277323E+02  0.00000000000E+00 0.  1.
         21   -1    0    0  502  503 -0.00000000000E+00 -0.00000000000E+00 -0.75634872792E+03  0.75634872792E+03  0.00000000000E+00 0.  1.
         -6    2    1    2    0  503 -0.51636570662E+02  0.51161923463E+02 -0.43432351520E+03  0.47227255450E+03  0.17064750815E+03 0.  0.
        -24    2    3    3    0    0 -0.76999899991E+01 -0.32986722348E+02 -0.26090180668E+03  0.27451361868E+03  0.78361727993E+02 0.  0.
          6    2    1    2  501    0  0.51636570662E+02 -0.51161923463E+02 -0.27456693539E+03  0.33153445074E+03  0.17100939206E+03 0.  0.
         24    2    5    5    0    0  0.45800815389E+02  0.32236462863E+00 -0.57111170274E+02  0.10794154445E+03  0.79321325244E+02 0.  0.
          5    1    5    5  501    0  0.58357552730E+01 -0.51484288092E+02 -0.21745576512E+03  0.22359290629E+03  0.47000000000E+01 0. -1.
        -11    1    6    6    0    0  0.82720186483E-01 -0.29502379986E+02 -0.79653399720E+00  0.29513246753E+02  0.00000000000E+00 0.  1.
         12    1    6    6    0    0  0.45718095202E+02  0.29824744615E+02 -0.56314636277E+02  0.78428297695E+02  0.00000000000E+00 0. -1.
         -5    1    3    3    0  503 -0.43936580663E+02  0.84148645811E+02 -0.17342170852E+03  0.19775893583E+03  0.47000000000E+01 0.  1.
         13    1    4    4    0    0 -0.33951896065E+02 -0.41298658758E+02 -0.12673612438E+03  0.13755128384E+03  0.00000000000E+00 0. -1.
        -14    1    4    4    0    0  0.26251906066E+02  0.83119364105E+01 -0.13416568230E+03  0.13696233484E+03  0.00000000000E+00 0.  1.
</event>
<event>
12    1  0.8133495E-002  0.2928356E+03  0.7818608E-02  0.1089047E+00
         21   -1    0    0  503  502  0.00000000000E+00  0.00000000000E+00  0.82827486774E+03  0.82827486774E+03  0.00000000000E+00 0. -1.
         21   -1    0    0  501  503 -0.00000000000E+00 -0.00000000000E+00 -0.11715372806E+03  0.11715372806E+03  0.00000000000E+00 0.  1.
          6    2    1    2  501    0 -0.20951304270E+03 -0.11059413446E+03  0.19095260746E+03  0.34849642826E+03  0.16988256114E+03 0.  0.
         24    2    3    3    0    0 -0.17625910721E+03 -0.18159295048E+02  0.12744815166E+03  0.23142837255E+03  0.76935215518E+02 0.  0.
         -6    2    1    2    0  502  0.20951304270E+03  0.11059413446E+03  0.52016853222E+03  0.59693216754E+03  0.17212185538E+03 0.  0.
        -24    2    5    5    0    0  0.75213886820E+02  0.65876316725E+02  0.36554560346E+03  0.38725077449E+03  0.79641423031E+02 0.  0.
          5    1    3    3  501    0 -0.33253935484E+02 -0.92434839416E+02  0.63504455794E+02  0.11706805571E+03  0.47000000000E+01 0. -1.
        -11    1    4    4    0    0 -0.14097981854E+03 -0.41232911900E+02  0.77528090250E+02  0.16609053868E+03  0.00000000000E+00 0.  1.
         12    1    4    4    0    0 -0.35279288667E+02  0.23073616851E+02  0.49920061414E+02  0.65337833872E+02  0.00000000000E+00 0. -1.
         -5    1    5    5    0  502  0.13429915588E+03  0.44717817739E+02  0.15462292876E+03  0.20968139305E+03  0.47000000000E+01 0.  1.
         11    1    6    6    0    0  0.94448330695E+01  0.46328096498E+02  0.74577034181E+02  0.88301933297E+02  0.00000000000E+00 0. -1.
        -12    1    6    6    0    0  0.65769053750E+02  0.19548220228E+02  0.29096856928E+03  0.29894884120E+03  0.00000000000E+00 0.  1.
</event>
<event>
12    1  0.8133495E-002  0.3120656E+03  0.7818608E-02  0.1079575E+00
         21   -1    0    0  501  502  0.00000000000E+00  0.00000000000E+00  0.22888540228E+03  0.22888540228E+03  0.00000000000E+00 0. -1.
         21   -1    0    0  502  503 -0.00000000000E+00 -0.00000000000E+00 -0.72901141421E+03  0.72901141421E+03  0.00000000000E+00 0.  1.
         -6    2    1    2    0  503 -0.25862239970E+03  0.34430905924E+02 -0.55993869237E+03  0.64015088105E+03  0.16790109704E+03 0.  0.
        -24    2    3    3    0    0 -0.26357881784E+03  0.27470566427E+02 -0.44063076626E+03  0.52044505981E+03  0.80493247365E+02 0.  0.
          6    2    1    2  501    0  0.25862239970E+03 -0.34430905924E+02  0.59812680435E+02  0.31774593545E+03  0.17121299554E+03 0.  0.
         24    2    5    5    0    0  0.13440454221E+03 -0.27742422642E+02  0.10031399284E+03  0.18683658423E+03  0.77529278786E+02 0.  0.
          5    1    5    5  501    0  0.12421785750E+03 -0.66884832816E+01 -0.40501312400E+02  0.13090935122E+03  0.47000000000E+01 0. -1.
        -13    1    6    6    0    0  0.74583318678E+02 -0.52927409034E+02  0.70164678940E+02  0.11526952860E+03  0.00000000000E+00 0.  1.
         14    1    6    6    0    0  0.59821223529E+02  0.25184986392E+02  0.30149313895E+02  0.71567055636E+02  0.00000000000E+00 0. -1.
         -5    1    3    3    0  503  0.49564181389E+01  0.69603394966E+01 -0.11930792611E+03  0.11970582124E+03  0.47000000000E+01 0.  1.
         11    1    4    4    0    0 -0.31870146403E+02 -0.16139763624E+02 -0.99874872551E+02  0.10607161905E+03  0.00000000000E+00 0. -1.
        -12    1    4    4    0    0 -0.23170867144E+03  0.43610330051E+02 -0.34075589371E+03  0.41437344076E+03  0.00000000000E+00 0.  1.
</event>
<event>
12    1  0.8133495E-002  0.1757069E+03  0.7818608E-02  0.1172164E+00
         21   -1    0    0  503  502  0.00000000000E+00  0.00000000000E+00  0.85808952644E+03  0.85808952644E+03  0.00000000000E+00 0. -1.
         21   -1    0    0  501  503 -0.00000000000E+00 -0.00000000000E+00 -0.38816278730E+02  0.38816278730E+02  0.00000000000E+00 0. -1.
          6    2    1    2  501    0  0.25489413411E+02 -0.29368253387E+02  0.28536071291E+03  0.33482439199E+03  0.17077597166E+03 0.  0.
         24    2    3    3    0    0  0.43268822887E+02  0.35361398783E+02  0.22251435014E+03  0.24274947366E+03  0.79322451973E+02 0.  0.
         -6    2    1    2    0  502 -0.25489413411E+02  0.29368253387E+02  0.53391253480E+03  0.56208141318E+03  0.17134968843E+03 0.  0.
        -24    2    5    5    0    0 -0.19612380606E+02  0.70374376255E+02  0.48733536795E+03  0.49957090128E+03  0.82086090401E+02 0.  0.
          5    1    3    3  501    0 -0.17779409476E+02 -0.64729652171E+02  0.62846362774E+02  0.92074918329E+02  0.47000000000E+01 0. -1.
        -13    1    4    4    0    0  0.65729730797E+01 -0.25235084051E+02  0.54845824252E+02  0.60729547010E+02  0.00000000000E+00 0.  1.
         14    1    4    4    0    0  0.36695849807E+02  0.60596482834E+02  0.16766852589E+03  0.18201992665E+03  0.00000000000E+00 0. -1.
         -5    1    5    5    0  502 -0.58770328045E+01 -0.41006122868E+02  0.46577166843E+02  0.62510511903E+02  0.47000000000E+01 0.  1.
         11    1    6    6    0    0 -0.35663698957E+02 -0.17839022474E+01  0.14310708139E+03  0.14749480830E+03  0.00000000000E+00 0. -1.
        -12    1    6    6    0    0  0.16051318351E+02  0.72158278503E+02  0.34422828656E+03  0.35207609298E+03  0.00000000000E+00 0.  1.
</event>
<event>
12    1  0.8133495E-002  0.1786052E+03  0.7818608E-02  0.1169354E+00
         21   -1    0    0  501  502  0.00000000000E+00  0.00000000000E+00  0.97929145610E+03  0.97929145610E+03  0.00000000000E+00 0.  1.
         21   -1    0    0  502  503 -0.00000000000E+00 -0.00000000000E+00 -0.99305056319E+02  0.99305056319E+02  0.00000000000E+00 0.  1.
         -6    2    1    2    0  503  0.42059336002E+02  0.26375136037E+02 -0.22505421618E+01  0.17861942592E+03  0.17156689317E+03 0.  0.
        -24    2    3    3    0    0  0.46789194775E+01 -0.14431674172E+02  0.54943951407E+02  0.98896208515E+02  0.80817428538E+02 0.  0.
          6    2    1    2  501    0 -0.42059336002E+02 -0.26375136037E+02  0.88223694194E+03  0.89997708650E+03  0.17073985752E+03 0.  0.
         24    2    5    5    0    0 -0.17706368622E+02 -0.77854352260E+02  0.40633192412E+03  0.42065375856E+03  0.73953609585E+02 0.  0.
          5    1    5    5  501    0 -0.24352967380E+02  0.51479216223E+02  0.47590501782E+03  0.47932332794E+03  0.47000000000E+01 0. -1.
        -11    1    6    6    0    0 -0.62540240718E+01 -0.50492084289E+02  0.37121705608E+03  0.37468742455E+03  0.00000000000E+00 0.  1.
         12    1    6    6    0    0 -0.11452344550E+02 -0.27362267970E+02  0.35114868047E+02  0.45966334008E+02  0.00000000000E+00 0. -1.
         -5    1    3    3    0  503  0.37380416524E+02  0.40806810209E+02 -0.57194493569E+02  0.79723217406E+02  0.47000000000E+01 0.  1.
         13    1    4    4    0    0  0.27147669819E+02 -0.38151417548E+02  0.19590298710E+02  0.50757328940E+02  0.00000000000E+00 0. -1.
        -14    1    4    4    0    0 -0.22468750342E+02  0.23719743376E+02  0.35353652697E+02  0.48138879575E+02  0.00000000000E+00 0.  1.
</event>
<event>
12    1  0.8133495E-002  0.2462646E+03  0.7818608E-02  0.1116405E+00
         21   -1    0    0  501  502  0.00000000000E+00  0.00000000000E+00  0.34873286209E+03  0.34873286209E+03  0.00000000000E+00 0. -1.
         21   -1    0    0  502  503 -0.00000000000E+00 -0.00000000000E+00 -0.17945688308E+03  0.17945688308E+03  0.00000000000E+00 0.  1.
         -6    2    1    2    0  503 -0.30200270666E+02 -0.16383330975E+03  0.25932716663E+02  0.24324494770E+03  0.17533450617E+03 0.  0.
        -24    2    3    3    0    0 -0.28992237345E+02 -0.79622682629E+01 -0.75300608161E+00  0.85031614764E+02  0.79535281160E+02 0.  0.
          6    2    1    2  501    0  0.30200270666E+02  0.16383330975E+03  0.14334326235E+03  0.28494479746E+03  0.18136382497E+03 0.  0.
         24    2    5    5    0    0  0.44563568954E+02  0.18366801364E+03  0.86586508718E+02  0.22295174222E+03  0.80563049578E+02 0.  0.
          5    1    5    5  501    0 -0.14363298288E+02 -0.19834703882E+02  0.56756753628E+02  0.61993055242E+02  0.47000000000E+01 0. -1.
        -13    1    6    6    0    0  0.59618876649E+02  0.96107835581E+02  0.68686422021E+02  0.13232139314E+03  0.00000000000E+00 0.  1.
         14    1    6    6    0    0 -0.15055307695E+02  0.87560178055E+02  0.17900086698E+02  0.90630349081E+02  0.00000000000E+00 0. -1.
         -5    1    3    3    0  503 -0.12080333208E+01 -0.15587104149E+03  0.26685722745E+02  0.15821333294E+03  0.47000000000E+01 0.  1.
         11    1    4    4    0    0 -0.18236703498E+02 -0.32716130827E+00  0.39050174444E+02  0.43099889943E+02  0.00000000000E+00 0. -1.
        -12    1    4    4    0    0 -0.10755533847E+02 -0.76351069546E+01 -0.39803180526E+02  0.41931724821E+02  0.00000000000E+00 0.  1.
</event>
<event>
12    1  0.8133495E-002  0.1777870E+03  0.7818608E-02  0.1170020E+00
         21   -1    0    0  501  502  0.00000000000E+00  0.00000000000E+00  0.89652088367E+03  0.89652088367E+03  0.00000000000E+00 0. -1.
         21   -1    0    0  502  503 -0.00000000000E+00 -0.00000000000E+00 -0.36706771111E+02  0.36706771111E+02  0.00000000000E+00 0. -1.
         -6    2    1    2    0  503  0.41879974209E+02 -0.21537002979E+02  0.33541142059E+03  0.37950716153E+03  0.17119313611E+03 0.  0.
        -24    2    3    3    0    0  0.70538854710E+02 -0.35812842126E+02  0.32752627061E+03  0.34619955571E+03  0.79513424984E+02 0.  0.
          6    2    1    2  501    0 -0.41879974209E+02  0.21537002979E+02  0.52440269197E+03  0.55372049325E+03  0.17143636303E+03 0.  0.
         24    2    5    5    0    0 -0.35345513607E+02 -0.51611765122E+02  0.34598869969E+03  0.36072545681E+03  0.80632470191E+02 0.  0.
          5    1    5    5  501    0 -0.65344606015E+01  0.73148768100E+02  0.17841399228E+03  0.19299503644E+03  0.47000000000E+01 0. -1.
        -13    1    6    6    0    0 -0.50089786701E+02 -0.49866571723E+02  0.33468008969E+03  0.34206201798E+03  0.00000000000E+00 0.  1.
         14    1    6    6    0    0  0.14744273094E+02 -0.17451933991E+01  0.11308609998E+02  0.18663438836E+02  0.00000000000E+00 0. -1.
         -5    1    3    3    0  503 -0.28658880502E+02  0.14275839147E+02  0.78851499855E+01  0.33307605817E+02  0.47000000000E+01 0.  1.
         11    1    4    4    0    0 -0.10756764579E+02 -0.19492961490E+02  0.30148297026E+02  0.37478038175E+02  0.00000000000E+00 0. -1.
        -12    1    4    4    0    0  0.81295619289E+02 -0.16319880636E+02  0.29737797358E+03  0.30872151754E+03  0.00000000000E+00 0.  1.
</event>
<event>
12    1  0.8133495E-002  0.1869725E+03  0.7818608E-02  0.1162492E+00
         21   -1    0    0  503  502  0.00000000000E+00  0.00000000000E+00  0.86278173907E+03  0.86278173907E+03  0.00000000000E+00 0. -1.
         21   -1    0    0  501  503 -0.00000000000E+00 -0.00000000000E+00 -0.39921910510E+02  0.39921910510E+02  0.00000000000E+00 0. -1.
          6    2    1    2  501    0 -0.44785331260E+02  0.36896025499E+02  0.36336441701E+03  0.40864704796E+03  0.17774045027E+03 0.  0.
         24    2    3    3    0    0 -0.14615755443E+02  0.56325234759E+02  0.35890846242E+03  0.37218277765E+03  0.79489516318E+02 0.  0.
         -6    2    1    2    0  502  0.44785331260E+02 -0.36896025499E+02  0.45949541155E+03  0.49405660162E+03  0.17201409762E+03 0.  0.
        -24    2    5    5    0    0  0.18409936569E+02 -0.86261838395E+02  0.36637567426E+03  0.38530909406E+03  0.80323923894E+02 0.  0.
          5    1    3    3  501    0 -0.30169575818E+02 -0.19429209260E+02  0.44559545869E+01  0.36464270304E+02  0.47000000000E+01 0. -1.
        -13    1    4    4    0    0  0.72181554795E+00 -0.27587921738E+01  0.22499288250E+03  0.22501095335E+03  0.00000000000E+00 0.  1.
         14    1    4    4    0    0 -0.15337570991E+02  0.59084026933E+02  0.13391557993E+03  0.14717182431E+03  0.00000000000E+00 0. -1.
         -5    1    5    5    0  502  0.26375394691E+02  0.49365812896E+02  0.93119737289E+02  0.10874750756E+03  0.47000000000E+01 0.  1.
         11    1    6    6    0    0  0.33581598804E+02 -0.14431291111E+02  0.20204739660E+03  0.20532690134E+03  0.00000000000E+00 0. -1.
        -12    1    6    6    0    0 -0.15171662235E+02 -0.71830547284E+02  0.16432827766E+03  0.17998219272E+03  0.00000000000E+00 0.  1.
</event>
<event>
12    1  0.8133495E-002  0.2455482E+03  0.7818608E-02  0.1116214E+00
         21   -1    0    0  503  502  0.00000000000E+00  0.00000000000E+00  0.29375068701E+02  0.29375068701E+02  0.00000000000E+00 0.  1.
         21   -1    0    0  501  503 -0.00000000000E+00 -0.00000000000E+00 -0.21181653051E+04  0.21181653051E+04  0.00000000000E+00 0.  1.
          6    2    1    2  501    0  0.37871926245E+02 -0.17158660356E+03 -0.85002145431E+03  0.88466983368E+03  0.17096197393E+03 0.  0.
         24    2    3    3    0    0  0.13806480011E+02 -0.12546143684E+03 -0.32759381520E+03  0.35963706822E+03  0.78037952659E+02 0.  0.
         -6    2    1    2    0  502 -0.37871926245E+02  0.17158660356E+03 -0.12387687821E+04  0.12628705401E+04  0.17151577274E+03 0.  0.
        -24    2    5    5    0    0 -0.81280912055E+02  0.93577520548E+02 -0.65179016979E+03  0.66912333938E+03  0.86788702361E+02 0.  0.
          5    1    3    3  501    0  0.24065446234E+02 -0.46125166712E+02 -0.52242763911E+03  0.52503276547E+03  0.47000000000E+01 0. -1.
        -11    1    4    4    0    0  0.42740197191E+02 -0.81383974841E+02 -0.24469055311E+03  0.26138772466E+03  0.00000000000E+00 0.  1.
         12    1    4    4    0    0 -0.28933717180E+02 -0.44077462001E+02 -0.82903262082E+02  0.98249343561E+02  0.00000000000E+00 0. -1.
         -5    1    5    5    0  502  0.43408985810E+02  0.78009083007E+02 -0.58697861231E+03  0.59374720074E+03  0.47000000000E+01 0.  1.
         13    1    6    6    0    0 -0.27882901789E+02 -0.10950558253E+02 -0.80346233667E+02  0.85748983683E+02  0.00000000000E+00 0. -1.
        -14    1    6    6    0    0 -0.53398010266E+02  0.10452807880E+03 -0.57144393612E+03  0.58337435570E+03  0.00000000000E+00 0.  1.
</event>
<event>
12    1  0.8133495E-002  0.2075879E+03  0.7818608E-02  0.1143720E+00
         21   -1    0    0  503  502  0.00000000000E+00  0.00000000000E+00  0.70330169152E+02  0.70330169152E+02  0.00000000000E+00 0. -1.
         21   -1    0    0  501  503 -0.00000000000E+00 -0.00000000000E+00 -0.65842536435E+03  0.65842536435E+03  0.00000000000E+00 0. -1.
          6    2    1    2  501    0 -0.38763693381E+02  0.10676731532E+03 -0.19383613210E+03  0.28318517664E+03  0.17239348774E+03 0.  0.
         24    2    3    3    0    0 -0.34878697863E+02 -0.11252690581E+02 -0.90227045444E+02  0.12602046106E+03  0.79981812104E+02 0.  0.
         -6    2    1    2    0  502  0.38763693381E+02 -0.10676731532E+03 -0.39425906310E+03  0.44557035687E+03  0.17375514536E+03 0.  0.
        -24    2    5    5    0    0  0.68386798659E+00 -0.13574512656E+03 -0.26786323532E+03  0.31033803112E+03  0.78305642619E+02 0.  0.
          5    1    3    3  501    0 -0.38849955177E+01  0.11802000590E+03 -0.10360908666E+03  0.15716471557E+03  0.47000000000E+01 0. -1.
        -11    1    4    4    0    0 -0.58221835100E+01 -0.28855754796E+02  0.18343519041E+00  0.29437833720E+02  0.00000000000E+00 0.  1.
         12    1    4    4    0    0 -0.29056514353E+02  0.17603064215E+02 -0.90410480635E+02  0.96582627344E+02  0.00000000000E+00 0. -1.
         -5    1    5    5    0  502  0.38079825394E+02  0.28977811238E+02 -0.12639582778E+03  0.13523232574E+03  0.47000000000E+01 0.  1.
         11    1    6    6    0    0 -0.34167966118E+02 -0.50326234426E+02 -0.75172094091E+02  0.96700690329E+02  0.00000000000E+00 0. -1.
        -12    1    6    6    0    0  0.34851834105E+02 -0.85418892132E+02 -0.19269114123E+03  0.21363734079E+03  0.00000000000E+00 0.  1.
</event>
<event>
12    1  0.8133495E-002  0.2464821E+03  0.7818608E-02  0.1116060E+00
         21   -1    0    0  503  502  0.00000000000E+00  0.00000000000E+00  0.25115833614E+04  0.25115833614E+04  0.00000000000E+00 0. -1.
         21   -1    0    0  501  503 -0.00000000000E+00 -0.00000000000E+00 -0.24529085027E+02  0.24529085027E+02  0.00000000000E+00 0.  1.
          6    2    1    2  501    0 -0.21529012568E+02  0.17250953876E+03  0.10451580714E+04  0.10738290415E+04  0.17472943831E+03 0.  0.
         24    2    3    3    0    0 -0.81602630713E+02  0.11408515286E+03  0.75476813915E+03  0.77155325472E+03  0.77104277126E+02 0.  0.
         -6    2    1    2    0  502  0.21529012568E+02 -0.17250953876E+03  0.14418962049E+04  0.14622834050E+04  0.17024996721E+03 0.  0.
        -24    2    5    5    0    0  0.39998128695E+02 -0.15830178568E+03  0.14138227806E+04  0.14254978691E+04  0.80560623784E+02 0.  0.
          5    1    3    3  501    0  0.60073618146E+02  0.58424385907E+02  0.29038993230E+03  0.30227578673E+03  0.47000000000E+01 0. -1.
        -13    1    4    4    0    0 -0.50106766828E+02  0.45641424218E+02  0.18890045845E+03  0.20069183065E+03  0.00000000000E+00 0.  1.
         14    1    4    4    0    0 -0.31495863886E+02  0.68443728640E+02  0.56586768070E+03  0.57086142407E+03  0.00000000000E+00 0. -1.
         -5    1    5    5    0  502 -0.18469116127E+02 -0.14207753081E+02  0.28073424272E+02  0.36785535860E+02  0.47000000000E+01 0.  1.
         13    1    6    6    0    0 -0.14294193014E+02 -0.20665797811E+02  0.41677546442E+03  0.41753225851E+03  0.00000000000E+00 0. -1.
        -14    1    6    6    0    0  0.54292321709E+02 -0.13763598787E+03  0.99704731622E+03  0.10079656106E+04  0.00000000000E+00 0.  1.
</event>
<event>
12    1  0.8133495E-002  0.1780120E+03  0.7818608E-02  0.1169914E+00
         21   -1    0    0  503  502  0.00000000000E+00  0.00000000000E+00  0.17255152800E+03  0.17255152800E+03  0.00000000000E+00 0. -1.
         21   -1    0    0  501  503 -0.00000000000E+00 -0.00000000000E+00 -0.19199046239E+03  0.19199046239E+03  0.00000000000E+00 0. -1.
          6    2    1    2  501    0 -0.12415552945E+02  0.46747040041E+02 -0.49320278099E+02  0.18403945876E+03  0.17058312004E+03 0.  0.
         24    2    3    3    0    0  0.10116738743E+02 -0.40491038409E+02 -0.17739311192E+02  0.88448486535E+02  0.75937994538E+02 0.  0.
         -6    2    1    2    0  502  0.12415552945E+02 -0.46747040041E+02  0.29881343708E+02  0.18050253162E+03  0.17131502419E+03 0.  0.
        -24    2    5    5    0    0  0.31449564928E+01 -0.97849129976E+02  0.27962938910E+02  0.12831883847E+03  0.78099010008E+02 0.  0.
          5    1    3    3  501    0 -0.22532291688E+02  0.87238078450E+02 -0.31580966907E+02  0.95590972226E+02  0.47000000000E+01 0. -1.
        -13    1    4    4    0    0  0.29198358587E+02 -0.15730347241E+02 -0.38581318324E+02  0.50877363258E+02  0.00000000000E+00 0.  1.
         14    1    4    4    0    0 -0.19081619844E+02 -0.24760691168E+02  0.20842007132E+02  0.37571123277E+02  0.00000000000E+00 0. -1.
         -5    1    5    5    0  502  0.92705964522E+01  0.51102089936E+02  0.19184047977E+01  0.52183693156E+02  0.47000000000E+01 0.  1.
         13    1    6    6    0    0  0.37467781268E+02 -0.71966480580E+02  0.10079797108E+02  0.81759472050E+02  0.00000000000E+00 0. -1.
        -14    1    6    6    0    0 -0.34322824775E+02 -0.25882649396E+02  0.17883141803E+02  0.46559366416E+02  0.00000000000E+00 0.  1.
</event>
<event>
12    1  0.8133495E-002  0.3930760E+03  0.7818608E-02  0.1046342E+00
         21   -1    0    0  503  502  0.00000000000E+00  0.00000000000E+00  0.95050058516E+03  0.95050058516E+03  0.00000000000E+00 0. -1.
         21   -1    0    0  501  503 -0.00000000000E+00 -0.00000000000E+00 -0.22868159177E+03  0.22868159177E+03  0.00000000000E+00 0. -1.
          6    2    1    2  501    0  0.34784199776E+03  0.58343436345E+02  0.42832860055E+02  0.39540278995E+03  0.17352435111E+03 0.  0.
         24    2    3    3    0    0  0.32425790525E+03  0.96905706537E+02  0.39886967581E+02  0.34986131012E+03  0.79234216494E+02 0.  0.
         -6    2    1    2    0  502 -0.34784199776E+03 -0.58343436345E+02  0.67898613333E+03  0.78377938698E+03  0.16997042750E+03 0.  0.
        -24    2    5    5    0    0 -0.25733865886E+03 -0.74931401124E+02  0.60218247444E+03  0.66383395377E+03  0.78828202075E+02 0.  0.
          5    1    3    3  501    0  0.23584092515E+02 -0.38562270193E+02  0.29458924746E+01  0.45541479825E+02  0.47000000000E+01 0. -1.
        -13    1    4    4    0    0  0.44359853139E+02  0.42255654242E+02 -0.36534818687E+01  0.61373323323E+02  0.00000000000E+00 0.  1.
         14    1    4    4    0    0  0.27989805211E+03  0.54650052296E+02  0.43540449449E+02  0.28848798680E+03  0.00000000000E+00 0. -1.
         -5    1    5    5    0  502 -0.90503338898E+02  0.16587964780E+02  0.76803658894E+02  0.11994543321E+03  0.47000000000E+01 0.  1.
         11    1    6    6    0    0 -0.67797117367E+02 -0.23067832693E+02  0.25533242266E+03  0.26518525617E+03  0.00000000000E+00 0. -1.
        -12    1    6    6    0    0 -0.18954154149E+03 -0.51863568432E+02  0.34685005178E+03  0.39864869761E+03  0.00000000000E+00 0.  1.
</event>
<event>
12    1  0.8133495E-002  0.1902096E+03  0.7818608E-02  0.1158643E+00
         21   -1    0    0  501  502  0.00000000000E+00  0.00000000000E+00  0.36604496785E+03  0.36604496785E+03  0.00000000000E+00 0.  1.
         21   -1    0    0  502  503 -0.00000000000E+00 -0.00000000000E+00 -0.98068972829E+02  0.98068972829E+02  0.00000000000E+00 0.  1.
         -6    2    1    2    0  503 -0.79853644830E+02 -0.44287484992E+01  0.12801352923E+03  0.22927529652E+03  0.17257890811E+03 0.  0.
        -24    2    3    3    0    0 -0.55223999883E+01 -0.48777678575E+02  0.31487195810E+02  0.99539470315E+02  0.80665381806E+02 0.  0.
          6    2    1    2  501    0  0.79853644830E+02  0.44287484992E+01  0.13996246579E+03  0.23483864416E+03  0.17077317867E+03 0.  0.
         24    2    5    5    0    0 -0.67186375902E+01  0.32068131822E+02  0.11424446214E+03  0.14027543088E+03  0.74511034137E+02 0.  0.
          5    1    5    5  501    0  0.86572282420E+02 -0.27639383323E+02  0.25718003652E+02  0.94563213280E+02  0.47000000000E+01 0. -1.
        -11    1    6    6    0    0 -0.13188076711E+02 -0.12392442911E+02  0.84445341736E+02  0.86362687253E+02  0.00000000000E+00 0.  1.
         12    1    6    6    0    0  0.64694391204E+01  0.44460574733E+02  0.29799120405E+02  0.53912743624E+02  0.00000000000E+00 0. -1.
         -5    1    3    3    0  503 -0.74331244842E+02  0.44348930076E+02  0.96526333418E+02  0.12973582621E+03  0.47000000000E+01 0.  1.
         11    1    4    4    0    0  0.53881811550E+01 -0.24686837413E+02 -0.26003180325E+02  0.36257934644E+02  0.00000000000E+00 0. -1.
        -12    1    4    4    0    0 -0.10910581143E+02 -0.24090841162E+02  0.57490376135E+02  0.63281535671E+02  0.00000000000E+00 0.  1.
</event>
<event>
12    1  0.8133495E-002  0.1997340E+03  0.7818608E-02  0.1149989E+00
         21   -1    0    0  503  502  0.00000000000E+00  0.00000000000E+00  0.18572223840E+04  0.18572223840E+04  0.00000000000E+00 0.  1.
         21   -1    0    0  501  503 -0.00000000000E+00 -0.00000000000E+00 -0.22276602038E+02  0.22276602038E+02  0.00000000000E+00 0.  1.
          6    2    1    2  501    0  0.68297887130E+02 -0.73556703791E+02  0.10963407566E+04  0.11143643131E+04  0.17253862702E+03 0.  0.
         24    2    3    3    0    0  0.90835587250E+01 -0.37060069987E+02  0.92857048541E+03  0.93268521457E+03  0.78756607921E+02 0.  0.
         -6    2    1    2    0  502 -0.68297887130E+02  0.73556703791E+02  0.73860502536E+03  0.76513467287E+03  0.17268032338E+03 0.  0.
        -24    2    5    5    0    0  0.11368961429E+02  0.87984276721E+02  0.43351177030E+03  0.44944662131E+03  0.78735787149E+02 0.  0.
          5    1    3    3  501    0  0.59214328405E+02 -0.36496633804E+02  0.16777027117E+03  0.18167909857E+03  0.47000000000E+01 0. -1.
        -13    1    4    4    0    0  0.39080338494E+02 -0.17580669674E+02  0.70222072375E+03  0.70352704117E+03  0.00000000000E+00 0.  1.
         14    1    4    4    0    0 -0.29996779769E+02 -0.19479400313E+02  0.22634976166E+03  0.22915817340E+03  0.00000000000E+00 0. -1.
         -5    1    5    5    0  502 -0.79666848560E+02 -0.14427572930E+02  0.30509325506E+03  0.31568805157E+03  0.47000000000E+01 0.  1.
         13    1    6    6    0    0  0.17852941536E+02  0.37432075241E+02  0.34360524748E+03  0.34609890765E+03  0.00000000000E+00 0. -1.
        -14    1    6    6    0    0 -0.64839801070E+01  0.50552201480E+02  0.89906522825E+02  0.10334771366E+03  0.00000000000E+00 0.  1.
</event>
<event>
12    1  0.8133495E-002  0.1802279E+03  0.7818608E-02  0.1169947E+00
         21   -1    0    0  501  502  0.00000000000E+00  0.00000000000E+00  0.47438219083E+03  0.47438219083E+03  0.00000000000E+00 0.  1.
         21   -1    0    0  502  503 -0.00000000000E+00 -0.00000000000E+00 -0.73796119156E+02  0.73796119156E+02  0.00000000000E+00 0.  1.
         -6    2    1    2    0  503  0.12281091124E+01  0.72985050223E+01  0.10997397449E+03  0.21113120313E+03  0.18007591021E+03 0.  0.
        -24    2    3    3    0    0  0.23464443163E+02 -0.53016788414E+02  0.10915144797E+03  0.14667070573E+03  0.78974029782E+02 0.  0.
          6    2    1    2  501    0 -0.12281091124E+01 -0.72985050223E+01  0.29061209718E+03  0.33704710686E+03  0.17055962238E+03 0.  0.
         24    2    5    5    0    0  0.12517135294E+02 -0.64607109708E+02  0.13371142430E+03  0.16937743440E+03  0.80493558704E+02 0.  0.
          5    1    5    5  501    0 -0.13745244407E+02  0.57308604686E+02  0.15690067288E+03  0.16766967246E+03  0.47000000000E+01 0. -1.
        -11    1    6    6    0    0 -0.11608143258E+02 -0.55620113943E+02  0.13184284376E+03  0.14356490350E+03  0.00000000000E+00 0.  1.
         12    1    6    6    0    0  0.24125278552E+02 -0.89869957650E+01  0.18685805390E+01  0.25812530897E+02  0.00000000000E+00 0. -1.
         -5    1    3    3    0  503 -0.22236334051E+02  0.60315293436E+02  0.82252652706E+00  0.64460497394E+02  0.47000000000E+01 0.  1.
         11    1    4    4    0    0  0.43481421203E+02 -0.75901925561E+01  0.30456467874E+02  0.53626872445E+02  0.00000000000E+00 0. -1.
        -12    1    4    4    0    0 -0.20016978039E+02 -0.45426595858E+02  0.78694980092E+02  0.93043833287E+02  0.00000000000E+00 0.  1.
</event>
<event>
12    1  0.8133495E-002  0.1826588E+03  0.7818608E-02  0.1165338E+00
         21   -1    0    0  501  502  0.00000000000E+00  0.00000000000E+00  0.50392552946E+03  0.50392552946E+03  0.00000000000E+00 0.  1.
         21   -1    0    0  502  503 -0.00000000000E+00 -0.00000000000E+00 -0.12335710211E+03  0.12335710211E+03  0.00000000000E+00 0.  1.
         -6    2    1    2    0  503  0.57581535366E+02  0.18304787154E+02 -0.23529891801E+02  0.18381932750E+03  0.17200346190E+03 0.  0.
        -24    2    3    3    0    0  0.82561657857E+02 -0.24066945249E+02 -0.47703318350E+02  0.12881192093E+03  0.83194105497E+02 0.  0.
          6    2    1    2  501    0 -0.57581535366E+02 -0.18304787154E+02  0.40409831916E+03  0.44346330407E+03  0.17237619345E+03 0.  0.
         24    2    5    5    0    0 -0.61242654289E+02 -0.75167794443E+02  0.28623942982E+03  0.31246859737E+03  0.79389880537E+02 0.  0.
          5    1    5    5  501    0  0.36611189221E+01  0.56863007289E+02  0.11785888934E+03  0.13099470671E+03  0.47000000000E+01 0. -1.
        -11    1    6    6    0    0 -0.80374452266E+02 -0.62682479532E+02  0.24430319492E+03  0.26471342403E+03  0.00000000000E+00 0.  1.
         12    1    6    6    0    0  0.19131797978E+02 -0.12485314911E+02  0.41936234903E+02  0.47755173333E+02  0.00000000000E+00 0. -1.
         -5    1    3    3    0  503 -0.24980122491E+02  0.42371732403E+02  0.24173426549E+02  0.55007406571E+02  0.47000000000E+01 0.  1.
         13    1    4    4    0    0 -0.71957485816E+01 -0.19068437953E+02  0.92614158375E+01  0.22386557282E+02  0.00000000000E+00 0. -1.
        -14    1    4    4    0    0  0.89757406439E+02 -0.49985072959E+01 -0.56964734187E+02  0.10642536364E+03  0.00000000000E+00 0.  1.
</event>
<event>
12    1  0.8133495E-002  0.1805673E+03  0.7818608E-02  0.1168164E+00
         21   -1    0    0  503  502  0.00000000000E+00  0.00000000000E+00  0.89933090612E+03  0.89933090612E+03  0.00000000000E+00 0.  1.
         21   -1    0    0  501  503 -0.00000000000E+00 -0.00000000000E+00 -0.82558808269E+02  0.82558808269E+02  0.00000000000E+00 0.  1.
          6    2    1    2  501    0 -0.41122081676E+02  0.10858698187E+01  0.35941626319E+02  0.18045301251E+03  0.17198629163E+03 0.  0.
         24    2    3    3    0    0 -0.23771898877E+02  0.67557116526E+02  0.63882990411E+01  0.10552007826E+03  0.77230883608E+02 0.  0.
         -6    2    1    2    0  502  0.41122081676E+02 -0.10858698187E+01  0.78083047153E+03  0.80143670188E+03  0.17581910342E+03 0.  0.
        -24    2    5    5    0    0  0.56349886659E+02  0.12126347370E+02  0.23274382104E+03  0.25295925003E+03  0.80599863027E+02 0.  0.
          5    1    3    3  501    0 -0.17350182799E+02 -0.66471246707E+02  0.29553327278E+02  0.74932934249E+02  0.47000000000E+01 0. -1.
        -13    1    4    4    0    0 -0.40230261605E+02  0.37482775650E+02  0.31180983318E+02  0.63211439945E+02  0.00000000000E+00 0.  1.
         14    1    4    4    0    0  0.16458362728E+02  0.30074340876E+02 -0.24792684277E+02  0.42308638320E+02  0.00000000000E+00 0. -1.
         -5    1    5    5    0  502 -0.15227804982E+02 -0.13212217189E+02  0.54808665050E+03  0.54847745184E+03  0.47000000000E+01 0.  1.
         11    1    6    6    0    0  0.10862890857E+01  0.21765461730E+02  0.15805035245E+03  0.15954569646E+03  0.00000000000E+00 0. -1.
        -12    1    6    6    0    0  0.55263597573E+02 -0.96391143603E+01  0.74693468586E+02  0.93413553576E+02  0.00000000000E+00 0.  1.
</event>
<event>
12    1  0.8133495E-002  0.2479371E+03  0.7818608E-02  0.1114740E+00
         21   -1    0    0  501  502  0.00000000000E+00  0.00000000000E+00  0.35620905869E+03  0.35620905869E+03  0.00000000000E+00 0. -1.
         21   -1    0    0  502  503 -0.00000000000E+00 -0.00000000000E+00 -0.18852590533E+03  0.18852590533E+03  0.00000000000E+00 0.  1.
         -6    2    1    2    0  503  0.15532425069E+03 -0.85529744230E+02  0.31628267880E+01  0.24717867492E+03  0.17218110773E+03 0.  0.
        -24    2    3    3    0    0  0.19302105260E+02  0.68590461468E+01 -0.78126034527E+01  0.82314298217E+02  0.79340967581E+02 0.  0.
          6    2    1    2  501    0 -0.15532425069E+03  0.85529744230E+02  0.16452032658E+03  0.29755628910E+03  0.17329699168E+03 0.  0.
         24    2    5    5    0    0 -0.60866947846E+02  0.23835516499E+02  0.15240087286E+03  0.18398987261E+03  0.79707778712E+02 0.  0.
          5    1    5    5  501    0 -0.94457302848E+02  0.61694227731E+02  0.12119453721E+02  0.11356641649E+03  0.47000000000E+01 0. -1.
        -11    1    6    6    0    0 -0.50842350450E+02 -0.17510759552E+02  0.51371313853E+02  0.74367890829E+02  0.00000000000E+00 0.  1.
         12    1    6    6    0    0 -0.10024597396E+02  0.41346276051E+02  0.10102955900E+03  0.10962198178E+03  0.00000000000E+00 0. -1.
         -5    1    3    3    0  503  0.13602214543E+03 -0.92388790377E+02  0.10975430241E+02  0.16486437670E+03  0.47000000000E+01 0.  1.
         11    1    4    4    0    0 -0.74928663327E+01  0.28023493599E+02  0.22456106240E+02  0.36684273835E+02  0.00000000000E+00 0. -1.
        -12    1    4    4    0    0  0.26794971593E+02 -0.21164447452E+02 -0.30268709693E+02  0.45630024382E+02  0.00000000000E+00 0.  1.
</event>
<event>
12    1  0.8133495E-002  0.2064408E+03  0.7818608E-02  0.1144491E+00
         21   -1    0    0  501  502  0.00000000000E+00  0.00000000000E+00  0.11080717662E+04  0.11080717662E+04  0.00000000000E+00 0. -1.
         21   -1    0    0  502  503 -0.00000000000E+00 -0.00000000000E+00 -0.18182128894E+03  0.18182128894E+03  0.00000000000E+00 0. -1.
         -6    2    1    2    0  503  0.59095592954E+02  0.97368098462E+02 -0.10960907446E+03  0.23373475139E+03  0.17217708645E+03 0.  0.
        -24    2    3    3    0    0  0.14561955046E+02 -0.17187384119E+02 -0.37510665487E+02  0.91163807393E+02  0.79977078250E+02 0.  0.
          6    2    1    2  501    0 -0.59095592954E+02 -0.97368098462E+02  0.10358595517E+04  0.10561583037E+04  0.17173385214E+03 0.  0.
         24    2    5    5    0    0 -0.22758926838E+02 -0.13197034503E+03  0.78748872377E+03  0.80272620840E+03  0.79351968315E+02 0.  0.
          5    1    5    5  501    0 -0.36336666115E+02  0.34602246563E+02  0.24837082794E+03  0.25343209533E+03  0.47000000000E+01 0. -1.
        -13    1    6    6    0    0  0.16312062708E+02 -0.59470019424E+02  0.19439536226E+03  0.20394196103E+03  0.00000000000E+00 0.  1.
         14    1    6    6    0    0 -0.39070989547E+02 -0.72500325601E+02  0.59309336151E+03  0.59878424737E+03  0.00000000000E+00 0. -1.
         -5    1    3    3    0  503  0.44533637907E+02  0.11455548258E+03 -0.72098408977E+02  0.14257094399E+03  0.47000000000E+01 0.  1.
         13    1    4    4    0    0  0.42862099960E+02 -0.12793165739E+02 -0.42950308150E+02  0.62012528354E+02  0.00000000000E+00 0. -1.
        -14    1    4    4    0    0 -0.28300144914E+02 -0.43942183795E+01  0.54396426636E+01  0.29151279039E+02  0.00000000000E+00 0.  1.
</event>
<event>
12    1  0.8133495E-002  0.2254848E+03  0.7818608E-02  0.1129866E+00
         21   -1    0    0  503  502  0.00000000000E+00  0.00000000000E+00  0.40603165442E+03  0.40603165442E+03  0.00000000000E+00 0. -1.
         21   -1    0    0  501  503 -0.00000000000E+00 -0.00000000000E+00 -0.13055577515E+03  0.13055577515E+03  0.00000000000E+00 0.  1.
          6    2    1    2  501    0  0.12264980712E+03  0.78245552372E+02  0.19210237922E+03  0.29622075946E+03  0.17227324976E+03 0.  0.
         24    2    3    3    0    0  0.37045949600E+02  0.86524805695E+01  0.15782404949E+03  0.18059935161E+03  0.79122862691E+02 0.  0.
         -6    2    1    2    0  502 -0.12264980712E+03 -0.78245552372E+02  0.83373500054E+02  0.24036667012E+03  0.17221978382E+03 0.  0.
        -24    2    5    5    0    0 -0.97967017019E+01 -0.69261583588E+02  0.67778333509E+02  0.12599082338E+03  0.79916473624E+02 0.  0.
          5    1    3    3  501    0  0.85603857522E+02  0.69593071802E+02  0.34278329723E+02  0.11562140785E+03  0.47000000000E+01 0. -1.
        -11    1    4    4    0    0 -0.12053182286E+02  0.31426863412E+02  0.59155508527E+02  0.68061010397E+02  0.00000000000E+00 0.  1.
         12    1    4    4    0    0  0.49099131885E+02 -0.22774382843E+02  0.98668540966E+02  0.11253834121E+03  0.00000000000E+00 0. -1.
         -5    1    5    5    0  502 -0.11285310542E+03 -0.89839687834E+01  0.15595166545E+02  0.11437584674E+03  0.47000000000E+01 0.  1.
         13    1    6    6    0    0 -0.41824800661E+02 -0.58389164751E+02  0.39919542474E+02  0.82171639767E+02  0.00000000000E+00 0. -1.
        -14    1    6    6    0    0  0.32028098959E+02 -0.10872418838E+02  0.27858791035E+02  0.43819183610E+02  0.00000000000E+00 0.  1.
</event>
<event>
12    1  0.8133495E-002  0.2711680E+03  0.7818608E-02  0.1100659E+00
         21   -1    0    0  503  502  0.00000000000E+00  0.00000000000E+00  0.34275825005E+03  0.34275825005E+03  0.00000000000E+00 0. -1.
         21   -1    0    0  501  503 -0.00000000000E+00 -0.00000000000E+00 -0.66061375950E+03  0.66061375950E+03  0.00000000000E+00 0. -1.
          6    2    1    2  501    0  0.10474177030E+03  0.18156373401E+03 -0.57133215106E+03  0.63241800138E+03  0.17203451307E+03 0.  0.
         24    2    3    3    0    0  0.14118394178E+03  0.11637845003E+03 -0.42680958722E+03  0.46967275701E+03  0.70350734754E+02 0.  0.
         -6    2    1    2    0  502 -0.10474177030E+03 -0.18156373401E+03  0.25347664161E+03  0.37095400817E+03  0.17152329399E+03 0.  0.
        -24    2    5    5    0    0 -0.38834150581E+02 -0.20430929394E+02  0.12733613155E+03  0.15591653855E+03  0.78549108652E+02 0.  0.
          5    1    3    3  501    0 -0.36442171480E+02  0.65185283983E+02 -0.14452256384E+03  0.16274524438E+03  0.47000000000E+01 0. -1.
        -13    1    4    4    0    0  0.35331078553E+02  0.58938487959E+02 -0.99612816990E+02  0.12101546919E+03  0.00000000000E+00 0.  1.
         14    1    4    4    0    0  0.10585286322E+03  0.57439962067E+02 -0.32719677023E+03  0.34865728782E+03  0.00000000000E+00 0. -1.
         -5    1    5    5    0  502 -0.65907619716E+02 -0.16113280461E+03  0.12614051007E+03  0.21503746962E+03  0.47000000000E+01 0.  1.
         13    1    6    6    0    0 -0.39114227967E+02 -0.18810967591E+02  0.18686074335E+02  0.47254044327E+02  0.00000000000E+00 0. -1.
        -14    1    6    6    0    0  0.28007738582E+00 -0.16199618028E+01  0.10865005721E+03  0.10866249423E+03  0.00000000000E+00 0.  1.
</event>
<event>
12    1  0.8133495E-002  0.2417203E+03  0.7818608E-02  0.1118738E+00
         21   -1    0    0  501  502  0.00000000000E+00  0.00000000000E+00  0.14598021645E+03  0.14598021645E+03  0.00000000000E+00 0.  1.
         21   -1    0    0  502  503 -0.00000000000E+00 -0.00000000000E+00 -0.40201128754E+03  0.40201128754E+03  0.00000000000E+00 0.  1.
         -6    2    1    2    0  503 -0.15352070372E+03  0.72898789194E+02 -0.10577307321E+03  0.26337565318E+03  0.17116060217E+03 0.  0.
        -24    2    3    3    0    0 -0.10137297798E+02  0.16248830166E+02 -0.62078889200E+02  0.10306567012E+03  0.80012215225E+02 0.  0.
          6    2    1    2  501    0  0.15352070372E+03 -0.72898789194E+02 -0.15025799788E+03  0.28461585081E+03  0.17188914064E+03 0.  0.
         24    2    5    5    0    0  0.98904949430E+02 -0.96992136525E+02 -0.49380634456E+02  0.16730556800E+03  0.79768680916E+02 0.  0.
          5    1    5    5  501    0  0.54615754290E+02  0.24093347330E+02 -0.10087736342E+03  0.11731028281E+03  0.47000000000E+01 0. -1.
        -13    1    6    6    0    0  0.10485609571E+03 -0.74549479801E+02 -0.59778004443E+02  0.14186555453E+03  0.00000000000E+00 0.  1.
         14    1    6    6    0    0 -0.59511462800E+01 -0.22442656723E+02  0.10397369987E+02  0.25440013473E+02  0.00000000000E+00 0. -1.
         -5    1    3    3    0  503 -0.14338340592E+03  0.56649959029E+02 -0.43694184008E+02  0.16030998306E+03  0.47000000000E+01 0.  1.
         11    1    4    4    0    0  0.15335463031E+01  0.26172452011E+02 -0.77206159924E+02  0.81536127813E+02  0.00000000000E+00 0. -1.
        -12    1    4    4    0    0 -0.11670844101E+02 -0.99236218451E+01  0.15127270724E+02  0.21529542311E+02  0.00000000000E+00 0.  1.
</event>
<event>
12    1  0.8133495E-002  0.1841821E+03  0.7818608E-02  0.1164073E+00
         21   -1    0    0  501  502  0.00000000000E+00  0.00000000000E+00  0.36335885836E+03  0.36335885836E+03  0.00000000000E+00 0. -1.
         21   -1    0    0  502  503 -0.00000000000E+00 -0.00000000000E+00 -0.23375554975E+03  0.23375554975E+03  0.00000000000E+00 0. -1.
         -6    2    1    2    0  503  0.54016425396E+02  0.24628833647E+02 -0.16710772671E+03  0.24788599723E+03  0.17319965830E+03 0.  0.
        -24    2    3    3    0    0 -0.59673267413E+01  0.43193516317E+02 -0.26692302307E+02  0.93998767824E+02  0.78879658402E+02 0.  0.
          6    2    1    2  501    0 -0.54016425396E+02 -0.24628833647E+02  0.29671103532E+03  0.34922841087E+03  0.17435220337E+03 0.  0.
         24    2    5    5    0    0 -0.48169980525E+01  0.50039434479E+02  0.16625238188E+03  0.19099603690E+03  0.79451136914E+02 0.  0.
          5    1    5    5  501    0 -0.49199427344E+02 -0.74668268125E+02  0.13045865344E+03  0.15823237398E+03  0.47000000000E+01 0. -1.
        -13    1    6    6    0    0  0.82723376832E+01  0.33761342339E+02  0.16651704600E+03  0.17010639734E+03  0.00000000000E+00 0.  1.
         14    1    6    6    0    0 -0.13089335736E+02  0.16278092139E+02 -0.26466412239E+00  0.20889639556E+02  0.00000000000E+00 0. -1.
         -5    1    3    3    0  503  0.59983752138E+02 -0.18564682671E+02 -0.14041542441E+03  0.15388722941E+03  0.47000000000E+01 0.  1.
         11    1    4    4    0    0 -0.53514447381E+01  0.64319897011E+02 -0.32241477422E+02  0.72147071864E+02  0.00000000000E+00 0. -1.
        -12    1    4    4    0    0 -0.61588200317E+00 -0.21126380693E+02  0.55491751153E+01  0.21851695959E+02  0.00000000000E+00 0.  1.
</event>
<event>
12    1  0.8133495E-002  0.1935025E+03  0.7818608E-02  0.1155512E+00
         21   -1    0    0  503  502  0.00000000000E+00  0.00000000000E+00  0.65564139791E+02  0.65564139791E+02  0.00000000000E+00 0. -1.
         21   -1    0    0  501  503 -0.00000000000E+00 -0.00000000000E+00 -0.66987533819E+03  0.66987533819E+03  0.00000000000E+00 0. -1.
          6    2    1    2  501    0  0.38344248449E+02 -0.79001205300E+02 -0.44551208731E+03  0.48572033520E+03  0.17242897743E+03 0.  0.
         24    2    3    3    0    0 -0.22394784921E+02 -0.35511839777E+02 -0.10043273813E+03  0.13261638121E+03  0.75747953913E+02 0.  0.
         -6    2    1    2    0  502 -0.38344248449E+02  0.79001205300E+02 -0.15879911109E+03  0.24971914279E+03  0.17155471653E+03 0.  0.
        -24    2    5    5    0    0 -0.42324180816E+02  0.11717174718E+03 -0.97246934152E+02  0.17703083138E+03  0.79764618958E+02 0.  0.
          5    1    3    3  501    0  0.60739033370E+02 -0.43489365523E+02 -0.34507934918E+03  0.35310395398E+03  0.47000000000E+01 0. -1.
        -11    1    4    4    0    0 -0.24239246240E+02 -0.16083046722E+02  0.12121627119E+01  0.29114855119E+02  0.00000000000E+00 0.  1.
         12    1    4    4    0    0  0.18444613190E+01 -0.19428793055E+02 -0.10164490084E+03  0.10350152609E+03  0.00000000000E+00 0. -1.
         -5    1    5    5    0  502  0.39799323669E+01 -0.38170541881E+02 -0.61552176941E+02  0.72688311408E+02  0.47000000000E+01 0.  1.
         13    1    6    6    0    0 -0.23829095365E+02  0.25568684064E+01 -0.42231281395E+02  0.48557640905E+02  0.00000000000E+00 0. -1.
        -14    1    6    6    0    0 -0.18495085451E+02  0.11461487877E+03 -0.55015652757E+02  0.12847319047E+03  0.00000000000E+00 0.  1.
</event>
<event>
12    1  0.8133495E-002  0.1746162E+03  0.7818608E-02  0.1173306E+00
         21   -1    0    0  503  502  0.00000000000E+00  0.00000000000E+00  0.49179634587E+03  0.49179634587E+03  0.00000000000E+00 0.  1.
         21   -1    0    0  501  503 -0.00000000000E+00 -0.00000000000E+00 -0.79506574727E+02  0.79506574727E+02  0.00000000000E+00 0.  1.
          6    2    1    2  501    0  0.15387322191E+02 -0.17895066856E+02  0.71433327396E+02  0.18866245449E+03  0.17301386756E+03 0.  0.
         24    2    3    3    0    0 -0.12855780047E+02 -0.44190010358E+02 -0.15985599189E+02  0.92989806344E+02  0.79205660191E+02 0.  0.
         -6    2    1    2    0  502 -0.15387322191E+02  0.17895066856E+02  0.34085644374E+03  0.38264046611E+03  0.17226029130E+03 0.  0.
        -24    2    5    5    0    0 -0.65897222040E+02  0.45462147977E+02  0.25702133518E+03  0.28084847540E+03  0.80041543114E+02 0.  0.
          5    1    3    3  501    0  0.28243102238E+02  0.26294943503E+02  0.87418926585E+02  0.95672648145E+02  0.47000000000E+01 0. -1.
        -13    1    4    4    0    0 -0.13458874611E+02 -0.44953074239E+02  0.24196631372E+02  0.52795806265E+02  0.00000000000E+00 0.  1.
         14    1    4    4    0    0  0.60309456367E+00  0.76306388131E+00 -0.40182230561E+02  0.40194000079E+02  0.00000000000E+00 0. -1.
         -5    1    5    5    0  502  0.50509899849E+02 -0.27567081121E+02  0.83835108564E+02  0.10179199071E+03  0.47000000000E+01 0.  1.
         13    1    6    6    0    0 -0.30063523000E+02  0.24082092387E+02  0.26919656804E+02  0.46993941220E+02  0.00000000000E+00 0. -1.
        -14    1    6    6    0    0 -0.35833699039E+02  0.21380055590E+02  0.23010167838E+03  0.23385453418E+03  0.00000000000E+00 0.  1.
</event>
<event>
12    1  0.8133495E-002  0.1819047E+03  0.7818608E-02  0.1166067E+00
         21   -1    0    0  501  502  0.00000000000E+00  0.00000000000E+00  0.41586122201E+03  0.41586122201E+03  0.00000000000E+00 0. -1.
         21   -1    0    0  502  503 -0.00000000000E+00 -0.00000000000E+00 -0.79527980984E+02  0.79527980984E+02  0.00000000000E+00 0. -1.
         -6    2    1    2    0  503 -0.40543043647E+02  0.41832668854E+02  0.15787989989E+03  0.24056593318E+03  0.17190751829E+03 0.  0.
        -24    2    3    3    0    0 -0.58719123367E+02  0.94029807223E+01  0.25514226460E+02  0.10299843684E+03  0.80133331041E+02 0.  0.
          6    2    1    2  501    0  0.40543043647E+02 -0.41832668854E+02  0.17845334113E+03  0.25482326982E+03  0.17232409381E+03 0.  0.
         24    2    5    5    0    0  0.72962720044E+01  0.29014096405E+02  0.15298788380E+03  0.17239031833E+03  0.73607580395E+02 0.  0.
          5    1    5    5  501    0  0.33246771643E+02 -0.70846765260E+02  0.25465457337E+02  0.82432951481E+02  0.47000000000E+01 0. -1.
        -13    1    6    6    0    0 -0.17177652688E+02  0.11002120288E+02  0.45845643105E+01  0.20907812718E+02  0.00000000000E+00 0.  1.
         14    1    6    6    0    0  0.24473924693E+02  0.18011976117E+02  0.14840331949E+03  0.15148250562E+03  0.00000000000E+00 0. -1.
         -5    1    3    3    0  503  0.18176079719E+02  0.32429688132E+02  0.13236567343E+03  0.13756749634E+03  0.47000000000E+01 0.  1.
         13    1    4    4    0    0 -0.24611033697E+02 -0.20674946893E+02  0.43506929938E+02  0.54092599876E+02  0.00000000000E+00 0. -1.
        -14    1    4    4    0    0 -0.34108089670E+02  0.30077927615E+02 -0.17992703478E+02  0.48905836962E+02  0.00000000000E+00 0.  1.
</event>
<event>
12    1  0.8133495E-002  0.2183034E+03  0.7818608E-02  0.1135277E+00
         21   -1    0    0  503  502  0.00000000000E+00  0.00000000000E+00  0.24055050700E+04  0.24055050700E+04  0.00000000000E+00 0. -1.
         21   -1    0    0  501  503 -0.00000000000E+00 -0.00000000000E+00 -0.44011672888E+02  0.44011672888E+02  0.00000000000E+00 0.  1.
          6    2    1    2  501    0 -0.11587561480E+02 -0.13351458117E+03  0.27066374355E+03  0.34732146000E+03  0.17150195201E+03 0.  0.
         24    2    3    3    0    0 -0.30105526517E+02 -0.17406183781E+02  0.58735231893E+02  0.10491713037E+03  0.79677216436E+02 0.  0.
         -6    2    1    2    0  502  0.11587561480E+02  0.13351458117E+03  0.20908296536E+04  0.21021952829E+04  0.17232513508E+03 0.  0.
        -24    2    5    5    0    0  0.17582186504E+02  0.12295307661E+02  0.72369723671E+03  0.72967818536E+03  0.90731779898E+02 0.  0.
          5    1    3    3  501    0  0.18517965037E+02 -0.11610839739E+03  0.21192851165E+03  0.24240432963E+03  0.47000000000E+01 0. -1.
        -13    1    4    4    0    0 -0.37072696060E+00 -0.27839555027E+02 -0.97742196493E+01  0.29507857129E+02  0.00000000000E+00 0.  1.
         14    1    4    4    0    0 -0.29734799557E+02  0.10433371246E+02  0.68509451543E+02  0.75409273242E+02  0.00000000000E+00 0. -1.
         -5    1    5    5    0  502 -0.59946250236E+01  0.12121927351E+03  0.13671324168E+04  0.13725170975E+04  0.47000000000E+01 0.  1.
         11    1    6    6    0    0  0.43115366593E+02  0.34803454497E+02  0.54160737417E+03  0.54443435144E+03  0.00000000000E+00 0. -1.
        -12    1    6    6    0    0 -0.25533180089E+02 -0.22508146836E+02  0.18208986255E+03  0.18524383391E+03  0.00000000000E+00 0.  1.
</event>
<event>
12    1  0.8133495E-002  0.2814061E+03  0.7818608E-02  0.1094984E+00
         21   -1    0    0  501  502  0.00000000000E+00  0.00000000000E+00  0.11255865496E+04  0.11255865496E+04  0.00000000000E+00 0. -1.
         21   -1    0    0  502  503 -0.00000000000E+00 -0.00000000000E+00 -0.10435504153E+03  0.10435504153E+03  0.00000000000E+00 0.  1.
         -6    2    1    2    0  503  0.22214345409E+03 -0.23914350481E+02  0.15928371608E+03  0.32335842922E+03  0.17108407636E+03 0.  0.
        -24    2    3    3    0    0  0.50039169107E+02 -0.43233253255E+02  0.80267459365E+02  0.13294108825E+03  0.82809632780E+02 0.  0.
          6    2    1    2  501    0 -0.22214345409E+03  0.23914350481E+02  0.86194779198E+03  0.90658316190E+03  0.17035088195E+03 0.  0.
         24    2    5    5    0    0 -0.72385030751E+02 -0.23567581602E+02  0.22862933389E+03  0.25405233611E+03  0.80474800975E+02 0.  0.
          5    1    5    5  501    0 -0.14975842334E+03  0.47481932083E+02  0.63331845809E+03  0.65253082578E+03  0.47000000000E+01 0. -1.
        -13    1    6    6    0    0 -0.14545446281E+01  0.67611984155E+00 -0.67953840745E+01  0.69821259538E+01  0.00000000000E+00 0.  1.
         14    1    6    6    0    0 -0.70930486123E+02 -0.24243701443E+02  0.23542471796E+03  0.24707021016E+03  0.00000000000E+00 0. -1.
         -5    1    3    3    0  503  0.17210428498E+03  0.19318902774E+02  0.79016256719E+02  0.19041734096E+03  0.47000000000E+01 0.  1.
         13    1    4    4    0    0  0.55194449853E+00  0.14149336946E+02  0.48938072528E+02  0.50945493633E+02  0.00000000000E+00 0. -1.
        -14    1    4    4    0    0  0.49487224609E+02 -0.57382590201E+02  0.31329386837E+02  0.81995594621E+02  0.00000000000E+00 0.  1.
</event>
<event>
12    1  0.8133495E-002  0.2098692E+03  0.7818608E-02  0.1141798E+00
         21   -1    0    0  503  502  0.00000000000E+00  0.00000000000E+00  0.34442748490E+03  0.34442748490E+03  0.00000000000E+00 0. -1.
         21   -1    0    0  501  503 -0.00000000000E+00 -0.00000000000E+00 -0.13058884448E+03  0.13058884448E+03  0.00000000000E+00 0.  1.
          6    2    1    2  501    0 -0.83824346725E+02 -0.86013416505E+02  0.14369686339E+03  0.25434988455E+03  0.17210533490E+03 0.  0.
         24    2    3    3    0    0 -0.88811430212E+02 -0.35622138447E+01  0.50097210675E+02  0.12942568029E+03  0.79631128945E+02 0.  0.
         -6    2    1    2    0  502  0.83824346725E+02  0.86013416505E+02  0.70141777039E+02  0.22066644483E+03  0.17131544608E+03 0.  0.
        -24    2    5    5    0    0 -0.15062853384E+02  0.55955238702E+02  0.66750033740E+02  0.11714945917E+03  0.76880104641E+02 0.  0.
          5    1    3    3  501    0  0.49870834870E+01 -0.82451202660E+02  0.93599652713E+02  0.12492420426E+03  0.47000000000E+01 0. -1.
        -11    1    4    4    0    0 -0.40233257334E+02 -0.11455740440E+02 -0.17887878447E+02  0.45496430410E+02  0.00000000000E+00 0.  1.
         12    1    4    4    0    0 -0.48578172878E+02  0.78935265949E+01  0.67985089122E+02  0.83929249879E+02  0.00000000000E+00 0. -1.
         -5    1    5    5    0  502  0.98887200109E+02  0.30058177803E+02  0.33917432985E+01  0.10351698566E+03  0.47000000000E+01 0.  1.
         11    1    6    6    0    0 -0.17033556619E+02 -0.98785880448E+01  0.42719608587E+02  0.47039276256E+02  0.00000000000E+00 0. -1.
        -12    1    6    6    0    0  0.19707032351E+01  0.65833826746E+02  0.24030425153E+02  0.70110182915E+02  0.00000000000E+00 0.  1.
</event>
<event>
12    1  0.8133495E-002  0.1882727E+03  0.7818608E-02  0.1160254E+00
         21   -1    0    0  503  502  0.00000000000E+00  0.00000000000E+00  0.16373431302E+03  0.16373431302E+03  0.00000000000E+00 0.  1.
         21   -1    0    0  501  503 -0.00000000000E+00 -0.00000000000E+00 -0.23065881056E+03  0.23065881056E+03  0.00000000000E+00 0. -1.
          6    2    1    2  501    0  0.74522503369E+02  0.62123916621E+01 -0.84167763215E+02  0.20533240823E+03  0.17171193374E+03 0.  0.
         24    2    3    3    0    0  0.56701035592E+02 -0.68006331097E+01 -0.12491077028E+03  0.15875960338E+03  0.79628230452E+02 0.  0.
         -6    2    1    2    0  502 -0.74522503369E+02 -0.62123916621E+01  0.17243265671E+02  0.18906071535E+03  0.17278433539E+03 0.  0.
        -24    2    5    5    0    0 -0.51126781588E+02 -0.28794395366E+02  0.73102391887E+02  0.12425609614E+03  0.81563182432E+02 0.  0.
          5    1    3    3  501    0  0.17821467777E+02  0.13013024772E+02  0.40743007065E+02  0.46572804856E+02  0.47000000000E+01 0. -1.
        -13    1    4    4    0    0 -0.10788574009E+02 -0.25504613382E+02 -0.40785508756E+02  0.49298441734E+02  0.00000000000E+00 0.  1.
         14    1    4    4    0    0  0.67489609601E+02  0.18703980272E+02 -0.84125261524E+02  0.10946116164E+03  0.00000000000E+00 0. -1.
         -5    1    5    5    0  502 -0.23395721781E+02  0.22582003704E+02 -0.55859126216E+02  0.64804619207E+02  0.47000000000E+01 0.  1.
         11    1    6    6    0    0 -0.54491113419E+02 -0.37162715550E+02  0.17929256464E+02  0.68350618915E+02  0.00000000000E+00 0. -1.
        -12    1    6    6    0    0  0.33643318305E+01  0.83683201848E+01  0.55173135423E+02  0.55905477225E+02  0.00000000000E+00 0.  1.
</event>
<event>
12    1  0.8133495E-002  0.2106526E+03  0.7818608E-02  0.1141879E+00
         21   -1    0    0  503  502  0.00000000000E+00  0.00000000000E+00  0.83821098205E+02  0.83821098205E+02  0.00000000000E+00 0.  1.
         21   -1    0    0  501  503 -0.00000000000E+00 -0.00000000000E+00 -0.52379024511E+03  0.52379024511E+03  0.00000000000E+00 0.  1.
          6    2    1    2  501    0  0.95128783655E+02  0.75320919636E+02 -0.18873175523E+03  0.27974743387E+03  0.16708149182E+03 0.  0.
         24    2    3    3    0    0  0.12785970432E+03  0.81279896264E+02 -0.16973888831E+03  0.24115155891E+03  0.79926582762E+02 0.  0.
         -6    2    1    2    0  502 -0.95128783655E+02 -0.75320919636E+02 -0.25123739167E+03  0.32786390945E+03  0.17219695040E+03 0.  0.
        -24    2    5    5    0    0 -0.34258810180E+02  0.26200708536E+02 -0.12506996836E+03  0.15479714960E+03  0.80371122530E+02 0.  0.
          5    1    3    3  501    0 -0.32730920667E+02 -0.59589766277E+01 -0.18992866920E+02  0.38595874961E+02  0.47000000000E+01 0. -1.
        -11    1    4    4    0    0  0.49860937612E+02  0.75804202722E+02 -0.71045816483E+02  0.11523844102E+03  0.00000000000E+00 0.  1.
         12    1    4    4    0    0  0.77998766711E+02  0.54756935415E+01 -0.98693071827E+02  0.12591311788E+03  0.00000000000E+00 0. -1.
         -5    1    5    5    0  502 -0.60869973476E+02 -0.10152162817E+03 -0.12616742332E+03  0.17306675985E+03  0.47000000000E+01 0.  1.
         11    1    6    6    0    0  0.51420157394E+01  0.35374645671E+02 -0.10231980362E+03  0.10838426129E+03  0.00000000000E+00 0. -1.
        -12    1    6    6    0    0 -0.39400825919E+02 -0.91739371344E+01 -0.22750164731E+02  0.46412888306E+02  0.00000000000E+00 0.  1.
</event>
<event>
12    1  0.8133495E-002  0.2075679E+03  0.7818608E-02  0.1143541E+00
         21   -1    0    0  501  502  0.00000000000E+00  0.00000000000E+00  0.62900906400E+03  0.62900906400E+03  0.00000000000E+00 0.  1.
         21   -1    0    0  502  503 -0.00000000000E+00 -0.00000000000E+00 -0.11380248291E+03  0.11380248291E+03  0.00000000000E+00 0.  1.
         -6    2    1    2    0  503  0.30416840203E+02  0.11143636533E+03  0.23176605377E+02  0.20885784285E+03  0.17245635911E+03 0.  0.
        -24    2    3    3    0    0  0.81979663352E+02  0.47087034248E+02  0.24430738506E+02  0.12625503423E+03  0.80035109090E+02 0.  0.
          6    2    1    2  501    0 -0.30416840203E+02 -0.11143636533E+03  0.49202997572E+03  0.53395370406E+03  0.17224927688E+03 0.  0.
         24    2    5    5    0    0 -0.43025446057E+02 -0.14086618713E+03  0.45365488829E+03  0.48375580880E+03  0.80761706243E+02 0.  0.
          5    1    5    5  501    0  0.12608605854E+02  0.29429821802E+02  0.38375087431E+02  0.50197895257E+02  0.47000000000E+01 0. -1.
        -13    1    6    6    0    0  0.86675414142E+01 -0.24061224289E+02  0.22451183805E+02  0.34031227464E+02  0.00000000000E+00 0.  1.
         14    1    6    6    0    0 -0.51692987471E+02 -0.11680496284E+03  0.43120370449E+03  0.44972458134E+03  0.00000000000E+00 0. -1.
         -5    1    3    3    0  503 -0.51562823149E+02  0.64349331081E+02 -0.12541331287E+01  0.82602808618E+02  0.47000000000E+01 0.  1.
         13    1    4    4    0    0  0.35569443008E+02  0.30696540116E+01  0.46469408818E+02  0.58600460813E+02  0.00000000000E+00 0. -1.
        -14    1    4    4    0    0  0.46410220344E+02  0.44017380236E+02 -0.22038670311E+02  0.67654573418E+02  0.00000000000E+00 0.  1.
</event>
<event>
12    1  0.8133495E-002  0.2692781E+03  0.7818608E-02  0.1103566E+00
         21   -1    0    0  503  502  0.00000000000E+00  0.00000000000E+00  0.53108154556E+03  0.53108154556E+03  0.00000000000E+00 0. -1.
         21   -1    0    0  501  503 -0.00000000000E+00 -0.00000000000E+00 -0.14390412143E+03  0.14390412143E+03  0.00000000000E+00 0. -1.
          6    2    1    2  501    0  0.11117680589E+03 -0.15565508629E+03  0.93566278694E+02  0.28507072431E+03  0.18953068694E+03 0.  0.
         24    2    3    3    0    0  0.17638552520E+02 -0.12290540895E+03  0.22723878612E+01  0.15024264595E+03  0.84562585296E+02 0.  0.
         -6    2    1    2    0  502 -0.11117680589E+03  0.15565508629E+03  0.29361114543E+03  0.38991494269E+03  0.17098938491E+03 0.  0.
        -24    2    5    5    0    0 -0.12866283473E+03  0.16834922673E+03  0.22938443572E+03  0.32198805076E+03  0.78507950577E+02 0.  0.
          5    1    3    3  501    0  0.93538253370E+02 -0.32749677340E+02  0.91293890833E+02  0.13482807835E+03  0.47000000000E+01 0. -1.
        -11    1    4    4    0    0 -0.19203215293E+02 -0.18717487498E+02  0.25848528146E+02  0.37245861826E+02  0.00000000000E+00 0.  1.
         12    1    4    4    0    0  0.36841767813E+02 -0.10418792145E+03 -0.23576140285E+02  0.11299678413E+03  0.00000000000E+00 0. -1.
         -5    1    5    5    0  502  0.17486028835E+02 -0.12694140437E+02  0.64226709715E+02  0.67926891926E+02  0.47000000000E+01 0.  1.
         13    1    6    6    0    0 -0.37193714719E+02  0.76374657595E+02  0.43832970428E+02  0.95591788528E+02  0.00000000000E+00 0. -1.
        -14    1    6    6    0    0 -0.91469120007E+02  0.91974569132E+02  0.18555146529E+03  0.22639626223E+03  0.00000000000E+00 0.  1.
</event>
<event>
12    1  0.8133495E-002  0.2294280E+03  0.7818608E-02  0.1127631E+00
         21   -1    0    0  501  502  0.00000000000E+00  0.00000000000E+00  0.36621418285E+03  0.36621418285E+03  0.00000000000E+00 0. -1.
         21   -1    0    0  502  503 -0.00000000000E+00 -0.00000000000E+00 -0.19439485952E+03  0.19439485952E+03  0.00000000000E+00 0. -1.
         -6    2    1    2    0  503 -0.13150484773E+03 -0.35622007959E+02 -0.60523910118E+02  0.23408093429E+03  0.18046686032E+03 0.  0.
        -24    2    3    3    0    0 -0.21235627490E+02 -0.46719438556E+02 -0.69682329006E+02  0.12277765251E+03  0.87092291084E+02 0.  0.
          6    2    1    2  501    0  0.13150484773E+03  0.35622007959E+02  0.23234323344E+03  0.32652810808E+03  0.18459353946E+03 0.  0.
         24    2    5    5    0    0  0.33900482448E+02  0.80053580527E+02  0.96123343551E+02  0.15309591624E+03  0.81491373339E+02 0.  0.
          5    1    5    5  501    0  0.97604365284E+02 -0.44431572568E+02  0.13621988989E+03  0.17343219184E+03  0.47000000000E+01 0. -1.
        -13    1    6    6    0    0  0.42134975275E+02  0.44137705280E+02  0.13310499420E+02  0.62455284513E+02  0.00000000000E+00 0.  1.
         14    1    6    6    0    0 -0.82344928270E+01  0.35915875247E+02  0.82812844131E+02  0.90640631727E+02  0.00000000000E+00 0. -1.
         -5    1    3    3    0  503 -0.11026922024E+03  0.11097430597E+02  0.91584188877E+01  0.11130328178E+03  0.47000000000E+01 0.  1.
         11    1    4    4    0    0 -0.21830464087E+02 -0.34871240954E+02 -0.90165022720E+02  0.99107537201E+02  0.00000000000E+00 0. -1.
        -12    1    4    4    0    0  0.59483659667E+00 -0.11848197602E+02  0.20482693714E+02  0.23670115310E+02  0.00000000000E+00 0.  1.
</event>
<event>
12    1  0.8133495E-002  0.1744137E+03  0.7818608E-02  0.1174336E+00
         21   -1    0    0  503  502  0.00000000000E+00  0.00000000000E+00  0.33712023543E+02  0.33712023543E+02  0.00000000000E+00 0. -1.
         21   -1    0    0  501  503 -0.00000000000E+00 -0.00000000000E+00 -0.12435875593E+04  0.12435875593E+04  0.00000000000E+00 0. -1.
          6    2    1    2  501    0  0.30679635412E+02  0.50333730186E+01 -0.95427494210E+03  0.97008287681E+03  0.17162035976E+03 0.  0.
         24    2    3    3    0    0 -0.21481514385E+02 -0.44641306180E+02 -0.68227525144E+03  0.68866809215E+03  0.79435009596E+02 0.  0.
         -6    2    1    2    0  502 -0.30679635412E+02 -0.50333730186E+01 -0.25560059370E+03  0.30721670608E+03  0.16758241591E+03 0.  0.
        -24    2    5    5    0    0  0.29873012788E+02  0.10944177119E+02 -0.21734755398E+03  0.23368242591E+03  0.79720418032E+02 0.  0.
          5    1    3    3  501    0  0.52161149797E+02  0.49674679199E+02 -0.27199969066E+03  0.28141478465E+03  0.47000000000E+01 0. -1.
        -11    1    4    4    0    0  0.11040642917E+02 -0.96631666296E+01 -0.20707895357E+02  0.25378918721E+02  0.00000000000E+00 0.  1.
         12    1    4    4    0    0 -0.32522157303E+02 -0.34978139551E+02 -0.66156735608E+03  0.66328917343E+03  0.00000000000E+00 0. -1.
         -5    1    5    5    0  502 -0.60552648199E+02 -0.15977550138E+02 -0.38253039721E+02  0.73534280171E+02  0.47000000000E+01 0.  1.
         11    1    6    6    0    0  0.83316054199E+01  0.37616845777E+01  0.48358214125E+01  0.10341715934E+02  0.00000000000E+00 0. -1.
        -12    1    6    6    0    0  0.21541407368E+02  0.71824925414E+01 -0.22218337539E+03  0.22334070998E+03  0.00000000000E+00 0.  1.
</event>
<event>
12    1  0.8133495E-002  0.1769859E+03  0.7818608E-02  0.1171365E+00
         21   -1    0    0  501  502  0.00000000000E+00  0.00000000000E+00  0.88220738531E+03  0.88220738531E+03  0.00000000000E+00 0. -1.
         21   -1    0    0  502  503 -0.00000000000E+00 -0.00000000000E+00 -0.41784875047E+02  0.41784875047E+02  0.00000000000E+00 0. -1.
         -6    2    1    2    0  503 -0.12659020569E+02  0.25483243469E+02  0.23671650996E+03  0.29556505095E+03  0.17468356179E+03 0.  0.
        -24    2    3    3    0    0  0.13545978243E+02  0.15015669055E+02  0.31442709897E+02  0.88307493628E+02  0.80003784795E+02 0.  0.
          6    2    1    2  501    0  0.12659020569E+02 -0.25483243469E+02  0.60370600031E+03  0.62842720940E+03  0.17219226526E+03 0.  0.
         24    2    5    5    0    0  0.56315099167E+02 -0.53197962066E+01  0.53814821637E+03  0.54698808589E+03  0.79954816601E+02 0.  0.
          5    1    5    5  501    0 -0.43656078599E+02 -0.20163447263E+02  0.65557783937E+02  0.81439123515E+02  0.47000000000E+01 0. -1.
        -13    1    6    6    0    0  0.93212269429E+01  0.12985018249E+02  0.16737111076E+02  0.23143613759E+02  0.00000000000E+00 0.  1.
         14    1    6    6    0    0  0.46993872224E+02 -0.18304814455E+02  0.52141110529E+03  0.52384447213E+03  0.00000000000E+00 0. -1.
         -5    1    3    3    0  503 -0.26204998811E+02  0.10467574415E+02  0.20527380006E+03  0.20725755733E+03  0.47000000000E+01 0.  1.
         13    1    4    4    0    0 -0.25466732492E+02  0.31097645288E+02  0.12883263875E+02  0.42208962251E+02  0.00000000000E+00 0. -1.
        -14    1    4    4    0    0  0.39012710735E+02 -0.16081976233E+02  0.18559446022E+02  0.46098531377E+02  0.00000000000E+00 0.  1.
</event>
<event>
12    1  0.8133495E-002  0.2043124E+03  0.7818608E-02  0.1146215E+00
         21   -1    0    0  503  502  0.00000000000E+00  0.00000000000E+00  0.13836219130E+03  0.13836219130E+03  0.00000000000E+00 0. -1.
         21   -1    0    0  501  503 -0.00000000000E+00 -0.00000000000E+00 -0.36785269196E+03  0.36785269196E+03  0.00000000000E+00 0.  1.
          6    2    1    2  501    0 -0.97694133571E+02 -0.47757184592E+02 -0.22238509107E+03  0.30177901446E+03  0.17259939869E+03 0.  0.
         24    2    3    3    0    0 -0.28002548337E+02 -0.40968606768E+02 -0.21341464434E+03  0.23102902679E+03  0.73253200252E+02 0.  0.
         -6    2    1    2    0  502  0.97694133571E+02  0.47757184592E+02 -0.71054095964E+01  0.20443586879E+03  0.17297007021E+03 0.  0.
        -24    2    5    5    0    0  0.51071194941E+02  0.58039330476E+02  0.56562737926E+02  0.12471671213E+03  0.79862908335E+02 0.  0.
          5    1    3    3  501    0 -0.69691585235E+02 -0.67885778245E+01 -0.89704467288E+01  0.70749987675E+02  0.47000000000E+01 0. -1.
        -11    1    4    4    0    0 -0.21549960313E+02  0.12216677488E+02 -0.25195963465E+02  0.35333901189E+02  0.00000000000E+00 0.  1.
         12    1    4    4    0    0 -0.64525880232E+01 -0.53185284256E+02 -0.18821868087E+03  0.19569512560E+03  0.00000000000E+00 0. -1.
         -5    1    5    5    0  502  0.46622938631E+02 -0.10282145883E+02 -0.63668147523E+02  0.79719156666E+02  0.47000000000E+01 0.  1.
         13    1    6    6    0    0 -0.21059882110E+02  0.21324018385E+02  0.19015348886E+02  0.35493885217E+02  0.00000000000E+00 0. -1.
        -14    1    6    6    0    0  0.72131077050E+02  0.36715312091E+02  0.37547389040E+02  0.89222826911E+02  0.00000000000E+00 0.  1.
</event>
<event>
12    1  0.8133495E-002  0.1921736E+03  0.7818608E-02  0.1156694E+00
         21   -1    0    0  503  502  0.00000000000E+00  0.00000000000E+00  0.13950612202E+04  0.13950612202E+04  0.00000000000E+00 0. -1.
         21   -1    0    0  501  503 -0.00000000000E+00 -0.00000000000E+00 -0.61848607793E+02  0.61848607793E+02  0.00000000000E+00 0. -1.
          6    2    1    2  501    0  0.83029555846E+02 -0.10398267861E+02  0.11541619234E+03  0.22416868474E+03  0.17299904810E+03 0.  0.
         24    2    3    3    0    0  0.11085649693E+03  0.28091720832E+02  0.10636409981E+03  0.17559041533E+03  0.80251881835E+02 0.  0.
         -6    2    1    2    0  502 -0.83029555846E+02  0.10398267861E+02  0.12177964201E+04  0.12327411433E+04  0.17210628817E+03 0.  0.
        -24    2    5    5    0    0  0.11427273455E+02 -0.29893239145E+02  0.65681797297E+03  0.66242157823E+03  0.79801687758E+02 0.  0.
          5    1    3    3  501    0 -0.27826941081E+02 -0.38489988693E+02  0.90520925359E+01  0.48578269409E+02  0.47000000000E+01 0. -1.
        -11    1    4    4    0    0  0.18837240063E+02 -0.16156267717E+02  0.57021874455E+02  0.62188107915E+02  0.00000000000E+00 0.  1.
         12    1    4    4    0    0  0.92019256865E+02  0.44247988549E+02  0.49342225351E+02  0.11340230742E+03  0.00000000000E+00 0. -1.
         -5    1    5    5    0  502 -0.94456829302E+02  0.40291507006E+02  0.56097844712E+03  0.57031956504E+03  0.47000000000E+01 0.  1.
         13    1    6    6    0    0 -0.24856988450E+01 -0.27884259432E+02  0.69374978021E+02  0.74810415039E+02  0.00000000000E+00 0. -1.
        -14    1    6    6    0    0  0.13912972300E+02 -0.20089797127E+01  0.58744299494E+03  0.58761116319E+03  0.00000000000E+00 0.  1.
</event>
<event>
12    1  0.8133495E-002  0.1852721E+03  0.7818608E-02  0.1163792E+00
         21   -1    0    0  503  502  0.00000000000E+00  0.00000000000E+00  0.55313482439E+02  0.55313482439E+02  0.00000000000E+00 0.  1.
         21   -1    0    0  501  503 -0.00000000000E+00 -0.00000000000E+00 -0.10271831694E+04  0.10271831694E+04  0.00000000000E+00 0.  1.
          6    2    1    2  501    0 -0.56546620451E+02  0.24886611720E+02 -0.83560530420E+03  0.85589835212E+03  0.17466797364E+03 0.  0.
         24    2    3    3    0    0 -0.11725013172E+02 -0.49580236225E+02 -0.33811857210E+03  0.35085436736E+03  0.78606249985E+02 0.  0.
         -6    2    1    2    0  502  0.56546620451E+02 -0.24886611720E+02 -0.13626438275E+03  0.22659829971E+03  0.17018208983E+03 0.  0.
        -24    2    5    5    0    0 -0.66572279450E+01 -0.57282330937E+02 -0.37874451994E+02  0.10516157730E+03  0.79365604046E+02 0.  0.
          5    1    3    3  501    0 -0.44821607279E+02  0.74466847945E+02 -0.49748673211E+03  0.50504398476E+03  0.47000000000E+01 0. -1.
        -11    1    4    4    0    0 -0.24136667037E+02 -0.48912926343E+02 -0.33295805021E+03  0.33739608217E+03  0.00000000000E+00 0.  1.
         12    1    4    4    0    0  0.12411653865E+02 -0.66730988254E+00 -0.51605218859E+01  0.13458285191E+02  0.00000000000E+00 0. -1.
         -5    1    5    5    0  502  0.63203848396E+02  0.32395719217E+02 -0.98389930755E+02  0.12143672241E+03  0.47000000000E+01 0.  1.
         11    1    6    6    0    0  0.19820579234E+02 -0.35523635380E+02 -0.53736731606E+02  0.67397480335E+02  0.00000000000E+00 0. -1.
        -12    1    6    6    0    0 -0.26477807179E+02 -0.21758695557E+02  0.15862279612E+02  0.37764096969E+02  0.00000000000E+00 0.  1.
</event>
<event>
12    1  0.8133495E-002  0.3570325E+03  0.7818608E-02  0.1060017E+00
         21   -1    0    0  501  502  0.00000000000E+00  0.00000000000E+00  0.69977429807E+03  0.69977429807E+03  0.00000000000E+00 0.  1.
         21   -1    0    0  502  503 -0.00000000000E+00 -0.00000000000E+00 -0.29584226031E+03  0.29584226031E+03  0.00000000000E+00 0. -1.
         -6    2    1    2    0  503 -0.70868099947E+02 -0.30320252222E+03 -0.10877848895E+03  0.37084118326E+03  0.16951804173E+03 0.  0.
        -24    2    3    3    0    0 -0.31054256619E+02 -0.17428072446E+03 -0.13016926521E+03  0.23414580160E+03  0.80883131920E+02 0.  0.
          6    2    1    2  501    0  0.70868099947E+02  0.30320252222E+03  0.51271052670E+03  0.62477537512E+03  0.17469438486E+03 0.  0.
         24    2    5    5    0    0  0.11106408659E+02  0.65752896743E+02  0.95268291255E+02  0.14079821211E+03  0.79380687018E+02 0.  0.
          5    1    5    5  501    0  0.59761691288E+02  0.23744962547E+03  0.41744223544E+03  0.48397716301E+03  0.47000000000E+01 0. -1.
        -11    1    6    6    0    0 -0.68414036273E+01  0.13225118115E+02  0.82508358431E+02  0.83841146007E+02  0.00000000000E+00 0.  1.
         12    1    6    6    0    0  0.17947812286E+02  0.52527778628E+02  0.12759932824E+02  0.56957066104E+02  0.00000000000E+00 0. -1.
         -5    1    3    3    0  503 -0.39813843328E+02 -0.12892179775E+03  0.21390776264E+02  0.13669538166E+03  0.47000000000E+01 0.  1.
         13    1    4    4    0    0 -0.48881272868E+02 -0.16626919862E+03 -0.10635277946E+03  0.20333651651E+03  0.00000000000E+00 0. -1.
        -14    1    4    4    0    0  0.17827016250E+02 -0.80115258466E+01 -0.23816485745E+02  0.30809285094E+02  0.00000000000E+00 0.  1.
</event>
<event>
12    1  0.8133495E-002  0.2001712E+03  0.7818608E-02  0.1149827E+00
         21   -1    0    0  501  502  0.00000000000E+00  0.00000000000E+00  0.42900182720E+03  0.42900182720E+03  0.00000000000E+00 0. -1.
         21   -1    0    0  502  503 -0.00000000000E+00 -0.00000000000E+00 -0.28669119607E+03  0.28669119607E+03  0.00000000000E+00 0. -1.
         -6    2    1    2    0  503  0.96726780244E+02 -0.32127141178E+02 -0.22312616575E+03  0.29902462934E+03  0.17100356690E+03 0.  0.
        -24    2    3    3    0    0  0.11990297939E+03 -0.55211285269E+02 -0.13569456836E+03  0.20555598146E+03  0.80095163030E+02 0.  0.
          6    2    1    2  501    0 -0.96726780244E+02  0.32127141178E+02  0.36543679688E+03  0.41666839392E+03  0.17227964116E+03 0.  0.
         24    2    5    5    0    0 -0.21486892849E+02 -0.42503532681E+02  0.18669899236E+03  0.20882212645E+03  0.80510433433E+02 0.  0.
          5    1    5    5  501    0 -0.75239887395E+02  0.74630673859E+02  0.17873780452E+03  0.20784626747E+03  0.47000000000E+01 0. -1.
        -13    1    6    6    0    0  0.21306058151E+02 -0.27068408842E+02  0.30087424877E+02  0.45737293393E+02  0.00000000000E+00 0.  1.
         14    1    6    6    0    0 -0.42792951000E+02 -0.15435123840E+02  0.15661156748E+03  0.16308483306E+03  0.00000000000E+00 0. -1.
         -5    1    3    3    0  503 -0.23176199151E+02  0.23084144091E+02 -0.87431597391E+02  0.93468647887E+02  0.47000000000E+01 0.  1.
         13    1    4    4    0    0  0.11281963923E+03 -0.15416255264E+02 -0.96619472939E+02  0.14933604546E+03  0.00000000000E+00 0. -1.
        -14    1    4    4    0    0  0.70833401610E+01 -0.39795030005E+02 -0.39075095424E+02  0.56219935995E+02  0.00000000000E+00 0.  1.
</event>
<event>
12    1  0.8133495E-002  0.2182175E+03  0.7818608E-02  0.1135227E+00
         21   -1    0    0  503  502  0.00000000000E+00  0.00000000000E+00  0.10500366870E+04  0.10500366870E+04  0.00000000000E+00 0. -1.
         21   -1    0    0  501  503 -0.00000000000E+00 -0.00000000000E+00 -0.50975125330E+02  0.50975125330E+02  0.00000000000E+00 0.  1.
          6    2    1    2  501    0  0.73967426270E+02  0.11214356487E+03  0.31646729560E+03  0.38438512068E+03  0.17190989653E+03 0.  0.
         24    2    3    3    0    0  0.90912672673E+02  0.38614514856E+02  0.26344108374E+03  0.29204048513E+03  0.78295884569E+02 0.  0.
         -6    2    1    2    0  502 -0.73967426270E+02 -0.11214356487E+03  0.68259426609E+03  0.71662669167E+03  0.17196372822E+03 0.  0.
        -24    2    5    5    0    0 -0.93548648008E+02 -0.13263234721E+03  0.49864720798E+03  0.53044982782E+03  0.79908026725E+02 0.  0.
          5    1    3    3  501    0 -0.16945246403E+02  0.73529050013E+02  0.53026211861E+02  0.92344635556E+02  0.47000000000E+01 0. -1.
        -13    1    4    4    0    0  0.12084221181E+02 -0.22941197462E+02  0.49722308435E+02  0.56077044311E+02  0.00000000000E+00 0.  1.
         14    1    4    4    0    0  0.78828451492E+02  0.61555712318E+02  0.21371877531E+03  0.23596344082E+03  0.00000000000E+00 0. -1.
         -5    1    5    5    0  502  0.19581221738E+02  0.20488782341E+02  0.18394705810E+03  0.18617686384E+03  0.47000000000E+01 0.  1.
         13    1    6    6    0    0 -0.84460044761E+02 -0.75133738046E+02  0.40231838424E+03  0.41789790625E+03  0.00000000000E+00 0. -1.
        -14    1    6    6    0    0 -0.90886032469E+01 -0.57498609164E+02  0.96328823748E+02  0.11255192157E+03  0.00000000000E+00 0.  1.
</event>
<event>
12    1  0.8133495E-002  0.1917314E+03  0.7818608E-02  0.1157157E+00
         21   -1    0    0  501  502  0.00000000000E+00  0.00000000000E+00  0.11164510770E+04  0.11164510770E+04  0.00000000000E+00 0. -1.
         21   -1    0    0  502  503 -0.00000000000E+00 -0.00000000000E+00 -0.43897913333E+02  0.43897913333E+02  0.00000000000E+00 0.  1.
         -6    2    1    2    0  503  0.56707820425E+02 -0.63443271390E+02  0.24256023244E+03  0.30849854749E+03  0.17057274654E+03 0.  0.
        -24    2    3    3    0    0  0.68569406072E+02  0.21767266015E+02  0.13901096274E+03  0.17379118261E+03  0.75523175719E+02 0.  0.
          6    2    1    2  501    0 -0.56707820425E+02  0.63443271390E+02  0.82999293120E+03  0.85185044281E+03  0.17181410157E+03 0.  0.
         24    2    5    5    0    0 -0.73381005020E+02  0.96901123557E+02  0.53546274057E+03  0.55492023865E+03  0.80259112092E+02 0.  0.
          5    1    5    5  501    0  0.16673184596E+02 -0.33457852168E+02  0.29453019062E+03  0.29693020416E+03  0.47000000000E+01 0. -1.
        -13    1    6    6    0    0 -0.37917057192E+02  0.60776950369E+02  0.15090065271E+03  0.16704055768E+03  0.00000000000E+00 0.  1.
         14    1    6    6    0    0 -0.35463947828E+02  0.36124173189E+02  0.38456208787E+03  0.38787968097E+03  0.00000000000E+00 0. -1.
         -5    1    3    3    0  503 -0.11861585648E+02 -0.85210537405E+02  0.10354926970E+03  0.13470736488E+03  0.47000000000E+01 0.  1.
         13    1    4    4    0    0  0.28854283868E+02  0.41289803412E+02  0.36714569804E+02  0.62332793930E+02  0.00000000000E+00 0. -1.
        -14    1    4    4    0    0  0.39715122205E+02 -0.19522537397E+02  0.10229639294E+03  0.11145838868E+03  0.00000000000E+00 0.  1.
</event>
<event>
12    1  0.8133495E-002  0.1988498E+03  0.7818608E-02  0.1151059E+00
         21   -1    0    0  501  502  0.00000000000E+00  0.00000000000E+00  0.95118167588E+02  0.95118167588E+02  0.00000000000E+00 0. -1.
         21   -1    0    0  502  503 -0.00000000000E+00 -0.00000000000E+00 -0.41351199591E+03  0.41351199591E+03  0.00000000000E+00 0.  1.
         -6    2    1    2    0  503  0.84159084504E+02 -0.51352214225E+02 -0.17219331814E+03  0.26181882194E+03  0.17081790099E+03 0.  0.
        -24    2    3    3    0    0  0.15879183486E+02  0.32534366230E+02 -0.62454928465E+02  0.10766400550E+03  0.79876695829E+02 0.  0.
          6    2    1    2  501    0 -0.84159084504E+02  0.51352214225E+02 -0.14620051018E+03  0.24681134155E+03  0.17268887553E+03 0.  0.
         24    2    5    5    0    0 -0.68596359278E+02 -0.28022813244E+02 -0.46469775476E+02  0.11831658350E+03  0.79678324096E+02 0.  0.
          5    1    5    5  501    0 -0.15562725226E+02  0.79375027469E+02 -0.99730734701E+02  0.12849475805E+03  0.47000000000E+01 0. -1.
        -13    1    6    6    0    0 -0.52627665177E+01 -0.34961359069E+02 -0.41341883355E+02  0.54398020724E+02  0.00000000000E+00 0.  1.
         14    1    6    6    0    0 -0.63333592760E+02  0.69385458250E+01 -0.51278921212E+01  0.63918562779E+02  0.00000000000E+00 0. -1.
         -5    1    3    3    0  503  0.68279901018E+02 -0.83886580455E+02 -0.10973838968E+03  0.15415481644E+03  0.47000000000E+01 0.  1.
         11    1    4    4    0    0  0.81404435045E+01 -0.16623999713E+02  0.90046225034E+01  0.20584154424E+02  0.00000000000E+00 0. -1.
        -12    1    4    4    0    0  0.77387399818E+01  0.49158365944E+02 -0.71459550969E+02  0.87079851076E+02  0.00000000000E+00 0.  1.
</event>
<event>
12    1  0.8133495E-002  0.1884585E+03  0.7818608E-02  0.1159882E+00
         21   -1    0    0  503  502  0.00000000000E+00  0.00000000000E+00  0.18012041727E+03  0.18012041727E+03  0.00000000000E+00 0.  1.
         21   -1    0    0  501  503 -0.00000000000E+00 -0.00000000000E+00 -0.23337123593E+03  0.23337123593E+03  0.00000000000E+00 0.  1.
          6    2    1    2  501    0 -0.62203067792E+02 -0.49268998570E+02 -0.10815237470E+03  0.21719900032E+03  0.17082685305E+03 0.  0.
         24    2    3    3    0    0  0.21313792217E+02 -0.48759223118E+02 -0.28363547251E+02  0.10159764754E+03  0.81767056911E+02 0.  0.
         -6    2    1    2    0  502  0.62203067792E+02  0.49268998570E+02  0.54901556047E+02  0.19629265288E+03  0.17093849437E+03 0.  0.
        -24    2    5    5    0    0  0.65307724441E+02  0.20270112098E+02  0.97719670923E+02  0.14427289442E+03  0.81176090455E+02 0.  0.
          5    1    3    3  501    0 -0.83516860009E+02 -0.50977545160E+00 -0.79788827453E+02  0.11560135277E+03  0.47000000000E+01 0. -1.
        -13    1    4    4    0    0  0.13992578307E+02 -0.66873895173E+02 -0.14469953073E+01  0.68337426779E+02  0.00000000000E+00 0.  1.
         14    1    4    4    0    0  0.73212139098E+01  0.18114672055E+02 -0.26916551944E+02  0.33260220765E+02  0.00000000000E+00 0. -1.
         -5    1    5    5    0  502 -0.31046566485E+01  0.28998886472E+02 -0.42818114876E+02  0.52019758468E+02  0.47000000000E+01 0.  1.
         11    1    6    6    0    0  0.14723725028E+02 -0.23597196417E+02  0.25785166796E+01  0.27933215098E+02  0.00000000000E+00 0. -1.
        -12    1    6    6    0    0  0.50583999413E+02  0.43867308515E+02  0.95141154243E+02  0.11633967932E+03  0.00000000000E+00 0.  1.
</event>
<event>
12    1  0.8133495E-002  0.2882151E+03  0.7818608E-02  0.1091866E+00
         21   -1    0    0  503  502  0.00000000000E+00  0.00000000000E+00  0.45375994216E+03  0.45375994216E+03  0.00000000000E+00 0. -1.
         21   -1    0    0  501  503 -0.00000000000E+00 -0.00000000000E+00 -0.34656831978E+03  0.34656831978E+03  0.00000000000E+00 0.  1.
          6    2    1    2  501    0 -0.23705233885E+02 -0.22998550495E+03 -0.22378873780E+03  0.36144790135E+03  0.16464481657E+03 0.  0.
         24    2    3    3    0    0  0.48331921831E+02 -0.11165652475E+03 -0.11313535521E+03  0.18408567189E+03  0.79276552720E+02 0.  0.
         -6    2    1    2    0  502  0.23705233885E+02  0.22998550495E+03  0.33098036018E+03  0.43888036058E+03  0.17208341431E+03 0.  0.
        -24    2    5    5    0    0 -0.15069392506E+02  0.22645477302E+03  0.31503840595E+03  0.39654628891E+03  0.80566191483E+02 0.  0.
          5    1    3    3  501    0 -0.72037155716E+02 -0.11832898020E+03 -0.11065338260E+03  0.17736222946E+03  0.47000000000E+01 0. -1.
        -13    1    4    4    0    0  0.22716007611E+02 -0.99220905299E+02 -0.11730153178E+03  0.15530761220E+03  0.00000000000E+00 0.  1.
         14    1    4    4    0    0  0.25615914219E+02 -0.12435619450E+02  0.41661765700E+01  0.28778059692E+02  0.00000000000E+00 0. -1.
         -5    1    5    5    0  502  0.38774626391E+02  0.35307319268E+01  0.15941954232E+02  0.42334071673E+02  0.47000000000E+01 0.  1.
         13    1    6    6    0    0 -0.74525752548E+01  0.22450003931E+03  0.27183497831E+03  0.35263304434E+03  0.00000000000E+00 0. -1.
        -14    1    6    6    0    0 -0.76168172509E+01  0.19547337137E+01  0.43203427639E+02  0.43913244570E+02  0.00000000000E+00 0.  1.
</event>
<event>
12    1  0.8133495E-002  0.1780345E+03  0.7818608E-02  0.1170330E+00
         21   -1    0    0  501  502  0.00000000000E+00  0.00000000000E+00  0.17811408449E+02  0.17811408449E+02  0.00000000000E+00 0.  1.
         21   -1    0    0  502  503 -0.00000000000E+00 -0.00000000000E+00 -0.17751093017E+04  0.17751093017E+04  0.00000000000E+00 0.  1.
         -6    2    1    2    0  503 -0.31823055253E+02 -0.96451726913E+01 -0.98031172931E+03  0.99634701152E+03  0.17490152814E+03 0.  0.
        -24    2    3    3    0    0 -0.69009504222E+02 -0.50512805605E+02 -0.51234719511E+03  0.52510833455E+03  0.76975707033E+02 0.  0.
          6    2    1    2  501    0  0.31823055253E+02  0.96451726913E+01 -0.77698616398E+03  0.79657369866E+03  0.17238451841E+03 0.  0.
         24    2    5    5    0    0  0.48486513540E+02  0.54052403806E+02 -0.67869309829E+03  0.68733410062E+03  0.80816086656E+02 0.  0.
          5    1    5    5  501    0 -0.16663458287E+02 -0.44407231115E+02 -0.98293065689E+02  0.10923959804E+03  0.47000000000E+01 0. -1.
        -11    1    6    6    0    0  0.40841822946E+02  0.29408208879E+02 -0.15416952980E+03  0.16217626574E+03  0.00000000000E+00 0.  1.
         12    1    6    6    0    0  0.76446905945E+01  0.24644194927E+02 -0.52452356849E+03  0.52515783488E+03  0.00000000000E+00 0. -1.
         -5    1    3    3    0  503  0.37186448969E+02  0.40867632914E+02 -0.46796453420E+03  0.47123867697E+03  0.47000000000E+01 0.  1.
         13    1    4    4    0    0  0.71237054614E+01  0.76884753075E+01 -0.14794427937E+03  0.14831510250E+03  0.00000000000E+00 0. -1.
        -14    1    4    4    0    0 -0.76133209684E+02 -0.58201280912E+02 -0.36440291574E+03  0.37679323205E+03  0.00000000000E+00 0.  1.
</event>
<event>
12    1  0.8133495E-002  0.2075747E+03  0.7818608E-02  0.1143773E+00
         21   -1    0    0  503  502  0.00000000000E+00  0.00000000000E+00  0.68622739706E+03  0.68622739706E+03  0.00000000000E+00 0.  1.
         21   -1    0    0  501  503 -0.00000000000E+00 -0.00000000000E+00 -0.70151034117E+02  0.70151034117E+02  0.00000000000E+00 0.  1.
          6    2    1    2  501    0 -0.62075396489E+02 -0.96527575570E+02  0.43300274278E+03  0.47960555622E+03  0.17134522637E+03 0.  0.
         24    2    3    3    0    0 -0.77772048652E+02 -0.12120315391E+03  0.41203482489E+03  0.44331488749E+03  0.77567367347E+02 0.  0.
         -6    2    1    2    0  502  0.62075396489E+02  0.96527575570E+02  0.18307362016E+03  0.27677287497E+03  0.17296342452E+03 0.  0.
        -24    2    5    5    0    0  0.44610984146E+02  0.23599666183E+01  0.14916069657E+03  0.17506387506E+03  0.80017108190E+02 0.  0.
          5    1    3    3  501    0  0.15696652163E+02  0.24675578344E+02  0.20967917888E+02  0.36290668722E+02  0.47000000000E+01 0. -1.
        -11    1    4    4    0    0 -0.16890543408E+02 -0.68397105582E+02  0.10931464439E+03  0.13005055166E+03  0.00000000000E+00 0.  1.
         12    1    4    4    0    0 -0.60881505245E+02 -0.52806048331E+02  0.30272018050E+03  0.31326433583E+03  0.00000000000E+00 0. -1.
         -5    1    5    5    0  502  0.17464412343E+02  0.94167608951E+02  0.33912923597E+02  0.10170899990E+03  0.47000000000E+01 0.  1.
         11    1    6    6    0    0  0.30321145158E+02 -0.11418247666E+02  0.91695679851E+01  0.33672380380E+02  0.00000000000E+00 0. -1.
        -12    1    6    6    0    0  0.14289838988E+02  0.13778214284E+02  0.13999112858E+03  0.14139149468E+03  0.00000000000E+00 0.  1.
</event>
<event>
12    1  0.8133495E-002  0.2427760E+03  0.7818608E-02  0.1118045E+00
         21   -1    0    0  501  502  0.00000000000E+00  0.00000000000E+00  0.97695796018E+02  0.97695796018E+02  0.00000000000E+00 0.  1.
         21   -1    0    0  502  503 -0.00000000000E+00 -0.00000000000E+00 -0.80344917155E+03  0.80344917155E+03  0.00000000000E+00 0. -1.
         -6    2    1    2    0  503  0.42680231315E+02  0.16604357667E+03 -0.57879172347E+03  0.62764644546E+03  0.17189569466E+03 0.  0.
        -24    2    3    3    0    0  0.44357818052E+02  0.69109570421E+02 -0.46081868097E+03  0.47487621072E+03  0.80061289220E+02 0.  0.
          6    2    1    2  501    0 -0.42680231315E+02 -0.16604357667E+03 -0.12696165206E+03  0.27349852211E+03  0.17114353333E+03 0.  0.
         24    2    5    5    0    0 -0.15503876340E+01 -0.49105859072E+02  0.16630482760E+01  0.94801859084E+02  0.81060703544E+02 0.  0.
          5    1    5    5  501    0 -0.41129843681E+02 -0.11693771760E+03 -0.12862470034E+03  0.17869666303E+03  0.47000000000E+01 0. -1.
        -11    1    6    6    0    0 -0.36512793092E+02 -0.43757404866E+02 -0.93621604957E+01  0.57754173781E+02  0.00000000000E+00 0.  1.
         12    1    6    6    0    0  0.34962405458E+02 -0.53484542060E+01  0.11025208772E+02  0.37047685302E+02  0.00000000000E+00 0. -1.
         -5    1    3    3    0  503 -0.16775867370E+01  0.96934006253E+02 -0.11797304250E+03  0.15277023474E+03  0.47000000000E+01 0.  1.
         11    1    4    4    0    0  0.23204899766E+02  0.83716351637E+02 -0.38938186549E+03  0.39895505019E+03  0.00000000000E+00 0. -1.
        -12    1    4    4    0    0  0.21152918286E+02 -0.14606781216E+02 -0.71436815486E+02  0.75921160531E+02  0.00000000000E+00 0.  1.
</event>
<event>
12    1  0.8133495E-002  0.1923236E+03  0.7818608E-02  0.1156454E+00
         21   -1    0    0  503  502  0.00000000000E+00  0.00000000000E+00  0.31462154283E+03  0.31462154283E+03  0.00000000000E+00 0. -1.
         21   -1    0    0  501  503 -0.00000000000E+00 -0.00000000000E+00 -0.15111323039E+03  0.15111323039E+03  0.00000000000E+00 0. -1.
          6    2    1    2  501    0 -0.81323182863E+02 -0.31315872965E+02 -0.28236228992E+02  0.19438527865E+03  0.17144739123E+03 0.  0.
         24    2    3    3    0    0 -0.75674269693E+02  0.37047906881E+02 -0.10481536747E+02  0.12337235228E+03  0.89508280047E+02 0.  0.
         -6    2    1    2    0  502  0.81323182863E+02  0.31315872965E+02  0.19174454143E+03  0.27134949458E+03  0.17108604580E+03 0.  0.
        -24    2    5    5    0    0  0.11997883966E+02 -0.16119583087E+02  0.16260725465E+03  0.18231472025E+03  0.79960914065E+02 0.  0.
          5    1    3    3  501    0 -0.56489131699E+01 -0.68363779846E+02 -0.17754692245E+02  0.71012926370E+02  0.47000000000E+01 0. -1.
        -13    1    4    4    0    0 -0.15859773567E+02 -0.19777701828E+02  0.23098580012E+02  0.34296272476E+02  0.00000000000E+00 0.  1.
         14    1    4    4    0    0 -0.59814496126E+02  0.56825608709E+02 -0.33580116759E+02  0.89076079805E+02  0.00000000000E+00 0. -1.
         -5    1    5    5    0  502  0.69325298897E+02  0.47435456052E+02  0.29137286786E+02  0.89034774326E+02  0.47000000000E+01 0.  1.
         11    1    6    6    0    0  0.21693493310E+02  0.16039787192E+02  0.13816313691E+03  0.14077263521E+03  0.00000000000E+00 0. -1.
        -12    1    6    6    0    0 -0.96956093435E+01 -0.32159370279E+02  0.24444117741E+02  0.41542085039E+02  0.00000000000E+00 0.  1.
</event>
<event>
12    1  0.8133495E-002  0.1752410E+03  0.7818608E-02  0.1172959E+00
         21   -1    0    0  503  502  0.00000000000E+00  0.00000000000E+00  0.10114149119E+03  0.10114149119E+03  0.00000000000E+00 0. -1.
         21   -1    0    0  501  503 -0.00000000000E+00 -0.00000000000E+00 -0.14021350574E+04  0.14021350574E+04  0.00000000000E+00 0. -1.
          6    2    1    2  501    0  0.13640843379E+02 -0.17691954349E+02 -0.13160206620E+04  0.13273924055E+04  0.17193352619E+03 0.  0.
         24    2    3    3    0    0  0.64860745127E+02 -0.46955541785E+02 -0.97486968845E+03  0.98114695403E+03  0.76594365266E+02 0.  0.
         -6    2    1    2    0  502 -0.13640843379E+02  0.17691954349E+02  0.15027095844E+02  0.17588414306E+03  0.17381122034E+03 0.  0.
        -24    2    5    5    0    0 -0.64877722873E+02 -0.23711771009E+02 -0.56398337178E+01  0.10668372203E+03  0.81106361105E+02 0.  0.
          5    1    3    3  501    0 -0.51219901748E+02  0.29263587436E+02 -0.34115097360E+03  0.34624545148E+03  0.47000000000E+01 0. -1.
        -13    1    4    4    0    0  0.75433645099E+02 -0.20209485800E+02 -0.81300623564E+03  0.81674830720E+03  0.00000000000E+00 0.  1.
         14    1    4    4    0    0 -0.10572899972E+02 -0.26746055986E+02 -0.16186345281E+03  0.16439864683E+03  0.00000000000E+00 0. -1.
         -5    1    5    5    0  502  0.51236879494E+02  0.41403725359E+02  0.20666929562E+02  0.69200421035E+02  0.47000000000E+01 0.  1.
         11    1    6    6    0    0 -0.52306562652E+02  0.17941095789E+02  0.16713928288E+02  0.57768631743E+02  0.00000000000E+00 0. -1.
        -12    1    6    6    0    0 -0.12571160221E+02 -0.41652866798E+02 -0.22353762006E+02  0.48915090285E+02  0.00000000000E+00 0.  1.
</event>
<event>
12    1  0.8133495E-002  0.1759844E+03  0.7818608E-02  0.1171963E+00
         21   -1    0    0  503  502  0.00000000000E+00  0.00000000000E+00  0.34500719051E+03  0.34500719051E+03  0.00000000000E+00 0.  1.
         21   -1    0    0  501  503 -0.00000000000E+00 -0.00000000000E+00 -0.12356498627E+03  0.12356498627E+03  0.00000000000E+00 0.  1.
          6    2    1    2  501    0 -0.14651950348E+02 -0.29241379622E+02 -0.12407732668E+02  0.17642122006E+03  0.17291835393E+03 0.  0.
         24    2    3    3    0    0 -0.99561150317E+01 -0.80755781888E+02 -0.33307401675E+02  0.12043309030E+03  0.82305076981E+02 0.  0.
         -6    2    1    2    0  502  0.14651950348E+02  0.29241379622E+02  0.23384993690E+03  0.29215095672E+03  0.17203677104E+03 0.  0.
        -24    2    5    5    0    0 -0.54825384948E+02  0.31704433328E+02  0.10952429686E+03  0.14963035637E+03  0.79891664245E+02 0.  0.
          5    1    3    3  501    0 -0.46958353163E+01  0.51514402266E+02  0.20899669007E+02  0.55988129766E+02  0.47000000000E+01 0. -1.
        -13    1    4    4    0    0  0.11774516158E+02 -0.75609157652E+01  0.22056273697E+02  0.26120602738E+02  0.00000000000E+00 0.  1.
         14    1    4    4    0    0 -0.21730631190E+02 -0.73194866123E+02 -0.55363675372E+02  0.94312487558E+02  0.00000000000E+00 0. -1.
         -5    1    5    5    0  502  0.69477335296E+02 -0.24630537064E+01  0.12432564004E+03  0.14252060035E+03  0.47000000000E+01 0.  1.
         11    1    6    6    0    0 -0.19838788601E+02  0.40560267770E+02  0.10366024628E+03  0.11306705760E+03  0.00000000000E+00 0. -1.
        -12    1    6    6    0    0 -0.34986596347E+02 -0.88558344414E+01  0.58640505803E+01  0.36563298768E+02  0.00000000000E+00 0.  1.
</event>
<event>
12    1  0.8133495E-002  0.2160305E+03  0.7818608E-02  0.1137195E+00
         21   -1    0    0  501  502  0.00000000000E+00  0.00000000000E+00  0.14479491976E+03  0.14479491976E+03  0.00000000000E+00 0.  1.
         21   -1    0    0  502  503 -0.00000000000E+00 -0.00000000000E+00 -0.39976308657E+03  0.39976308657E+03  0.00000000000E+00 0. -1.
         -6    2    1    2    0  503 -0.11838175318E+03 -0.55247812421E+02 -0.24882896807E+03  0.32844025790E+03  0.16997231361E+03 0.  0.
        -24    2    3    3    0    0 -0.58929416492E+02 -0.42204581580E+02 -0.46083223050E+02  0.11670307804E+03  0.79006595572E+02 0.  0.
          6    2    1    2  501    0  0.11838175318E+03  0.55247812421E+02 -0.61391987427E+01  0.21611774843E+03  0.17205415183E+03 0.  0.
         24    2    5    5    0    0  0.91938485955E+02  0.57709526784E+00 -0.59180021701E+02  0.13534923603E+03  0.79775450400E+02 0.  0.
          5    1    5    5  501    0  0.26443267222E+02  0.54670717153E+02  0.53040822958E+02  0.80768512401E+02  0.47000000000E+01 0. -1.
        -11    1    6    6    0    0  0.80167342398E+02  0.28504121283E+02 -0.22969880791E+02  0.88130035407E+02  0.00000000000E+00 0.  1.
         12    1    6    6    0    0  0.11771143557E+02 -0.27927026016E+02 -0.36210140910E+02  0.47219200622E+02  0.00000000000E+00 0. -1.
         -5    1    3    3    0  503 -0.59452336685E+02 -0.13043230842E+02 -0.20274574502E+03  0.21173717985E+03  0.47000000000E+01 0.  1.
         13    1    4    4    0    0 -0.69141889846E+02 -0.33741130525E+02 -0.59934495543E+02  0.97525425283E+02  0.00000000000E+00 0. -1.
        -14    1    4    4    0    0  0.10212473354E+02 -0.84634510549E+01  0.13851272493E+02  0.19177652761E+02  0.00000000000E+00 0.  1.
</event>
<event>
12    1  0.8133495E-002  0.1850175E+03  0.7818608E-02  0.1163247E+00
         21   -1    0    0  501  502  0.00000000000E+00  0.00000000000E+00  0.11376594434E+03  0.11376594434E+03  0.00000000000E+00 0. -1.
         21   -1    0    0  502  503 -0.00000000000E+00 -0.00000000000E+00 -0.30105364029E+03  0.30105364029E+03  0.00000000000E+00 0. -1.
         -6    2    1    2    0  503 -0.56929395244E+02 -0.34564883358E+02 -0.78103389187E+02  0.19998783643E+03  0.17163714084E+03 0.  0.
        -24    2    3    3    0    0 -0.72741275639E+02 -0.35396641409E+02  0.64421575263E+01  0.11384407954E+03  0.79842079430E+02 0.  0.
          6    2    1    2  501    0  0.56929395244E+02  0.34564883358E+02 -0.10918430676E+03  0.21483174819E+03  0.17261454163E+03 0.  0.
         24    2    5    5    0    0  0.13216610285E+02 -0.95494664950E+01 -0.12496860559E+03  0.15058132001E+03  0.82411834446E+02 0.  0.
          5    1    5    5  501    0  0.43712784960E+02  0.44114349853E+02  0.15784298822E+02  0.64250428179E+02  0.47000000000E+01 0. -1.
        -11    1    6    6    0    0  0.32784679563E+02 -0.33039558635E+02 -0.10270943553E+03  0.11276380535E+03  0.00000000000E+00 0.  1.
         12    1    6    6    0    0 -0.19568069278E+02  0.23490092140E+02 -0.22259170053E+02  0.37817514665E+02  0.00000000000E+00 0. -1.
         -5    1    3    3    0  503  0.15811880395E+02  0.83175805074E+00 -0.84545546713E+02  0.86143756896E+02  0.47000000000E+01 0.  1.
         13    1    4    4    0    0 -0.40210831733E+02 -0.59357933802E+02 -0.49490190635E+01  0.71866320927E+02  0.00000000000E+00 0. -1.
        -14    1    4    4    0    0 -0.32530443906E+02  0.23961292393E+02  0.11391176590E+02  0.41977758611E+02  0.00000000000E+00 0.  1.
</event>
<event>
12    1  0.8133495E-002  0.1920207E+03  0.7818608E-02  0.1159670E+00
         21   -1    0    0  501  502  0.00000000000E+00  0.00000000000E+00  0.48142883371E+03  0.48142883371E+03  0.00000000000E+00 0. -1.
         21   -1    0    0  502  503 -0.00000000000E+00 -0.00000000000E+00 -0.87966372263E+02  0.87966372263E+02  0.00000000000E+00 0. -1.
         -6    2    1    2    0  503 -0.33104554999E+02  0.36017682617E+02  0.79114222524E+02  0.20768007010E+03  0.18568458818E+03 0.  0.
        -24    2    3    3    0    0  0.17529277207E+02  0.86303764296E+02  0.35472118116E+02  0.12389941451E+03  0.79606397111E+02 0.  0.
          6    2    1    2  501    0  0.33104554999E+02 -0.36017682617E+02  0.31434823893E+03  0.36171513587E+03  0.17213320186E+03 0.  0.
         24    2    5    5    0    0  0.96723518876E+01 -0.24166386047E+02  0.57920632586E+02  0.10390371513E+03  0.82241192433E+02 0.  0.
          5    1    5    5  501    0  0.23432203112E+02 -0.11851296570E+02  0.25642760634E+03  0.25781142074E+03  0.47000000000E+01 0. -1.
        -13    1    6    6    0    0  0.18389593031E+01  0.28971038495E+02  0.35089651914E+02  0.45541042086E+02  0.00000000000E+00 0.  1.
         14    1    6    6    0    0  0.78333925845E+01 -0.53137424542E+02  0.22830980672E+02  0.58362673043E+02  0.00000000000E+00 0. -1.
         -5    1    3    3    0  503 -0.50633832206E+02 -0.50286081679E+02  0.43642104408E+02  0.83780655593E+02  0.47000000000E+01 0.  1.
         13    1    4    4    0    0 -0.11335640797E+02  0.47640481986E+02  0.53374252088E+02  0.72435647730E+02  0.00000000000E+00 0. -1.
        -14    1    4    4    0    0  0.28864918003E+02  0.38663282310E+02 -0.17902133972E+02  0.51463766779E+02  0.00000000000E+00 0.  1.
</event>
<event>
12    1  0.8133495E-002  0.1922880E+03  0.7818608E-02  0.1156852E+00
         21   -1    0    0  501  502  0.00000000000E+00  0.00000000000E+00  0.76173928359E+03  0.76173928359E+03  0.00000000000E+00 0.  1.
         21   -1    0    0  502  503 -0.00000000000E+00 -0.00000000000E+00 -0.33169095305E+03  0.33169095305E+03  0.00000000000E+00 0. -1.
         -6    2    1    2    0  503 -0.76092235036E+02  0.44254067477E+02 -0.29038639436E+03  0.34827995538E+03  0.17095677398E+03 0.  0.
        -24    2    3    3    0    0 -0.11562186278E+03  0.30573874065E+02 -0.26047394374E+03  0.29664097917E+03  0.76459258617E+02 0.  0.
          6    2    1    2  501    0  0.76092235036E+02 -0.44254067477E+02  0.72043472489E+03  0.74515028126E+03  0.16874329058E+03 0.  0.
         24    2    5    5    0    0  0.73392744244E+02 -0.77455693622E+02  0.67884376415E+03  0.69165698034E+03  0.78578896230E+02 0.  0.
          5    1    5    5  501    0  0.26994907925E+01  0.33201626145E+02  0.41590960739E+02  0.53493300930E+02  0.47000000000E+01 0. -1.
        -11    1    6    6    0    0 -0.84963050089E+01  0.78399139539E+01  0.11307034897E+03  0.11365982257E+03  0.00000000000E+00 0.  1.
         12    1    6    6    0    0  0.81889049252E+02 -0.85295607576E+02  0.56577341518E+03  0.57799715777E+03  0.00000000000E+00 0. -1.
         -5    1    3    3    0  503  0.39529627748E+02  0.13680193412E+02 -0.29912450622E+02  0.51638976209E+02  0.47000000000E+01 0.  1.
         11    1    4    4    0    0 -0.42516737819E+02  0.25572348134E+02 -0.18463587027E+03  0.19118583257E+03  0.00000000000E+00 0. -1.
        -12    1    4    4    0    0 -0.73105124965E+02  0.50015259307E+01 -0.75838073463E+02  0.10545514660E+03  0.00000000000E+00 0.  1.
</event>
<event>
12    1  0.8133495E-002  0.2202969E+03  0.7818608E-02  0.1133867E+00
         21   -1    0    0  501  502  0.00000000000E+00  0.00000000000E+00  0.50587262040E+02  0.50587262040E+02  0.00000000000E+00 0. -1.
         21   -1    0    0  502  503 -0.00000000000E+00 -0.00000000000E+00 -0.17484416954E+04  0.17484416954E+04  0.00000000000E+00 0.  1.
         -6    2    1    2    0  503 -0.65539148160E+02 -0.12530426935E+03 -0.14562102037E+04  0.14727793114E+04  0.16892070030E+03 0.  0.
        -24    2    3    3    0    0 -0.33704105481E+02 -0.30937958496E+02 -0.31714466109E+03  0.32935862292E+03  0.76179015711E+02 0.  0.
          6    2    1    2  501    0  0.65539148160E+02  0.12530426935E+03 -0.24164422966E+03  0.32624964599E+03  0.16748241080E+03 0.  0.
         24    2    5    5    0    0  0.36970052653E+02  0.15413625217E+03 -0.20728213287E+03  0.27286125637E+03  0.79765992711E+02 0.  0.
          5    1    5    5  501    0  0.28569095508E+02 -0.28831982820E+02 -0.34362096786E+02  0.53388389627E+02  0.47000000000E+01 0. -1.
        -11    1    6    6    0    0 -0.99940113188E+01  0.11657871676E+03 -0.12921747353E+03  0.17432048912E+03  0.00000000000E+00 0.  1.
         12    1    6    6    0    0  0.46964063971E+02  0.37557535411E+02 -0.78064659340E+02  0.98540767243E+02  0.00000000000E+00 0. -1.
         -5    1    3    3    0  503 -0.31835042679E+02 -0.94366310853E+02 -0.11390655426E+04  0.11434206885E+04  0.47000000000E+01 0.  1.
         11    1    4    4    0    0 -0.29011563098E+02  0.18790545482E+02 -0.18256948853E+03  0.18581273781E+03  0.00000000000E+00 0. -1.
        -12    1    4    4    0    0 -0.46925423833E+01 -0.49728503977E+02 -0.13457517256E+03  0.14354588511E+03  0.00000000000E+00 0.  1.
</event>
<event>
12    1  0.8133495E-002  0.2412091E+03  0.7818608E-02  0.1119936E+00
         21   -1    0    0  501  502  0.00000000000E+00  0.00000000000E+00  0.11430221891E+03  0.11430221891E+03  0.00000000000E+00 0. -1.
         21   -1    0    0  502  503 -0.00000000000E+00 -0.00000000000E+00 -0.51702767156E+03  0.51702767156E+03  0.00000000000E+00 0.  1.
         -6    2    1    2    0  503  0.10200866527E+03 -0.13583149943E+03 -0.26551731085E+03  0.35872174018E+03  0.17124800871E+03 0.  0.
        -24    2    3    3    0    0  0.22566120811E+02 -0.25713366155E+02 -0.17537712794E+03  0.19567431235E+03  0.79755203603E+02 0.  0.
          6    2    1    2  501    0 -0.10200866527E+03  0.13583149943E+03 -0.13720814180E+03  0.27260815029E+03  0.16319670769E+03 0.  0.
         24    2    5    5    0    0 -0.47621091264E+01  0.83900831999E+02 -0.10784489567E+03  0.15842418852E+03  0.80035458976E+02 0.  0.
          5    1    5    5  501    0 -0.97246556142E+02  0.51930667428E+02 -0.29363246128E+02  0.11418396176E+03  0.47000000000E+01 0. -1.
        -11    1    6    6    0    0  0.50774511340E+01  0.95880086783E+02 -0.10566060778E+03  0.14276881868E+03  0.00000000000E+00 0.  1.
         12    1    6    6    0    0 -0.98395602604E+01 -0.11979254785E+02 -0.21842878938E+01  0.15655369843E+02  0.00000000000E+00 0. -1.
         -5    1    3    3    0  503  0.79442544458E+02 -0.11011813327E+03 -0.90140182915E+02  0.16304742783E+03  0.47000000000E+01 0.  1.
         13    1    4    4    0    0  0.16279635569E+02 -0.41519556486E+02 -0.42144191795E+02  0.61359864790E+02  0.00000000000E+00 0. -1.
        -14    1    4    4    0    0  0.62864852413E+01  0.15806190331E+02 -0.13323293614E+03  0.13431444756E+03  0.00000000000E+00 0.  1.
</event>
<event>
12    1  0.8133495E-002  0.1958101E+03  0.7818608E-02  0.1153360E+00
         21   -1    0    0  503  502  0.00000000000E+00  0.00000000000E+00  0.24611501498E+03  0.24611501498E+03  0.00000000000E+00 0.  1.
         21   -1    0    0  501  503 -0.00000000000E+00 -0.00000000000E+00 -0.17334005827E+03  0.17334005827E+03  0.00000000000E+00 0.  1.
          6    2    1    2  501    0 -0.80382015971E+02 -0.47976495074E+02 -0.30592608870E+02  0.19818553344E+03  0.17198425909E+03 0.  0.
         24    2    3    3    0    0 -0.67695080260E+02 -0.69062846342E+02  0.32229512836E+02  0.13055195063E+03  0.81564512378E+02 0.  0.
         -6    2    1    2    0  502  0.80382015971E+02  0.47976495074E+02  0.10336756558E+03  0.22126953982E+03  0.17179156868E+03 0.  0.
        -24    2    5    5    0    0  0.52552593690E+02  0.80262632403E+02  0.12129429114E+03  0.17479020143E+03  0.81458235857E+02 0.  0.
          5    1    3    3  501    0 -0.12686935711E+02  0.21086351268E+02 -0.62822121707E+02  0.67633582807E+02  0.47000000000E+01 0. -1.
        -11    1    4    4    0    0 -0.42432130643E+02 -0.14894447117E+02  0.50913177765E+02  0.67929978183E+02  0.00000000000E+00 0.  1.
         12    1    4    4    0    0 -0.25262949617E+02 -0.54168399225E+02 -0.18683664929E+02  0.62621972447E+02  0.00000000000E+00 0. -1.
         -5    1    5    5    0  502  0.27829422281E+02 -0.32286137329E+02 -0.17926725559E+02  0.46479338393E+02  0.47000000000E+01 0.  1.
         11    1    6    6    0    0  0.18987782454E+02  0.43391401719E+02  0.11520214008E+03  0.12455875202E+03  0.00000000000E+00 0. -1.
        -12    1    6    6    0    0  0.33564811236E+02  0.36871230684E+02  0.60921510616E+01  0.50231449412E+02  0.00000000000E+00 0.  1.
</event>
<event>
12    1  0.8133495E-002  0.2226547E+03  0.7818608E-02  0.1131953E+00
         21   -1    0    0  503  502  0.00000000000E+00  0.00000000000E+00  0.38874527142E+03  0.38874527142E+03  0.00000000000E+00 0. -1.
         21   -1    0    0  501  503 -0.00000000000E+00 -0.00000000000E+00 -0.35249633658E+03  0.35249633658E+03  0.00000000000E+00 0.  1.
          6    2    1    2  501    0  0.10567012974E+03  0.93610994371E+02 -0.27802625850E+03  0.35619339687E+03  0.17217996683E+03 0.  0.
         24    2    3    3    0    0  0.52423779849E+02  0.10464735736E+03 -0.26433716321E+03  0.29992212165E+03  0.79873782347E+02 0.  0.
         -6    2    1    2    0  502 -0.10567012974E+03 -0.93610994371E+02  0.31427519334E+03  0.38504821113E+03  0.17194194705E+03 0.  0.
        -24    2    5    5    0    0 -0.57119964079E+02 -0.11502700084E+03  0.15809974232E+03  0.22003722537E+03  0.83228305328E+02 0.  0.
          5    1    3    3  501    0  0.53246349896E+02 -0.11036362989E+02 -0.13689095285E+02  0.56271275221E+02  0.47000000000E+01 0. -1.
        -11    1    4    4    0    0  0.67874517662E+02  0.64674705863E+02 -0.14075569780E+03  0.16912106371E+03  0.00000000000E+00 0.  1.
         12    1    4    4    0    0 -0.15450737813E+02  0.39972651498E+02 -0.12358146541E+03  0.13080105795E+03  0.00000000000E+00 0. -1.
         -5    1    5    5    0  502 -0.48550165665E+02  0.21416006469E+02  0.15617545102E+03  0.16501098576E+03  0.47000000000E+01 0.  1.
         11    1    6    6    0    0 -0.36233381918E+02 -0.87453997917E+02  0.15943578936E+03  0.18542068559E+03  0.00000000000E+00 0. -1.
        -12    1    6    6    0    0 -0.20886582161E+02 -0.27573002923E+02 -0.13360470369E+01  0.34616539779E+02  0.00000000000E+00 0.  1.
</event>
<event>
12    1  0.8133495E-002  0.1894836E+03  0.7818608E-02  0.1159054E+00
         21   -1    0    0  503  502  0.00000000000E+00  0.00000000000E+00  0.78269809445E+03  0.78269809445E+03  0.00000000000E+00 0.  1.
         21   -1    0    0  501  503 -0.00000000000E+00 -0.00000000000E+00 -0.11884241815E+03  0.11884241815E+03  0.00000000000E+00 0.  1.
          6    2    1    2  501    0 -0.79235860621E+02  0.85111688330E+01 -0.21427883894E+02  0.19069132789E+03  0.17191063586E+03 0.  0.
         24    2    3    3    0    0 -0.68875104775E+02 -0.56112336362E+02 -0.15898402844E+02  0.12484143916E+03  0.86256891715E+02 0.  0.
         -6    2    1    2    0  502  0.79235860621E+02 -0.85111688330E+01  0.68528356020E+03  0.71084918471E+03  0.17129577904E+03 0.  0.
        -24    2    5    5    0    0  0.12005659175E+03  0.38667794109E+01  0.50221993617E+03  0.52282278727E+03  0.81794042531E+02 0.  0.
          5    1    3    3  501    0 -0.10360755846E+02  0.64623505195E+02 -0.55294810491E+01  0.65849888732E+02  0.47000000000E+01 0. -1.
        -13    1    4    4    0    0 -0.13889904636E+00 -0.53669393140E+02  0.22198425168E+01  0.53715461031E+02  0.00000000000E+00 0.  1.
         14    1    4    4    0    0 -0.68736205729E+02 -0.24429432216E+01 -0.18118245361E+02  0.71125978127E+02  0.00000000000E+00 0. -1.
         -5    1    5    5    0  502 -0.40820731125E+02 -0.12377948244E+02  0.18306362402E+03  0.18802639744E+03  0.47000000000E+01 0.  1.
         13    1    6    6    0    0  0.20559398999E+02 -0.29820516426E+02  0.81483974755E+02  0.89171689616E+02  0.00000000000E+00 0. -1.
        -14    1    6    6    0    0  0.99497192747E+02  0.33687295837E+02  0.42073596142E+03  0.43365109765E+03  0.00000000000E+00 0.  1.
</event>
<event>
12    1  0.8133495E-002  0.1897073E+03  0.7818608E-02  0.1160662E+00
         21   -1    0    0  503  502  0.00000000000E+00  0.00000000000E+00  0.30842451856E+02  0.30842451856E+02  0.00000000000E+00 0. -1.
         21   -1    0    0  501  503 -0.00000000000E+00 -0.00000000000E+00 -0.14349573163E+04  0.14349573163E+04  0.00000000000E+00 0. -1.
          6    2    1    2  501    0  0.50860537880E+02  0.16484360008E+02 -0.10598453749E+04  0.10766898671E+04  0.18201736993E+03 0.  0.
         24    2    3    3    0    0  0.25309435257E+02  0.23838088991E+02 -0.22401841443E+03  0.24042690972E+03  0.80075132933E+02 0.  0.
         -6    2    1    2    0  502 -0.50860537880E+02 -0.16484360008E+02 -0.34426948957E+03  0.38910990100E+03  0.17328157770E+03 0.  0.
        -24    2    5    5    0    0 -0.31029161684E+02 -0.71953265612E+02 -0.28210327326E+03  0.30333804419E+03  0.79319801818E+02 0.  0.
          5    1    3    3  501    0  0.25551102623E+02 -0.73537289824E+01 -0.83582696043E+03  0.83626295742E+03  0.47000000000E+01 0. -1.
        -13    1    4    4    0    0 -0.14271132668E+02  0.41071172157E+02 -0.97783858245E+02  0.10701490243E+03  0.00000000000E+00 0.  1.
         14    1    4    4    0    0  0.39580567925E+02 -0.17233083166E+02 -0.12623455619E+03  0.13341200729E+03  0.00000000000E+00 0. -1.
         -5    1    5    5    0  502 -0.19831376196E+02  0.55468905604E+02 -0.62166216312E+02  0.85771856814E+02  0.47000000000E+01 0.  1.
         11    1    6    6    0    0 -0.40947836544E+02 -0.24171915608E+01 -0.94595045261E+02  0.10310572594E+03  0.00000000000E+00 0. -1.
        -12    1    6    6    0    0  0.99186748599E+01 -0.69536074051E+02 -0.18750822800E+03  0.20023231825E+03  0.00000000000E+00 0.  1.
</event>
<event>
12    1  0.8133495E-002  0.1795341E+03  0.7818608E-02  0.1169994E+00
         21   -1    0    0  501  502  0.00000000000E+00  0.00000000000E+00  0.55460011788E+02  0.55460011788E+02  0.00000000000E+00 0. -1.
         21   -1    0    0  502  503 -0.00000000000E+00 -0.00000000000E+00 -0.71782185325E+03  0.71782185325E+03  0.00000000000E+00 0. -1.
         -6    2    1    2    0  503 -0.33803070377E+02  0.36106328267E+02 -0.50805667355E+03  0.53654872218E+03  0.16527744318E+03 0.  0.
        -24    2    3    3    0    0  0.19213442069E+02 -0.34932678156E+01 -0.41154935560E+03  0.41943923913E+03  0.78581447890E+02 0.  0.
          6    2    1    2  501    0  0.33803070377E+02 -0.36106328267E+02 -0.15430516791E+03  0.23673314286E+03  0.17258673638E+03 0.  0.
         24    2    5    5    0    0 -0.16956154704E+02 -0.23959706242E+02 -0.16215075388E+03  0.18374557284E+03  0.81289543280E+02 0.  0.
          5    1    5    5  501    0  0.50759225081E+02 -0.12146622025E+02  0.78455859738E+01  0.52987570021E+02  0.47000000000E+01 0. -1.
        -13    1    6    6    0    0 -0.17570595191E+02  0.13535138635E+02 -0.13655177699E+03  0.13834129388E+03  0.00000000000E+00 0.  1.
         14    1    6    6    0    0  0.61444048763E+00 -0.37494844877E+02 -0.25598976889E+02  0.45404278953E+02  0.00000000000E+00 0. -1.
         -5    1    3    3    0  503 -0.53016512446E+02  0.39599596082E+02 -0.96507317959E+02  0.11710948306E+03  0.47000000000E+01 0.  1.
         11    1    4    4    0    0 -0.25907127815E+02  0.13422962469E+02 -0.99456418316E+02  0.10364812751E+03  0.00000000000E+00 0. -1.
        -12    1    4    4    0    0  0.45120569884E+02 -0.16916230285E+02 -0.31209293728E+03  0.31579111161E+03  0.00000000000E+00 0.  1.
</event>
<event>
12    1  0.8133495E-002  0.2943821E+03  0.7818608E-02  0.1088162E+00
         21   -1    0    0  503  502  0.00000000000E+00  0.00000000000E+00  0.18038189459E+03  0.18038189459E+03  0.00000000000E+00 0.  1.
         21   -1    0    0  501  503 -0.00000000000E+00 -0.00000000000E+00 -0.66352496873E+03  0.66352496873E+03  0.00000000000E+00 0. -1.
          6    2    1    2  501    0  0.13539443321E+03 -0.19662275387E+03 -0.46401741740E+03  0.54952068113E+03  0.17224591566E+03 0.  0.
         24    2    3    3    0    0  0.65329378261E+02 -0.11562125792E+03 -0.14090635644E+03  0.20908977480E+03  0.78915966039E+02 0.  0.
         -6    2    1    2    0  502 -0.13539443321E+03  0.19662275387E+03 -0.19125656747E+02  0.29438618219E+03  0.17118783144E+03 0.  0.
        -24    2    5    5    0    0 -0.14348490768E+03  0.11179786291E+03 -0.48293470772E+02  0.20419987902E+03  0.79237935294E+02 0.  0.
          5    1    3    3  501    0  0.70065054945E+02 -0.81001495952E+02 -0.32311106096E+03  0.34043090633E+03  0.47000000000E+01 0. -1.
        -13    1    4    4    0    0 -0.70876931979E+01 -0.55714205664E+01 -0.45620078864E+02  0.46502340990E+02  0.00000000000E+00 0.  1.
         14    1    4    4    0    0  0.72417071459E+02 -0.11004983735E+03 -0.95286277574E+02  0.16258743381E+03  0.00000000000E+00 0. -1.
         -5    1    5    5    0  502  0.80904744726E+01  0.84824890963E+02  0.29167814025E+02  0.90186303168E+02  0.47000000000E+01 0.  1.
         13    1    6    6    0    0 -0.38995519972E+01  0.41919822288E+02 -0.64727905951E+01  0.42595481268E+02  0.00000000000E+00 0. -1.
        -14    1    6    6    0    0 -0.13958535568E+03  0.69878040619E+02 -0.41820680177E+02  0.16160439775E+03  0.00000000000E+00 0.  1.
</event>
<event>
12    1  0.8133495E-002  0.2605802E+03  0.7818608E-02  0.1106956E+00
         21   -1    0    0  503  502  0.00000000000E+00  0.00000000000E+00  0.10756777653E+03  0.10756777653E+03  0.00000000000E+00 0.  1.
         21   -1    0    0  501  503 -0.00000000000E+00 -0.00000000000E+00 -0.87784537997E+03  0.87784537997E+03  0.00000000000E+00 0. -1.
          6    2    1    2  501    0  0.10403461619E+03 -0.16611574072E+03 -0.64707817086E+03  0.69717687020E+03  0.17008171111E+03 0.  0.
         24    2    3    3    0    0 -0.67104848854E+01 -0.83507496728E+02 -0.37222618438E+03  0.38951747434E+03  0.78441047043E+02 0.  0.
         -6    2    1    2    0  502 -0.10403461619E+03  0.16611574072E+03 -0.12319943258E+03  0.28823628630E+03  0.17171026723E+03 0.  0.
        -24    2    5    5    0    0 -0.10011512568E+03  0.14989716309E+03 -0.15595087134E+03  0.25118022867E+03  0.79237838867E+02 0.  0.
          5    1    3    3  501    0  0.11074510107E+03 -0.82608243990E+02 -0.27485198648E+03  0.30765939586E+03  0.47000000000E+01 0. -1.
        -13    1    4    4    0    0 -0.17372906032E+02 -0.38463990759E+02 -0.57073772081E+02  0.70983884852E+02  0.00000000000E+00 0.  1.
         14    1    4    4    0    0  0.10662421147E+02 -0.45043505969E+02 -0.31515241230E+03  0.31853358949E+03  0.00000000000E+00 0. -1.
         -5    1    5    5    0  502 -0.39194905095E+01  0.16218577630E+02  0.32751438763E+02  0.37056057632E+02  0.47000000000E+01 0.  1.
         13    1    6    6    0    0 -0.82042467672E+02  0.15255775975E+03 -0.15570076500E+03  0.23291106625E+03  0.00000000000E+00 0. -1.
        -14    1    6    6    0    0 -0.18072658007E+02 -0.26605966615E+01 -0.25010634140E+00  0.18269162412E+02  0.00000000000E+00 0.  1.
</event>
<event>
12    1  0.8133495E-002  0.2425202E+03  0.7818608E-02  0.1118183E+00
         21   -1    0    0  501  502  0.00000000000E+00  0.00000000000E+00  0.14592960770E+03  0.14592960770E+03  0.00000000000E+00 0.  1.
         21   -1    0    0  502  503 -0.00000000000E+00 -0.00000000000E+00 -0.41772356964E+03  0.41772356964E+03  0.00000000000E+00 0.  1.
         -6    2    1    2    0  503  0.42394985394E+02 -0.16508149967E+03 -0.18967611173E+03  0.30760746333E+03  0.17203513541E+03 0.  0.
        -24    2    3    3    0    0 -0.15100285250E+02 -0.16559549514E+03 -0.15238779724E+03  0.23891627951E+03  0.78797596658E+02 0.  0.
          6    2    1    2  501    0 -0.42394985394E+02  0.16508149967E+03 -0.82117850206E+02  0.25604571401E+03  0.17253066401E+03 0.  0.
         24    2    5    5    0    0 -0.26343834753E+02  0.19197219375E+03 -0.78888895486E+02  0.22421389011E+03  0.80629336370E+02 0.  0.
          5    1    5    5  501    0 -0.16051150641E+02 -0.26890694076E+02 -0.32289547205E+01  0.31831823909E+02  0.47000000000E+01 0. -1.
        -13    1    6    6    0    0 -0.29123934922E+02  0.53947460842E+02  0.68732675034E+01  0.61690954951E+02  0.00000000000E+00 0.  1.
         14    1    6    6    0    0  0.27801001685E+01  0.13802473291E+03 -0.85762162989E+02  0.16252293515E+03  0.00000000000E+00 0. -1.
         -5    1    3    3    0  503  0.57495270644E+02  0.51399547041E+00 -0.37288314487E+02  0.68691183824E+02  0.47000000000E+01 0.  1.
         13    1    4    4    0    0 -0.33751894069E+02 -0.26861985111E+02 -0.26308943658E+02  0.50526400166E+02  0.00000000000E+00 0. -1.
        -14    1    4    4    0    0  0.18651608818E+02 -0.13873351003E+03 -0.12607885358E+03  0.18838987934E+03  0.00000000000E+00 0.  1.
</event>
<event>
12    1  0.8133495E-002  0.1940624E+03  0.7818608E-02  0.1154876E+00
         21   -1    0    0  501  502  0.00000000000E+00  0.00000000000E+00  0.37293099297E+02  0.37293099297E+02  0.00000000000E+00 0.  1.
         21   -1    0    0  502  503 -0.00000000000E+00 -0.00000000000E+00 -0.11267999982E+04  0.11267999982E+04  0.00000000000E+00 0.  1.
         -6    2    1    2    0  503 -0.27755580803E+01  0.88312809417E+02 -0.73264497848E+03  0.75787805972E+03  0.17263728708E+03 0.  0.
        -24    2    3    3    0    0  0.44875656232E+02  0.10452620554E+03 -0.46123391218E+03  0.48179914103E+03  0.80337652340E+02 0.  0.
          6    2    1    2  501    0  0.27755580803E+01 -0.88312809417E+02 -0.35686192041E+03  0.40621503776E+03  0.17278127975E+03 0.  0.
         24    2    5    5    0    0 -0.62260348065E+01 -0.69343537828E+01 -0.67989959942E+02  0.10592754008E+03  0.80691761186E+02 0.  0.
          5    1    5    5  501    0  0.90015928868E+01 -0.81378455634E+02 -0.28887196047E+03  0.30028749768E+03  0.47000000000E+01 0. -1.
        -11    1    6    6    0    0  0.18857767160E+02 -0.33043893923E+02 -0.13231069979E+02  0.40281205551E+02  0.00000000000E+00 0.  1.
         12    1    6    6    0    0 -0.25083801966E+02  0.26109540141E+02 -0.54758889962E+02  0.65646334531E+02  0.00000000000E+00 0. -1.
         -5    1    3    3    0  503 -0.47651214313E+02 -0.16213396120E+02 -0.27141106630E+03  0.27607891870E+03  0.47000000000E+01 0.  1.
         13    1    4    4    0    0  0.44719413975E+00  0.89776144742E+02 -0.25573681093E+03  0.27103740076E+03  0.00000000000E+00 0. -1.
        -14    1    4    4    0    0  0.44428462093E+02  0.14750060796E+02 -0.20549710125E+03  0.21076174027E+03  0.00000000000E+00 0.  1.
</event>
<event>
12    1  0.8133495E-002  0.2545347E+03  0.7818608E-02  0.1110520E+00
         21   -1    0    0  503  502  0.00000000000E+00  0.00000000000E+00  0.12347861100E+04  0.12347861100E+04  0.00000000000E+00 0. -1.
         21   -1    0    0  501  503 -0.00000000000E+00 -0.00000000000E+00 -0.54306252099E+02  0.54306252099E+02  0.00000000000E+00 0.  1.
          6    2    1    2  501    0  0.14394926355E+03 -0.11905757529E+03  0.46930686374E+03  0.53374147858E+03  0.17243821179E+03 0.  0.
         24    2    3    3    0    0  0.10595017292E+02 -0.13433069917E+02  0.12885841583E+03  0.15312733431E+03  0.80936934854E+02 0.  0.
         -6    2    1    2    0  502 -0.14394926355E+03  0.11905757529E+03  0.71117299420E+03  0.75535088357E+03  0.17289254730E+03 0.  0.
        -24    2    5    5    0    0 -0.40818792701E+02  0.82857540403E+02  0.53002778705E+03  0.54373327415E+03  0.78643960538E+02 0.  0.
          5    1    3    3  501    0  0.13335424625E+03 -0.10562450537E+03  0.34044844791E+03  0.38061414427E+03  0.47000000000E+01 0. -1.
        -13    1    4    4    0    0 -0.15665319867E+02  0.24950052066E+02  0.81897074938E+02  0.87034695542E+02  0.00000000000E+00 0.  1.
         14    1    4    4    0    0  0.26260337159E+02 -0.38383121983E+02  0.46961340891E+02  0.66092638767E+02  0.00000000000E+00 0. -1.
         -5    1    5    5    0  502 -0.10313047085E+03  0.36200034888E+02  0.18114520715E+03  0.21161760942E+03  0.47000000000E+01 0.  1.
         11    1    6    6    0    0 -0.27375788715E+02  0.97500029855E+02  0.43212640830E+03  0.44383434114E+03  0.00000000000E+00 0. -1.
        -12    1    6    6    0    0 -0.13443003986E+02 -0.14642489452E+02  0.97901378756E+02  0.99898933006E+02  0.00000000000E+00 0.  1.
</event>
<event>
12    1  0.8133495E-002  0.1740424E+03  0.7818608E-02  0.1175332E+00
         21   -1    0    0  501  502  0.00000000000E+00  0.00000000000E+00  0.15635155934E+02  0.15635155934E+02  0.00000000000E+00 0.  1.
         21   -1    0    0  502  503 -0.00000000000E+00 -0.00000000000E+00 -0.19005721400E+04  0.19005721400E+04  0.00000000000E+00 0.  1.
         -6    2    1    2    0  503  0.24451608154E+02  0.18856880298E+02 -0.10518456218E+04  0.10651303545E+04  0.16483323956E+03 0.  0.
        -24    2    3    3    0    0  0.58931521567E+02  0.31310672174E+02 -0.45067881799E+03  0.46282845563E+03  0.81519935768E+02 0.  0.
          6    2    1    2  501    0 -0.24451608154E+02 -0.18856880298E+02 -0.83309136231E+03  0.85107694150E+03  0.17128128711E+03 0.  0.
         24    2    5    5    0    0  0.45544990520E+02  0.20324359005E+02 -0.46588694548E+03  0.47518351634E+03  0.79128392491E+02 0.  0.
          5    1    5    5  501    0 -0.69996598674E+02 -0.39181239303E+02 -0.36720441683E+03  0.37589342516E+03  0.47000000000E+01 0. -1.
        -11    1    6    6    0    0  0.32754443904E+02  0.23319520828E+01 -0.43973772490E+03  0.44096208261E+03  0.00000000000E+00 0.  1.
         12    1    6    6    0    0  0.12790546615E+02  0.17992406922E+02 -0.26149220579E+02  0.34221433728E+02  0.00000000000E+00 0. -1.
         -5    1    3    3    0  503 -0.34479913412E+02 -0.12453791876E+02 -0.60116680379E+03  0.60230189884E+03  0.47000000000E+01 0.  1.
         11    1    4    4    0    0  0.82669350998E+01 -0.24081331202E+02 -0.18514810576E+03  0.18689053961E+03  0.00000000000E+00 0. -1.
        -12    1    4    4    0    0  0.50664586467E+02  0.55392003376E+02 -0.26553071223E+03  0.27593791602E+03  0.00000000000E+00 0.  1.
</event>
<event>
12    1  0.8133495E-002  0.1971897E+03  0.7818608E-02  0.1152407E+00
         21   -1    0    0  501  502  0.00000000000E+00  0.00000000000E+00  0.99399688448E+03  0.99399688448E+03  0.00000000000E+00 0. -1.
         21   -1    0    0  502  503 -0.00000000000E+00 -0.00000000000E+00 -0.39548197569E+02  0.39548197569E+02  0.00000000000E+00 0.  1.
         -6    2    1    2    0  503 -0.83323214344E+02  0.47291403690E+02  0.41086461387E+03  0.45573401888E+03  0.17235002211E+03 0.  0.
        -24    2    3    3    0    0 -0.40652369119E+02  0.45267770741E+02  0.39680994019E+03  0.41051765044E+03  0.85818567403E+02 0.  0.
          6    2    1    2  501    0  0.83323214344E+02 -0.47291403690E+02  0.54358407304E+03  0.57781106317E+03  0.17088810767E+03 0.  0.
         24    2    5    5    0    0  0.12407271613E+03 -0.47123141662E+02  0.43180763334E+03  0.45874548175E+03  0.79843318083E+02 0.  0.
          5    1    5    5  501    0 -0.40749501783E+02 -0.16826202826E+00  0.11177643970E+03  0.11906558142E+03  0.47000000000E+01 0. -1.
        -11    1    6    6    0    0  0.19147095393E+01 -0.29394815227E+02  0.57444091293E+02  0.64556524839E+02  0.00000000000E+00 0.  1.
         12    1    6    6    0    0  0.12215800659E+03 -0.17728326436E+02  0.37436354205E+03  0.39418895691E+03  0.00000000000E+00 0. -1.
         -5    1    3    3    0  503 -0.42670845225E+02  0.20236329493E+01  0.14054673686E+02  0.45216368440E+02  0.47000000000E+01 0.  1.
         11    1    4    4    0    0 -0.65795666509E+02  0.33968928371E+02  0.33074682533E+03  0.33893424184E+03  0.00000000000E+00 0. -1.
        -12    1    4    4    0    0  0.25143297390E+02  0.11298842370E+02  0.66063114854E+02  0.71583408600E+02  0.00000000000E+00 0.  1.
</event>
<event>
12    1  0.8133495E-002  0.2771560E+03  0.7818608E-02  0.1099157E+00
         21   -1    0    0  503  502  0.00000000000E+00  0.00000000000E+00  0.14444159593E+04  0.14444159593E+04  0.00000000000E+00 0.  1.
         21   -1    0    0  501  503 -0.00000000000E+00 -0.00000000000E+00 -0.51347677535E+02  0.51347677535E+02  0.00000000000E+00 0.  1.
          6    2    1    2  501    0 -0.67210198371E+02  0.18755984282E+03  0.76729090091E+03  0.81135676302E+03  0.17282524376E+03 0.  0.
         24    2    3    3    0    0  0.77179969764E+01  0.10528476878E+03  0.25432963864E+03  0.28644270448E+03  0.78875901549E+02 0.  0.
         -6    2    1    2    0  502  0.67210198371E+02 -0.18755984282E+03  0.62577738086E+03  0.68440687382E+03  0.19266430164E+03 0.  0.
        -24    2    5    5    0    0  0.65441130757E+02 -0.44685122862E+02  0.41320152058E+03  0.42822939319E+03  0.79784802986E+02 0.  0.
          5    1    3    3  501    0 -0.74928195348E+02  0.82275074037E+02  0.51296126227E+03  0.52491405854E+03  0.47000000000E+01 0. -1.
        -11    1    4    4    0    0 -0.19670484458E+02  0.71244460047E+02  0.21609282275E+03  0.22838303153E+03  0.00000000000E+00 0.  1.
         12    1    4    4    0    0  0.27388481434E+02  0.34040308735E+02  0.38236815891E+02  0.58059672954E+02  0.00000000000E+00 0. -1.
         -5    1    5    5    0  502  0.17690676144E+01 -0.14287471996E+03  0.21257586029E+03  0.25617748063E+03  0.47000000000E+01 0.  1.
         11    1    6    6    0    0 -0.66086669096E+01  0.16252993519E+02  0.50834156080E+02  0.53776813786E+02  0.00000000000E+00 0. -1.
        -12    1    6    6    0    0  0.72049797667E+02 -0.60938116381E+02  0.36236736450E+03  0.37445257941E+03  0.00000000000E+00 0.  1.
</event>
<event>
12    1  0.8133495E-002  0.2292433E+03  0.7818608E-02  0.1127219E+00
         21   -1    0    0  503  502  0.00000000000E+00  0.00000000000E+00  0.34637620821E+03  0.34637620821E+03  0.00000000000E+00 0. -1.
         21   -1    0    0  501  503 -0.00000000000E+00 -0.00000000000E+00 -0.20113272416E+03  0.20113272416E+03  0.00000000000E+00 0.  1.
          6    2    1    2  501    0  0.12324622971E+03 -0.85771527686E+02 -0.63328983602E+02  0.23758158005E+03  0.17288163267E+03 0.  0.
         24    2    3    3    0    0  0.15667580078E+03 -0.60568439007E+02 -0.45219596676E+02  0.19172559030E+03  0.80610468898E+02 0.  0.
         -6    2    1    2    0  502 -0.12324622971E+03  0.85771527686E+02  0.20857246765E+03  0.30992735232E+03  0.17322269296E+03 0.  0.
        -24    2    5    5    0    0  0.35151563028E+01  0.56082864055E+02  0.75577514642E+02  0.12375642748E+03  0.80287288272E+02 0.  0.
          5    1    3    3  501    0 -0.33429571075E+02 -0.25203088679E+02 -0.18109386927E+02  0.45855989751E+02  0.47000000000E+01 0. -1.
        -11    1    4    4    0    0  0.99445166334E+01 -0.36197945912E+02 -0.10633486385E+02  0.39016095807E+02  0.00000000000E+00 0.  1.
         12    1    4    4    0    0  0.14673128415E+03 -0.24370493094E+02 -0.34586110290E+02  0.15270949449E+03  0.00000000000E+00 0. -1.
         -5    1    5    5    0  502 -0.12676138601E+03  0.29688663631E+02  0.13299495301E+03  0.18617092484E+03  0.47000000000E+01 0.  1.
         13    1    6    6    0    0  0.82412588698E+01  0.14148753436E+01  0.67826269385E+02  0.68339761769E+02  0.00000000000E+00 0. -1.
        -14    1    6    6    0    0 -0.47261025671E+01  0.54667988711E+02  0.77512452573E+01  0.55416665709E+02  0.00000000000E+00 0.  1.
</event>
<event>
12    1  0.8133495E-002  0.3714694E+03  0.7818608E-02  0.1054182E+00
         21   -1    0    0  501  502  0.00000000000E+00  0.00000000000E+00  0.18293494039E+03  0.18293494039E+03  0.00000000000E+00 0.  1.
         21   -1    0    0  502  503 -0.00000000000E+00 -0.00000000000E+00 -0.91515807226E+03  0.91515807226E+03  0.00000000000E+00 0. -1.
         -6    2    1    2    0  503  0.32826415783E+03 -0.60375600046E-01 -0.13497333826E+03  0.39474610804E+03  0.17276957722E+03 0.  0.
        -24    2    3    3    0    0  0.23275514509E+03 -0.50814943264E+02 -0.47625367770E+02  0.25564270908E+03  0.79548117682E+02 0.  0.
          6    2    1    2  501    0 -0.32826415783E+03  0.60375600046E-01 -0.59724979360E+03  0.70334690461E+03  0.17387406738E+03 0.  0.
         24    2    5    5    0    0 -0.23094058648E+03  0.62136438773E+02 -0.35970216291E+03  0.43919489911E+03  0.79448234096E+02 0.  0.
          5    1    5    5  501    0 -0.97323571354E+02 -0.62076063173E+02 -0.23754763069E+03  0.26415200550E+03  0.47000000000E+01 0. -1.
        -11    1    6    6    0    0 -0.15772995435E+03  0.64104705283E+02 -0.19453573944E+03  0.25851944928E+03  0.00000000000E+00 0.  1.
         12    1    6    6    0    0 -0.73210632125E+02 -0.19682665105E+01 -0.16516642347E+03  0.18067544983E+03  0.00000000000E+00 0. -1.
         -5    1    3    3    0  503  0.95509012739E+02  0.50754567664E+02 -0.87347970494E+02  0.13910339896E+03  0.47000000000E+01 0.  1.
         11    1    4    4    0    0  0.38370790255E+02 -0.34935310182E+02 -0.29696193210E+02  0.59788438126E+02  0.00000000000E+00 0. -1.
        -12    1    4    4    0    0  0.19438435484E+03 -0.15879633082E+02 -0.17929174560E+02  0.19585427096E+03  0.00000000000E+00 0.  1.
</event>
<event>
12    1  0.8133495E-002  0.2088570E+03  0.7818608E-02  0.1142520E+00
         21   -1    0    0  503  502  0.00000000000E+00  0.00000000000E+00  0.96317400756E+03  0.96317400756E+03  0.00000000000E+00 0. -1.
         21   -1    0    0  501  503 -0.00000000000E+00 -0.00000000000E+00 -0.45426316703E+02  0.45426316703E+02  0.00000000000E+00 0. -1.
          6    2    1    2  501    0  0.10257307490E+03 -0.57432814642E+02  0.49098799770E+03  0.53347394893E+03  0.17235276736E+03 0.  0.
         24    2    3    3    0    0  0.30782657095E+02 -0.87316090041E+02  0.22818344418E+03  0.25936594542E+03  0.81433027030E+02 0.  0.
         -6    2    1    2    0  502 -0.10257307490E+03  0.57432814642E+02  0.42675969316E+03  0.47512637533E+03  0.17263103121E+03 0.  0.
        -24    2    5    5    0    0 -0.10779345499E+03 -0.16920814524E+02  0.24108752015E+03  0.27499651657E+03  0.74794042871E+02 0.  0.
          5    1    3    3  501    0  0.71790417801E+02  0.29883275400E+02  0.26280455352E+03  0.27410800351E+03  0.47000000000E+01 0. -1.
        -11    1    4    4    0    0 -0.22120774193E+02 -0.71494651999E+01  0.75369891359E+02  0.78873722031E+02  0.00000000000E+00 0.  1.
         12    1    4    4    0    0  0.52903431288E+02 -0.80166624841E+02  0.15281355282E+03  0.18049222339E+03  0.00000000000E+00 0. -1.
         -5    1    5    5    0  502  0.52203800953E+01  0.74353629165E+02  0.18567217300E+03  0.20012985875E+03  0.47000000000E+01 0.  1.
         11    1    6    6    0    0 -0.55925779336E+02  0.28922760118E+02  0.12022547321E+03  0.13571434433E+03  0.00000000000E+00 0. -1.
        -12    1    6    6    0    0 -0.51867675655E+02 -0.45843574642E+02  0.12086204694E+03  0.13928217225E+03  0.00000000000E+00 0.  1.
</event>
<event>
12    1  0.8133495E-002  0.2210177E+03  0.7818608E-02  0.1133174E+00
         21   -1    0    0  503  502  0.00000000000E+00  0.00000000000E+00  0.44840253706E+03  0.44840253706E+03  0.00000000000E+00 0.  1.
         21   -1    0    0  501  503 -0.00000000000E+00 -0.00000000000E+00 -0.42664501601E+03  0.42664501601E+03  0.00000000000E+00 0.  1.
          6    2    1    2  501    0 -0.12575212387E+03  0.60724210160E+02 -0.36675270016E+03  0.42806989875E+03  0.17098324122E+03 0.  0.
         24    2    3    3    0    0 -0.15301356923E+03  0.43385346093E+02 -0.25595415992E+03  0.31256133140E+03  0.82985620937E+02 0.  0.
         -6    2    1    2    0  502  0.12575212387E+03 -0.60724210160E+02  0.38851022121E+03  0.44697765433E+03  0.17131201102E+03 0.  0.
        -24    2    5    5    0    0  0.10658106376E+03  0.17714705693E+02  0.18964796885E+03  0.23229538100E+03  0.79507597080E+02 0.  0.
          5    1    3    3  501    0  0.27261445357E+02  0.17338864067E+02 -0.11079854024E+03  0.11550856735E+03  0.47000000000E+01 0. -1.
        -13    1    4    4    0    0 -0.23171060902E+02  0.43626565522E+02 -0.76400245533E+02  0.90978968999E+02  0.00000000000E+00 0.  1.
         14    1    4    4    0    0 -0.12984250833E+03 -0.24121942927E+00 -0.17955391439E+03  0.22158236240E+03  0.00000000000E+00 0. -1.
         -5    1    5    5    0  502  0.19171060109E+02 -0.78438915852E+02  0.19886225237E+03  0.21468227333E+03  0.47000000000E+01 0.  1.
         11    1    6    6    0    0 -0.96464216415E+00  0.17617884389E+01 -0.71692067475E+01  0.74452641590E+01  0.00000000000E+00 0. -1.
        -12    1    6    6    0    0  0.10754570593E+03  0.15952917254E+02  0.19681717560E+03  0.22485011684E+03  0.00000000000E+00 0.  1.
</event>
<event>
12    1  0.8133495E-002  0.2351677E+03  0.7818608E-02  0.1123895E+00
         21   -1    0    0  501  502  0.00000000000E+00  0.00000000000E+00  0.67806714728E+03  0.67806714728E+03  0.00000000000E+00 0. -1.
         21   -1    0    0  502  503 -0.00000000000E+00 -0.00000000000E+00 -0.12105102974E+03  0.12105102974E+03  0.00000000000E+00 0. -1.
         -6    2    1    2    0  503 -0.29373403313E+02 -0.15700274674E+03  0.43585674977E+02  0.23439289523E+03  0.16591461347E+03 0.  0.
        -24    2    3    3    0    0  0.15272344521E+02 -0.74669290038E+02 -0.31466800249E+02  0.11428042739E+03  0.79127170958E+02 0.  0.
          6    2    1    2  501    0  0.29373403313E+02  0.15700274674E+03  0.51343044256E+03  0.56472528179E+03  0.17260117391E+03 0.  0.
         24    2    5    5    0    0  0.71442392650E+02  0.58449968671E+02  0.20667776236E+03  0.23976105800E+03  0.79052218033E+02 0.  0.
          5    1    5    5  501    0 -0.42068989338E+02  0.98552778073E+02  0.30675268020E+03  0.32496422379E+03  0.47000000000E+01 0. -1.
        -13    1    6    6    0    0  0.64921610892E+02  0.44932556632E+02  0.21003283685E+03  0.22438258123E+03  0.00000000000E+00 0.  1.
         14    1    6    6    0    0  0.65207817579E+01  0.13517412039E+02 -0.33550744884E+01  0.15378476771E+02  0.00000000000E+00 0. -1.
         -5    1    3    3    0  503 -0.44645747834E+02 -0.82333456706E+02  0.75052475226E+02  0.12011246784E+03  0.47000000000E+01 0.  1.
         11    1    4    4    0    0 -0.20081857549E+02 -0.66442776720E+02 -0.35134526870E+02  0.77796905846E+02  0.00000000000E+00 0. -1.
        -12    1    4    4    0    0  0.35354202071E+02 -0.82265133183E+01  0.36677266206E+01  0.36483521541E+02  0.00000000000E+00 0.  1.
</event>
<event>
12    1  0.8133495E-002  0.1906978E+03  0.7818608E-02  0.1158335E+00
         21   -1    0    0  501  502  0.00000000000E+00  0.00000000000E+00  0.48604448894E+03  0.48604448894E+03  0.00000000000E+00 0. -1.
         21   -1    0    0  502  503 -0.00000000000E+00 -0.00000000000E+00 -0.22100396634E+03  0.22100396634E+03  0.00000000000E+00 0. -1.
         -6    2    1    2    0  503  0.72525981307E+02 -0.28308840917E+02 -0.15611135715E+03  0.24473409797E+03  0.17164677229E+03 0.  0.
        -24    2    3    3    0    0  0.11369523500E+03 -0.41260333489E+02 -0.12473502986E+03  0.19116906718E+03  0.79735581715E+02 0.  0.
          6    2    1    2  501    0 -0.72525981307E+02  0.28308840917E+02  0.42115187975E+03  0.46231435731E+03  0.17408116130E+03 0.  0.
         24    2    5    5    0    0  0.26072622195E+02  0.54157062528E+01  0.13825181103E+03  0.16181424232E+03  0.79756969992E+02 0.  0.
          5    1    5    5  501    0 -0.98598603502E+02  0.22893134665E+02  0.28290006872E+03  0.30050011499E+03  0.47000000000E+01 0. -1.
        -11    1    6    6    0    0  0.25045633028E+02 -0.99499987434E+01  0.14314170472E+03  0.14565656126E+03  0.00000000000E+00 0.  1.
         12    1    6    6    0    0  0.10269891665E+01  0.15365704996E+02 -0.48898936923E+01  0.16157681056E+02  0.00000000000E+00 0. -1.
         -5    1    3    3    0  503 -0.41169253691E+02  0.12951492571E+02 -0.31376327293E+02  0.53565030791E+02  0.47000000000E+01 0.  1.
         11    1    4    4    0    0  0.39259920952E+02  0.23444397050E+02 -0.47161598573E+02  0.65690163085E+02  0.00000000000E+00 0. -1.
        -12    1    4    4    0    0  0.74435314045E+02 -0.64704730538E+02 -0.77573431283E+02  0.12547890409E+03  0.00000000000E+00 0.  1.
</event>
<event>
12    1  0.8133495E-002  0.1750450E+03  0.7818608E-02  0.1172730E+00
         21   -1    0    0  503  502  0.00000000000E+00  0.00000000000E+00  0.83287553731E+03  0.83287553731E+03  0.00000000000E+00 0. -1.
         21   -1    0    0  501  503 -0.00000000000E+00 -0.00000000000E+00 -0.20098803602E+03  0.20098803602E+03  0.00000000000E+00 0. -1.
          6    2    1    2  501    0 -0.31688412259E+02  0.41240749129E+00 -0.15136944058E+03  0.23128509961E+03  0.17197605708E+03 0.  0.
         24    2    3    3    0    0  0.19271124518E+01  0.53485952670E+02 -0.32504301562E+02  0.96756976259E+02  0.73762605292E+02 0.  0.
         -6    2    1    2    0  502  0.31688412259E+02 -0.41240749129E+00  0.78325694187E+03  0.80257847372E+03  0.17215238585E+03 0.  0.
        -24    2    5    5    0    0  0.44189404693E+02  0.88210667166E+01  0.21047339302E+03  0.22956484763E+03  0.79815132615E+02 0.  0.
          5    1    3    3  501    0 -0.33615524711E+02 -0.53073545178E+02 -0.11886513902E+03  0.13452812335E+03  0.47000000000E+01 0. -1.
        -11    1    4    4    0    0  0.21139088259E+02  0.49512039770E+02 -0.47710926925E+02  0.71934940624E+02  0.00000000000E+00 0.  1.
         12    1    4    4    0    0 -0.19211975807E+02  0.39739128999E+01  0.15206625363E+02  0.24822035635E+02  0.00000000000E+00 0. -1.
         -5    1    5    5    0  502 -0.12500992434E+02 -0.92334742079E+01  0.57278354885E+03  0.57301362610E+03  0.47000000000E+01 0.  1.
         11    1    6    6    0    0  0.66083699495E+02  0.64261743939E+01  0.12792810350E+03  0.14413171310E+03  0.00000000000E+00 0. -1.
        -12    1    6    6    0    0 -0.21894294802E+02  0.23948923227E+01  0.82545289516E+02  0.85433134528E+02  0.00000000000E+00 0.  1.
</event>
<event>
12    1  0.8133495E-002  0.2120742E+03  0.7818608E-02  0.1139987E+00
         21   -1    0    0  503  502  0.00000000000E+00  0.00000000000E+00  0.17433898331E+04  0.17433898331E+04  0.00000000000E+00 0. -1.
         21   -1    0    0  501  503 -0.00000000000E+00 -0.00000000000E+00 -0.36485858180E+02  0.36485858180E+02  0.00000000000E+00 0.  1.
          6    2    1    2  501    0 -0.27710423315E+02  0.12072349442E+03  0.37064534670E+03  0.42689285050E+03  0.17180658632E+03 0.  0.
         24    2    3    3    0    0  0.28452240970E+02  0.73547759619E+01  0.15074882195E+03  0.17315423935E+03  0.79959743253E+02 0.  0.
         -6    2    1    2    0  502  0.27710423315E+02 -0.12072349442E+03  0.13362586282E+04  0.13529828408E+04  0.17214359214E+03 0.  0.
        -24    2    5    5    0    0 -0.28563177028E+02 -0.99723693923E+02  0.11419718520E+04  0.11495690970E+04  0.81539732599E+02 0.  0.
          5    1    3    3  501    0 -0.56162664285E+02  0.11336871846E+03  0.21989652475E+03  0.25373861114E+03  0.47000000000E+01 0. -1.
        -11    1    4    4    0    0 -0.21355148060E+02  0.17881873641E+02  0.24753758191E+02  0.37263283513E+02  0.00000000000E+00 0.  1.
         12    1    4    4    0    0  0.49807389030E+02 -0.10527097679E+02  0.12599506376E+03  0.13589095584E+03  0.00000000000E+00 0. -1.
         -5    1    5    5    0  502  0.56273600343E+02 -0.20999800500E+02  0.19428677628E+03  0.20341374377E+03  0.47000000000E+01 0.  1.
         11    1    6    6    0    0  0.27004096930E+02 -0.52350514589E+02  0.51975108931E+03  0.52307838080E+03  0.00000000000E+00 0. -1.
        -12    1    6    6    0    0 -0.55567273958E+02 -0.47373179334E+02  0.62222076266E+03  0.62649071624E+03  0.00000000000E+00 0.  1.
</event>
<event>
12    1  0.8133495E-002  0.2590834E+03  0.7818608E-02  0.1107759E+00
         21   -1    0    0  501  502  0.00000000000E+00  0.00000000000E+00  0.16028094676E+03  0.16028094676E+03  0.00000000000E+00 0. -1.
         21   -1    0    0  502  503 -0.00000000000E+00 -0.00000000000E+00 -0.52298172841E+03  0.52298172841E+03  0.00000000000E+00 0. -1.
         -6    2    1    2    0  503 -0.48381170150E+02 -0.18665931997E+03 -0.33421719027E+03  0.42261823581E+03  0.17240244665E+03 0.  0.
        -24    2    3    3    0    0 -0.37247277652E+02 -0.56208936624E+02 -0.23938306160E+03  0.26088738521E+03  0.78810997518E+02 0.  0.
          6    2    1    2  501    0  0.48381170150E+02  0.18665931997E+03 -0.28483591379E+02  0.26064443936E+03  0.17303690195E+03 0.  0.
         24    2    5    5    0    0  0.20171150892E+02  0.60768935515E+02 -0.70914110047E+02  0.12475244917E+03  0.80216106354E+02 0.  0.
          5    1    5    5  501    0  0.28210019258E+02  0.12589038445E+03  0.42430518668E+02  0.13589199019E+03  0.47000000000E+01 0. -1.
        -11    1    6    6    0    0  0.42066970090E+02  0.47344185186E+01 -0.26054845441E+02  0.49708144828E+02  0.00000000000E+00 0.  1.
         12    1    6    6    0    0 -0.21895819199E+02  0.56034516996E+02 -0.44859264607E+02  0.75044304344E+02  0.00000000000E+00 0. -1.
         -5    1    3    3    0  503 -0.11133892498E+02 -0.13045038334E+03 -0.94834128670E+02  0.16173085060E+03  0.47000000000E+01 0.  1.
         13    1    4    4    0    0 -0.54164137378E+01  0.14366713080E+02 -0.10235280780E+03  0.10349800601E+03  0.00000000000E+00 0. -1.
        -14    1    4    4    0    0 -0.31830863914E+02 -0.70575649705E+02 -0.13703025380E+03  0.15738937920E+03  0.00000000000E+00 0.  1.
</event>
<event>
12    1  0.8133495E-002  0.2734167E+03  0.7818608E-02  0.1100465E+00
         21   -1    0    0  503  502  0.00000000000E+00  0.00000000000E+00  0.10228356793E+04  0.10228356793E+04  0.00000000000E+00 0. -1.
         21   -1    0    0  501  503 -0.00000000000E+00 -0.00000000000E+00 -0.79324820778E+02  0.79324820778E+02  0.00000000000E+00 0. -1.
          6    2    1    2  501    0  0.53351327913E+02 -0.20462646168E+03  0.28707380310E+03  0.39105833755E+03  0.16061413989E+03 0.  0.
         24    2    3    3    0    0  0.75401132592E+00 -0.13692093683E+03  0.25306766486E+03  0.29870562646E+03  0.80211575273E+02 0.  0.
         -6    2    1    2    0  502 -0.53351327913E+02  0.20462646168E+03  0.65643705540E+03  0.71110216250E+03  0.17331567962E+03 0.  0.
        -24    2    5    5    0    0 -0.48736175532E+02  0.98049558813E+02  0.19621948044E+03  0.23865931712E+03  0.80419241180E+02 0.  0.
          5    1    3    3  501    0  0.52597316587E+02 -0.67705524856E+02  0.34006138243E+02  0.92352711094E+02  0.47000000000E+01 0. -1.
        -13    1    4    4    0    0 -0.43013714253E+01  0.83019246829E+01  0.38113463773E+02  0.39243596553E+02  0.00000000000E+00 0.  1.
         14    1    4    4    0    0  0.50553827512E+01 -0.14522286151E+03  0.21495420108E+03  0.25946202991E+03  0.00000000000E+00 0. -1.
         -5    1    5    5    0  502 -0.46151523805E+01  0.10657690287E+03  0.46021757495E+03  0.47244284538E+03  0.47000000000E+01 0.  1.
         11    1    6    6    0    0  0.11948843123E+01  0.57419516727E+02  0.14639238343E+03  0.15725507488E+03  0.00000000000E+00 0. -1.
        -12    1    6    6    0    0 -0.49931059844E+02  0.40630042087E+02  0.49827097016E+02  0.81404242237E+02  0.00000000000E+00 0.  1.
</event>
<event>
12    1  0.8133495E-002  0.2014346E+03  0.7818608E-02  0.1148607E+00
         21   -1    0    0  501  502  0.00000000000E+00  0.00000000000E+00  0.17928381062E+03  0.17928381062E+03  0.00000000000E+00 0.  1.
         21   -1    0    0  502  503 -0.00000000000E+00 -0.00000000000E+00 -0.24610341779E+03  0.24610341779E+03  0.00000000000E+00 0. -1.
         -6    2    1    2    0  503 -0.10316491211E+03 -0.19380381745E+02 -0.94274526175E+02  0.22209022054E+03  0.17151612603E+03 0.  0.
        -24    2    3    3    0    0 -0.10335484546E+03  0.16037919983E+02 -0.12326084466E+02  0.13269151099E+03  0.80719674006E+02 0.  0.
          6    2    1    2  501    0  0.10316491211E+03  0.19380381745E+02  0.27454919005E+02  0.20329700786E+03  0.17192237359E+03 0.  0.
         24    2    5    5    0    0  0.77661470097E+02 -0.47772593300E+02  0.22304766634E+02  0.13112664219E+03  0.91559647599E+02 0.  0.
          5    1    5    5  501    0  0.25503442015E+02  0.67152975045E+02  0.51501523716E+01  0.72170365673E+02  0.47000000000E+01 0. -1.
        -13    1    6    6    0    0  0.32231555765E+02 -0.27027107595E+01  0.51478790040E+02  0.60796740509E+02  0.00000000000E+00 0.  1.
         14    1    6    6    0    0  0.45429914332E+02 -0.45069882540E+02 -0.29174023406E+02  0.70329901678E+02  0.00000000000E+00 0. -1.
         -5    1    3    3    0  503  0.18993335156E+00 -0.35418301728E+02 -0.81948441709E+02  0.89398709558E+02  0.47000000000E+01 0.  1.
         13    1    4    4    0    0 -0.14902092272E+02 -0.15174852509E+02 -0.30465794472E+02  0.37155257173E+02  0.00000000000E+00 0. -1.
        -14    1    4    4    0    0 -0.88452753191E+02  0.31212772492E+02  0.18139710006E+02  0.95536253814E+02  0.00000000000E+00 0.  1.
</event>
<event>
12    1  0.8133495E-002  0.4126369E+03  0.7818608E-02  0.1039536E+00
         21   -1    0    0  501  502  0.00000000000E+00  0.00000000000E+00  0.85444297841E+03  0.85444297841E+03  0.00000000000E+00 0.  1.
         21   -1    0    0  502  503 -0.00000000000E+00 -0.00000000000E+00 -0.23254150314E+03  0.23254150314E+03  0.00000000000E+00 0. -1.
         -6    2    1    2    0  503 -0.27375208078E+03 -0.25515210689E+03  0.10438074458E+03  0.42509558316E+03  0.17253438963E+03 0.  0.
        -24    2    3    3    0    0 -0.28237201243E+03 -0.19773208910E+03  0.87383750174E+02  0.36441321766E+03  0.79555898235E+02 0.  0.
          6    2    1    2  501    0  0.27375208078E+03  0.25515210689E+03  0.51752073069E+03  0.66188889839E+03  0.17385743509E+03 0.  0.
         24    2    5    5    0    0  0.20374010248E+03  0.23729866272E+03  0.48507464236E+03  0.58254621617E+03  0.79006332822E+02 0.  0.
          5    1    5    5  501    0  0.70011978298E+02  0.17853444167E+02  0.32446088335E+02  0.79342682221E+02  0.47000000000E+01 0. -1.
        -11    1    6    6    0    0  0.14335023510E+03  0.16338550931E+03  0.39732683125E+03  0.45289372416E+03  0.00000000000E+00 0.  1.
         12    1    6    6    0    0  0.60389867376E+02  0.73913153407E+02  0.87747811110E+02  0.12965249200E+03  0.00000000000E+00 0. -1.
         -5    1    3    3    0  503  0.86199316569E+01 -0.57420017781E+02  0.16996994405E+02  0.60682365499E+02  0.47000000000E+01 0.  1.
         11    1    4    4    0    0 -0.19689537153E+03 -0.16406678934E+03  0.92321654016E+02  0.27241326417E+03  0.00000000000E+00 0. -1.
        -12    1    4    4    0    0 -0.85476640899E+02 -0.33665299761E+02 -0.49379038419E+01  0.91999953488E+02  0.00000000000E+00 0.  1.
</event>
<event>
12    1  0.8133495E-002  0.2638046E+03  0.7818608E-02  0.1104903E+00
         21   -1    0    0  503  502  0.00000000000E+00  0.00000000000E+00  0.19672692194E+04  0.19672692194E+04  0.00000000000E+00 0.  1.
         21   -1    0    0  501  503 -0.00000000000E+00 -0.00000000000E+00 -0.55535300323E+02  0.55535300323E+02  0.00000000000E+00 0.  1.
          6    2    1    2  501    0 -0.19974211038E+03  0.11316056193E+02  0.34634677154E+03  0.43537218368E+03  0.17195315753E+03 0.  0.
         24    2    3    3    0    0 -0.16073732840E+03 -0.33376531920E+02  0.17108168207E+03  0.25028101146E+03  0.80132147939E+02 0.  0.
         -6    2    1    2    0  502  0.19974211038E+03 -0.11316056193E+02  0.15653871475E+04  0.15874323360E+04  0.17169605713E+03 0.  0.
        -24    2    5    5    0    0  0.18800100877E+03  0.41464828920E+02  0.11924186418E+04  0.12105354382E+04  0.80437047274E+02 0.  0.
          5    1    3    3  501    0 -0.39004781984E+02  0.44692588114E+02  0.17526508947E+03  0.18509117223E+03  0.47000000000E+01 0. -1.
        -13    1    4    4    0    0 -0.64833573844E+02  0.26012027589E+02  0.67181951282E+02  0.96919721702E+02  0.00000000000E+00 0.  1.
         14    1    4    4    0    0 -0.95903754552E+02 -0.59388559509E+02  0.10389973079E+03  0.15336128976E+03  0.00000000000E+00 0. -1.
         -5    1    5    5    0  502  0.11741101607E+02 -0.52780885113E+02  0.37296850575E+03  0.37689689781E+03  0.47000000000E+01 0.  1.
         11    1    6    6    0    0  0.17638948602E+02 -0.35054651138E+01  0.31092000554E+02  0.35918425521E+02  0.00000000000E+00 0. -1.
        -12    1    6    6    0    0  0.17036206017E+03  0.44970294034E+02  0.11613266412E+04  0.11746170127E+04  0.00000000000E+00 0.  1.
</event>
<event>
12    1  0.8133495E-002  0.2790175E+03  0.7818608E-02  0.1096258E+00
         21   -1    0    0  501  502  0.00000000000E+00  0.00000000000E+00  0.12164970511E+03  0.12164970511E+03  0.00000000000E+00 0.  1.
         21   -1    0    0  502  503 -0.00000000000E+00 -0.00000000000E+00 -0.69416538934E+03  0.69416538934E+03  0.00000000000E+00 0.  1.
         -6    2    1    2    0  503  0.43835469797E+02  0.21516261516E+03 -0.17162157591E+03  0.32738205121E+03  0.17178050751E+03 0.  0.
        -24    2    3    3    0    0  0.82907292813E+01  0.31808683389E+02 -0.31070333083E+02  0.93589761481E+02  0.81933810635E+02 0.  0.
          6    2    1    2  501    0 -0.43835469797E+02 -0.21516261516E+03 -0.40089410832E+03  0.48843304325E+03  0.17214602021E+03 0.  0.
         24    2    5    5    0    0 -0.66547070760E+02 -0.69048239476E+02 -0.14558678721E+03  0.19335822932E+03  0.83640422257E+02 0.  0.
          5    1    5    5  501    0  0.22711600962E+02 -0.14611437569E+03 -0.25530732111E+03  0.29507481393E+03  0.47000000000E+01 0. -1.
        -13    1    6    6    0    0 -0.21439036790E+02 -0.78271871207E+02 -0.95504878082E+02  0.12532876708E+03  0.00000000000E+00 0.  1.
         14    1    6    6    0    0 -0.45108033969E+02  0.92236317316E+01 -0.50081909129E+02  0.68029462242E+02  0.00000000000E+00 0. -1.
         -5    1    3    3    0  503  0.35544740516E+02  0.18335393177E+03 -0.14055124283E+03  0.23379228973E+03  0.47000000000E+01 0.  1.
         11    1    4    4    0    0 -0.33044773045E+02  0.34644745635E+01  0.24141760646E+01  0.33313478588E+02  0.00000000000E+00 0. -1.
        -12    1    4    4    0    0  0.41335502326E+02  0.28344208826E+02 -0.33484509147E+02  0.60276282893E+02  0.00000000000E+00 0.  1.
</event>
<event>
12    1  0.8133495E-002  0.2357754E+03  0.7818608E-02  0.1123586E+00
         21   -1    0    0  503  502  0.00000000000E+00  0.00000000000E+00  0.62646246284E+02  0.62646246284E+02  0.00000000000E+00 0. -1.
         21   -1    0    0  501  503 -0.00000000000E+00 -0.00000000000E+00 -0.19419342054E+04  0.19419342054E+04  0.00000000000E+00 0.  1.
          6    2    1    2  501    0  0.55540334826E+02 -0.14337112070E+03 -0.16804451684E+04  0.16961513681E+04  0.17144530442E+03 0.  0.
         24    2    3    3    0    0 -0.13283088000E+02 -0.49749128250E+02 -0.42102319187E+03  0.43137172484E+03  0.78546933163E+02 0.  0.
         -6    2    1    2    0  502 -0.55540334826E+02  0.14337112070E+03 -0.19884279068E+03  0.30842908356E+03  0.17874573320E+03 0.  0.
        -24    2    5    5    0    0 -0.38172502112E+02  0.13200438443E+02 -0.12686906818E+03  0.15860133292E+03  0.86181383429E+02 0.  0.
          5    1    3    3  501    0  0.68823422826E+02 -0.93621992453E+02 -0.12594219765E+04  0.12647796432E+04  0.47000000000E+01 0. -1.
        -11    1    4    4    0    0 -0.44852017601E+02 -0.40986797333E+02 -0.29195846013E+03  0.29821362055E+03  0.00000000000E+00 0.  1.
         12    1    4    4    0    0  0.31568929602E+02 -0.87623309172E+01 -0.12906473174E+03  0.13315810430E+03  0.00000000000E+00 0. -1.
         -5    1    5    5    0  502 -0.17367832714E+02  0.13017068226E+03 -0.71973722499E+02  0.14982775065E+03  0.47000000000E+01 0.  1.
         13    1    6    6    0    0 -0.10904144335E+02  0.26682300708E+01  0.12150047083E+02  0.16542172152E+02  0.00000000000E+00 0. -1.
        -14    1    6    6    0    0 -0.27268357777E+02  0.10532208372E+02 -0.13901911526E+03  0.14205916076E+03  0.00000000000E+00 0.  1.
</event>
<event>
12    1  0.8133495E-002  0.2377065E+03  0.7818608E-02  0.1121918E+00
         21   -1    0    0  501  502  0.00000000000E+00  0.00000000000E+00  0.11364540080E+03  0.11364540080E+03  0.00000000000E+00 0.  1.
         21   -1    0    0  502  503 -0.00000000000E+00 -0.00000000000E+00 -0.15022349331E+04  0.15022349331E+04  0.00000000000E+00 0. -1.
         -6    2    1    2    0  503  0.14061444348E+03  0.83836928277E+02 -0.13591589637E+04  0.13797889136E+04  0.17234646843E+03 0.  0.
        -24    2    3    3    0    0  0.14018773680E+03  0.51196960952E+02 -0.73961240326E+03  0.75936520345E+03  0.85646218778E+02 0.  0.
          6    2    1    2  501    0 -0.14061444348E+03 -0.83836928277E+02 -0.29430568643E+02  0.23609142037E+03  0.16754685358E+03 0.  0.
         24    2    5    5    0    0 -0.10886831432E+03 -0.66846917552E+02  0.42189005227E+02  0.15579241326E+03  0.78552807838E+02 0.  0.
          5    1    5    5  501    0 -0.31746129158E+02 -0.16990010725E+02 -0.71619573870E+02  0.80299007106E+02  0.47000000000E+01 0. -1.
        -13    1    6    6    0    0 -0.52520371426E+02  0.72787602916E+01 -0.12718308399E+01  0.53037602885E+02  0.00000000000E+00 0.  1.
         14    1    6    6    0    0 -0.56347942893E+02 -0.74125677844E+02  0.43460836067E+02  0.10275481038E+03  0.00000000000E+00 0. -1.
         -5    1    3    3    0  503  0.42670667909E+00  0.32639967325E+02 -0.61954656041E+03  0.62042371010E+03  0.47000000000E+01 0.  1.
         13    1    4    4    0    0  0.10457645475E+03  0.25515863817E+02 -0.65748393163E+03  0.66623750611E+03  0.00000000000E+00 0. -1.
        -14    1    4    4    0    0  0.35611282049E+02  0.25681097135E+02 -0.82128471628E+02  0.93127697336E+02  0.00000000000E+00 0.  1.
</event>
<event>
12    1  0.8133495E-002  0.1738234E+03  0.7818608E-02  0.1174403E+00
         21   -1    0    0  501  502  0.00000000000E+00  0.00000000000E+00  0.14503186941E+03  0.14503186941E+03  0.00000000000E+00 0.  1.
         21   -1    0    0  502  503 -0.00000000000E+00 -0.00000000000E+00 -0.30514683176E+03  0.30514683176E+03  0.00000000000E+00 0.  1.
         -6    2    1    2    0  503  0.19674481486E+01 -0.16385838137E+02 -0.20862237808E+03  0.27154717108E+03  0.17303815458E+03 0.  0.
        -24    2    3    3    0    0 -0.30946740003E+02 -0.65878304011E+02 -0.16764715820E+03  0.19920142757E+03  0.79233751874E+02 0.  0.
          6    2    1    2  501    0 -0.19674481486E+01  0.16385838137E+02  0.48507415725E+02  0.17863153009E+03  0.17112535644E+03 0.  0.
         24    2    5    5    0    0  0.63322576511E+00  0.35248292533E+02  0.95355636551E+02  0.12784372166E+03  0.77514364111E+02 0.  0.
          5    1    5    5  501    0 -0.26006739137E+01 -0.18862454396E+02 -0.46848220826E+02  0.50787808431E+02  0.47000000000E+01 0. -1.
        -11    1    6    6    0    0 -0.37685434981E+02  0.17838344916E+02  0.36031423473E+02  0.55105916529E+02  0.00000000000E+00 0.  1.
         12    1    6    6    0    0  0.38318660746E+02  0.17409947617E+02  0.59324213078E+02  0.72737805127E+02  0.00000000000E+00 0. -1.
         -5    1    3    3    0  503  0.32914188151E+02  0.49492465874E+02 -0.40975219877E+02  0.72345743510E+02  0.47000000000E+01 0.  1.
         11    1    4    4    0    0 -0.97236660970E+01 -0.52948097009E+02 -0.34919349339E+02  0.64167060222E+02  0.00000000000E+00 0. -1.
        -12    1    4    4    0    0 -0.21223073906E+02 -0.12930207002E+02 -0.13272780886E+03  0.13503436735E+03  0.00000000000E+00 0.  1.
</event>
<event>
12    1  0.8133495E-002  0.1985407E+03  0.7818608E-02  0.1151082E+00
         21   -1    0    0  501  502  0.00000000000E+00  0.00000000000E+00  0.81767209533E+03  0.81767209533E+03  0.00000000000E+00 0. -1.
         21   -1    0    0  502  503 -0.00000000000E+00 -0.00000000000E+00 -0.56664417171E+02  0.56664417171E+02  0.00000000000E+00 0. -1.
         -6    2    1    2    0  503 -0.75823889198E+02 -0.63324552293E+02  0.55098640675E+03  0.58566579053E+03  0.17221828208E+03 0.  0.
        -24    2    3    3    0    0 -0.12167668027E+02 -0.72894884177E+02  0.19376558260E+03  0.22266095179E+03  0.81062211709E+02 0.  0.
          6    2    1    2  501    0  0.75823889198E+02  0.63324552293E+02  0.21002127141E+03  0.28867072196E+03  0.17164670163E+03 0.  0.
         24    2    5    5    0    0  0.37215613999E+02  0.61802611818E+02  0.40098554822E+02  0.11434707231E+03  0.79137817096E+02 0.  0.
          5    1    5    5  501    0  0.38608275199E+02  0.15219404741E+01  0.16992271658E+03  0.17432364965E+03  0.47000000000E+01 0. -1.
        -11    1    6    6    0    0 -0.11711777040E+00 -0.16943780003E+02  0.17410028650E+02  0.24294330510E+02  0.00000000000E+00 0.  1.
         12    1    6    6    0    0  0.37332731769E+02  0.78746391821E+02  0.22688526172E+02  0.90052741802E+02  0.00000000000E+00 0. -1.
         -5    1    3    3    0  503 -0.63656221171E+02  0.95703318844E+01  0.35722082415E+03  0.36300483874E+03  0.47000000000E+01 0.  1.
         13    1    4    4    0    0 -0.30757449624E+01 -0.89314723474E+02  0.14404315569E+03  0.16951404289E+03  0.00000000000E+00 0. -1.
        -14    1    4    4    0    0 -0.90919230648E+01  0.16419839297E+02  0.49722426915E+02  0.53146908902E+02  0.00000000000E+00 0.  1.
</event>
<event>
12    1  0.8133495E-002  0.2107529E+03  0.7818608E-02  0.1142633E+00
         21   -1    0    0  501  502  0.00000000000E+00  0.00000000000E+00  0.60838021371E+02  0.60838021371E+02  0.00000000000E+00 0.  1.
         21   -1    0    0  502  503 -0.00000000000E+00 -0.00000000000E+00 -0.70794937357E+03  0.70794937357E+03  0.00000000000E+00 0. -1.
         -6    2    1    2    0  503 -0.52859657663E+02 -0.11037467047E+03 -0.29405483116E+03  0.36178036904E+03  0.17158111902E+03 0.  0.
        -24    2    3    3    0    0 -0.99983143856E+02 -0.60856405303E+02 -0.18795543406E+03  0.23547972137E+03  0.80145635339E+02 0.  0.
          6    2    1    2  501    0  0.52859657663E+02  0.11037467047E+03 -0.35305652103E+03  0.40700702589E+03  0.16133536746E+03 0.  0.
         24    2    5    5    0    0 -0.19358245409E+02  0.97015501715E+02 -0.18008508785E+03  0.21903069864E+03  0.75875284771E+02 0.  0.
          5    1    5    5  501    0  0.72217903073E+02  0.13359168755E+02 -0.17297143318E+03  0.18797632726E+03  0.47000000000E+01 0. -1.
        -13    1    6    6    0    0 -0.31962606705E+02  0.72294637723E+01 -0.35007565019E+02  0.47952090490E+02  0.00000000000E+00 0.  1.
         14    1    6    6    0    0  0.12604361295E+02  0.89786037943E+02 -0.14507752284E+03  0.17107860815E+03  0.00000000000E+00 0. -1.
         -5    1    3    3    0  503  0.47123486193E+02 -0.49518265168E+02 -0.10609939710E+03  0.12630064767E+03  0.47000000000E+01 0.  1.
         13    1    4    4    0    0 -0.47229156875E+02 -0.57721532496E+01 -0.13360589734E+03  0.14182540963E+03  0.00000000000E+00 0. -1.
        -14    1    4    4    0    0 -0.52753986981E+02 -0.55084252053E+02 -0.54349536717E+02  0.93654311743E+02  0.00000000000E+00 0.  1.
</event>
<event>
12    1  0.8133495E-002  0.2150480E+03  0.7818608E-02  0.1138557E+00
         21   -1    0    0  503  502  0.00000000000E+00  0.00000000000E+00  0.12163717088E+03  0.12163717088E+03  0.00000000000E+00 0.  1.
         21   -1    0    0  501  503 -0.00000000000E+00 -0.00000000000E+00 -0.56254517115E+03  0.56254517115E+03  0.00000000000E+00 0.  1.
          6    2    1    2  501    0  0.75790951043E+02 -0.93532607991E+02 -0.42128054303E+03  0.47299359586E+03  0.17819379554E+03 0.  0.
         24    2    3    3    0    0  0.91131692876E+01  0.11757887699E+02 -0.23002215166E+03  0.24466515406E+03  0.82033831927E+02 0.  0.
         -6    2    1    2    0  502 -0.75790951043E+02  0.93532607991E+02 -0.19627457235E+02  0.21118874618E+03  0.17240311023E+03 0.  0.
        -24    2    5    5    0    0 -0.65036905908E+02  0.60627313397E+02  0.52395224860E+02  0.13114023192E+03  0.80913723063E+02 0.  0.
          5    1    3    3  501    0  0.66677781755E+02 -0.10529049569E+03 -0.19125839137E+03  0.22832844179E+03  0.47000000000E+01 0. -1.
        -11    1    4    4    0    0  0.31636364117E+02 -0.23405518190E+02 -0.14006272521E+03  0.14548623580E+03  0.00000000000E+00 0.  1.
         12    1    4    4    0    0 -0.22523194829E+02  0.35163405889E+02 -0.89959426455E+02  0.99178918260E+02  0.00000000000E+00 0. -1.
         -5    1    5    5    0  502 -0.10754045135E+02  0.32905294594E+02 -0.72022682094E+02  0.80048514259E+02  0.47000000000E+01 0.  1.
         11    1    6    6    0    0  0.10381758732E+02  0.33026330986E+01  0.32586848314E+02  0.34359729085E+02  0.00000000000E+00 0. -1.
        -12    1    6    6    0    0 -0.75418664640E+02  0.57324680298E+02  0.19808376546E+02  0.96780502834E+02  0.00000000000E+00 0.  1.
</event>
<event>
12    1  0.8133495E-002  0.1884398E+03  0.7818608E-02  0.1160083E+00
         21   -1    0    0  501  502  0.00000000000E+00  0.00000000000E+00  0.94090039611E+03  0.94090039611E+03  0.00000000000E+00 0.  1.
         21   -1    0    0  502  503 -0.00000000000E+00 -0.00000000000E+00 -0.38091682144E+02  0.38091682144E+02  0.00000000000E+00 0.  1.
         -6    2    1    2    0  503  0.55594952534E+02 -0.51263316794E+02  0.39458453216E+03  0.43727166213E+03  0.17260019435E+03 0.  0.
        -24    2    3    3    0    0 -0.19245442826E+02  0.17948341173E+02  0.21146995683E+03  0.22764252276E+03  0.80056514454E+02 0.  0.
          6    2    1    2  501    0 -0.55594952534E+02  0.51263316794E+02  0.50822418181E+03  0.54172041612E+03  0.17161137454E+03 0.  0.
         24    2    5    5    0    0  0.23676387125E+02  0.40260584587E+01  0.16197928796E+03  0.18335897793E+03  0.82501179422E+02 0.  0.
          5    1    5    5  501    0 -0.79271339658E+02  0.47237258335E+02  0.34624489385E+03  0.35836143819E+03  0.47000000000E+01 0. -1.
        -13    1    6    6    0    0  0.43671799089E+01  0.53440960623E+01  0.16377624514E+03  0.16392159741E+03  0.00000000000E+00 0.  1.
         14    1    6    6    0    0  0.19309207216E+02 -0.13180376035E+01 -0.17969571863E+01  0.19437380522E+02  0.00000000000E+00 0. -1.
         -5    1    3    3    0  503  0.74840395360E+02 -0.69211657966E+02  0.18311457533E+03  0.20962913937E+03  0.47000000000E+01 0.  1.
         11    1    4    4    0    0  0.13246355870E+02  0.41521068723E+02  0.97100744076E+02  0.10643316960E+03  0.00000000000E+00 0. -1.
        -12    1    4    4    0    0 -0.32491798696E+02 -0.23572727550E+02  0.11436921276E+03  0.12120935316E+03  0.00000000000E+00 0.  1.
</event>
<event>
12    1  0.8133495E-002  0.2199682E+03  0.7818608E-02  0.1134921E+00
         21   -1    0    0  501  502  0.00000000000E+00  0.00000000000E+00  0.23170756320E+03  0.23170756320E+03  0.00000000000E+00 0. -1.
         21   -1    0    0  502  503 -0.00000000000E+00 -0.00000000000E+00 -0.30321600070E+03  0.30321600070E+03  0.00000000000E+00 0.  1.
         -6    2    1    2    0  503 -0.10482471620E+03 -0.76771944455E+02 -0.18922660167E+03  0.29015978140E+03  0.17749320940E+03 0.  0.
        -24    2    3    3    0    0 -0.70397710138E+02 -0.64499210584E+02 -0.31367247273E+02  0.12805640539E+03  0.79363423578E+02 0.  0.
          6    2    1    2  501    0  0.10482471620E+03  0.76771944455E+02  0.11771816417E+03  0.24476378251E+03  0.17079107257E+03 0.  0.
         24    2    5    5    0    0  0.13375516094E+03  0.31114228493E+02  0.82066266739E+02  0.17984271158E+03  0.82158325680E+02 0.  0.
          5    1    5    5  501    0 -0.28930444743E+02  0.45657715962E+02  0.35651897428E+02  0.64921070926E+02  0.47000000000E+01 0. -1.
        -11    1    6    6    0    0  0.24800771176E+02 -0.90320264427E+01 -0.13326517665E+02  0.29567749756E+02  0.00000000000E+00 0.  1.
         12    1    6    6    0    0  0.10895438977E+03  0.40146254935E+02  0.95392784404E+02  0.15027496182E+03  0.00000000000E+00 0. -1.
         -5    1    3    3    0  503 -0.34427006062E+02 -0.12272733871E+02 -0.15785935440E+03  0.16210337601E+03  0.47000000000E+01 0.  1.
         13    1    4    4    0    0 -0.46626666363E+02 -0.82205463290E+02 -0.24433312286E+02  0.97615423782E+02  0.00000000000E+00 0. -1.
        -14    1    4    4    0    0 -0.23771043775E+02  0.17706252706E+02 -0.69339349868E+01  0.30440981611E+02  0.00000000000E+00 0.  1.
</event>
<event>
12    1  0.8133495E-002  0.1990263E+03  0.7818608E-02  0.1151153E+00
         21   -1    0    0  503  502  0.00000000000E+00  0.00000000000E+00  0.37845198825E+03  0.37845198825E+03  0.00000000000E+00 0. -1.
         21   -1    0    0  501  503 -0.00000000000E+00 -0.00000000000E+00 -0.29751489934E+03  0.29751489934E+03  0.00000000000E+00 0.  1.
          6    2    1    2  501    0 -0.94848277369E+02 -0.36666859182E+02 -0.23256194615E+03  0.30609890027E+03  0.17108718148E+03 0.  0.
         24    2    3    3    0    0  0.87360806731E+01 -0.22716592502E+01 -0.53292428735E+02  0.96164627497E+02  0.79536614712E+02 0.  0.
         -6    2    1    2    0  502  0.94848277369E+02  0.36666859182E+02  0.31349903506E+03  0.36986798733E+03  0.16786908227E+03 0.  0.
        -24    2    5    5    0    0  0.88159545130E+02 -0.34144623474E+02  0.23288237004E+03  0.26225691961E+03  0.74876784787E+02 0.  0.
          5    1    3    3  501    0 -0.10358435804E+03 -0.34395199932E+02 -0.17926951742E+03  0.20993427277E+03  0.47000000000E+01 0. -1.
        -13    1    4    4    0    0  0.33084941634E+02  0.70958058195E+01 -0.60305378764E+02  0.69149855611E+02  0.00000000000E+00 0.  1.
         14    1    4    4    0    0 -0.24348860961E+02 -0.93674650697E+01  0.70129500287E+01  0.27014771886E+02  0.00000000000E+00 0. -1.
         -5    1    5    5    0  502  0.66887322392E+01  0.70811482656E+02  0.80616665027E+02  0.10761106772E+03  0.47000000000E+01 0.  1.
         11    1    6    6    0    0 -0.37766331977E+01  0.99798528990E+01  0.64692815251E+02  0.65566918238E+02  0.00000000000E+00 0. -1.
        -12    1    6    6    0    0  0.91936178328E+02 -0.44124476373E+02  0.16818955478E+03  0.19669000137E+03  0.00000000000E+00 0.  1.
</event>
<event>
12    1  0.8133495E-002  0.1997784E+03  0.7818608E-02  0.1150216E+00
         21   -1    0    0  501  502  0.00000000000E+00  0.00000000000E+00  0.19068254363E+04  0.19068254363E+04  0.00000000000E+00 0. -1.
         21   -1    0    0  502  503 -0.00000000000E+00 -0.00000000000E+00 -0.27883597321E+02  0.27883597321E+02  0.00000000000E+00 0. -1.
         -6    2    1    2    0  503  0.95486735545E+02  0.34381063512E+02  0.44907007625E+03  0.49094843130E+03  0.17048945602E+03 0.  0.
        -24    2    3    3    0    0  0.10140634162E+03  0.65992026703E+02  0.42907569533E+03  0.45278876675E+03  0.79205563332E+02 0.  0.
          6    2    1    2  501    0 -0.95486735545E+02 -0.34381063512E+02  0.14298717628E+04  0.14437606024E+04  0.17208034399E+03 0.  0.
         24    2    5    5    0    0 -0.59098007982E+02  0.34066714355E+02  0.51505854668E+03  0.52565682385E+03  0.79854081806E+02 0.  0.
          5    1    5    5  501    0 -0.36388727563E+02 -0.68447777868E+02  0.91481321609E+03  0.91810377852E+03  0.47000000000E+01 0. -1.
        -11    1    6    6    0    0 -0.16841361739E+02  0.54446538861E+02  0.32002635078E+03  0.32506141305E+03  0.00000000000E+00 0.  1.
         12    1    6    6    0    0 -0.42256646243E+02 -0.20379824506E+02  0.19503219589E+03  0.20059541080E+03  0.00000000000E+00 0. -1.
         -5    1    3    3    0  503 -0.59196060784E+01 -0.31610963191E+02  0.19994380927E+02  0.38159664550E+02  0.47000000000E+01 0.  1.
         13    1    4    4    0    0  0.56463440153E+02  0.69539950224E+02  0.19748371327E+03  0.21684958325E+03  0.00000000000E+00 0. -1.
        -14    1    4    4    0    0  0.44942901470E+02 -0.35479235207E+01  0.23159198206E+03  0.23593918350E+03  0.00000000000E+00 0.  1.
</event>
<event>
12    1  0.8133495E-002  0.2228823E+03  0.7818608E-02  0.1132102E+00
         21   -1    0    0  501  502  0.00000000000E+00  0.00000000000E+00  0.12095277301E+03  0.12095277301E+03  0.00000000000E+00 0. -1.
         21   -1    0    0  502  503 -0.00000000000E+00 -0.00000000000E+00 -0.40721786544E+03  0.40721786544E+03  0.00000000000E+00 0.  1.
         -6    2    1    2    0  503  0.13115382385E+03  0.47560160080E+02 -0.14348708551E+03  0.26507559905E+03  0.17381954771E+03 0.  0.
        -24    2    3    3    0    0  0.86873598737E+02  0.75551280998E+02 -0.35005712223E+02  0.14451632095E+03  0.80028425667E+02 0.  0.
          6    2    1    2  501    0 -0.13115382385E+03 -0.47560160080E+02 -0.14277800692E+03  0.26309503940E+03  0.17137720431E+03 0.  0.
         24    2    5    5    0    0 -0.91631326079E+01 -0.55521378656E+02 -0.74039434147E+02  0.12276617160E+03  0.80144298566E+02 0.  0.
          5    1    5    5  501    0 -0.12199069124E+03  0.79612185756E+01 -0.68738572773E+02  0.14032886780E+03  0.47000000000E+01 0. -1.
        -13    1    6    6    0    0  0.18042246517E+02 -0.85297981255E+01 -0.64651911215E+02  0.67662025828E+02  0.00000000000E+00 0.  1.
         14    1    6    6    0    0 -0.27205379125E+02 -0.46991580531E+02 -0.93875229321E+01  0.55104145769E+02  0.00000000000E+00 0. -1.
         -5    1    3    3    0  503  0.44280225115E+02 -0.27991120918E+02 -0.10848137329E+03  0.12055927810E+03  0.47000000000E+01 0.  1.
         11    1    4    4    0    0  0.56069150486E+02  0.73607207592E+02 -0.55093368561E+02  0.10768959980E+03  0.00000000000E+00 0. -1.
        -12    1    4    4    0    0  0.30804448251E+02  0.19440734060E+01  0.20087656338E+02  0.36826721150E+02  0.00000000000E+00 0.  1.
</event>
<event>
12    1  0.8133495E-002  0.1844382E+03  0.7818608E-02  0.1165393E+00
         21   -1    0    0  501  502  0.00000000000E+00  0.00000000000E+00  0.10987066027E+04  0.10987066027E+04  0.00000000000E+00 0.  1.
         21   -1    0    0  502  503 -0.00000000000E+00 -0.00000000000E+00 -0.51775245926E+02  0.51775245926E+02  0.00000000000E+00 0.  1.
         -6    2    1    2    0  503  0.30125746611E+02  0.28744451017E+02  0.15421613834E+03  0.24041644332E+03  0.17967650047E+03 0.  0.
        -24    2    3    3    0    0 -0.19655601882E+02  0.78064197124E+02  0.80925416974E+02  0.13890664156E+03  0.79156619435E+02 0.  0.
          6    2    1    2  501    0 -0.30125746611E+02 -0.28744451017E+02  0.89271521845E+03  0.91006540532E+03  0.17188594078E+03 0.  0.
         24    2    5    5    0    0 -0.31413661793E+02 -0.73896613958E+02  0.41055875160E+03  0.42577486745E+03  0.79235229149E+02 0.  0.
          5    1    5    5  501    0  0.12879151826E+01  0.45152162942E+02  0.48215646685E+03  0.48429053787E+03  0.47000000000E+01 0. -1.
        -11    1    6    6    0    0 -0.14619166028E+02  0.89790786471E+01  0.16849924605E+03  0.16937042182E+03  0.00000000000E+00 0.  1.
         12    1    6    6    0    0 -0.16794495766E+02 -0.82875692605E+02  0.24205950555E+03  0.25640444563E+03  0.00000000000E+00 0. -1.
         -5    1    3    3    0  503  0.49781348493E+02 -0.49319746108E+02  0.73290721368E+02  0.10150980176E+03  0.47000000000E+01 0.  1.
         11    1    4    4    0    0 -0.12560701718E+02 -0.14540040271E+02  0.20541338080E+02  0.28127043372E+02  0.00000000000E+00 0. -1.
        -12    1    4    4    0    0 -0.70949001643E+01  0.92604237395E+02  0.60384078893E+02  0.11077959819E+03  0.00000000000E+00 0.  1.
</event>
<event>
12    1  0.8133495E-002  0.2545007E+03  0.7818608E-02  0.1110605E+00
         21   -1    0    0  501  502  0.00000000000E+00  0.00000000000E+00  0.13566282135E+03  0.13566282135E+03  0.00000000000E+00 0. -1.
         21   -1    0    0  502  503 -0.00000000000E+00 -0.00000000000E+00 -0.49237886158E+03  0.49237886158E+03  0.00000000000E+00 0. -1.
         -6    2    1    2    0  503  0.40878142250E+02 -0.18342047026E+03 -0.23524010589E+03  0.34603634955E+03  0.17055543488E+03 0.  0.
        -24    2    3    3    0    0  0.91593301732E+02 -0.14710344582E+03 -0.16636524500E+03  0.25299447657E+03  0.79372877843E+02 0.  0.
          6    2    1    2  501    0 -0.40878142250E+02  0.18342047026E+03 -0.12147593435E+03  0.28200533338E+03  0.17162900106E+03 0.  0.
         24    2    5    5    0    0  0.26525197836E+02  0.16256872685E+03 -0.77202436902E+02  0.19857729232E+03  0.79627556126E+02 0.  0.
          5    1    5    5  501    0 -0.67403340086E+02  0.20851743412E+02 -0.44273497446E+02  0.83428041055E+02  0.47000000000E+01 0. -1.
        -11    1    6    6    0    0  0.19033481831E+02  0.12059549929E+03 -0.92613496016E+02  0.15324101123E+03  0.00000000000E+00 0.  1.
         12    1    6    6    0    0  0.74917160053E+01  0.41973227555E+02  0.15411059113E+02  0.45336281090E+02  0.00000000000E+00 0. -1.
         -5    1    3    3    0  503 -0.50715159483E+02 -0.36317024442E+02 -0.68874860888E+02  0.93041872982E+02  0.47000000000E+01 0.  1.
         13    1    4    4    0    0  0.36853555214E+02 -0.11699031116E+03 -0.13723602494E+03  0.18406152226E+03  0.00000000000E+00 0. -1.
        -14    1    4    4    0    0  0.54739746518E+02 -0.30113134655E+02 -0.29129220060E+02  0.68932954303E+02  0.00000000000E+00 0.  1.
</event>
<event>
12    1  0.8133495E-002  0.2160524E+03  0.7818608E-02  0.1137751E+00
         21   -1    0    0  501  502  0.00000000000E+00  0.00000000000E+00  0.39801303884E+03  0.39801303884E+03  0.00000000000E+00 0. -1.
         21   -1    0    0  502  503 -0.00000000000E+00 -0.00000000000E+00 -0.14348378981E+03  0.14348378981E+03  0.00000000000E+00 0.  1.
         -6    2    1    2    0  503  0.59143141925E+02 -0.10762340512E+03  0.50927002328E+01  0.21150101980E+03  0.17212215783E+03 0.  0.
        -24    2    3    3    0    0  0.14736505296E+02 -0.13092881153E+03 -0.20834317198E+02  0.15484952752E+03  0.78643430247E+02 0.  0.
          6    2    1    2  501    0 -0.59143141925E+02  0.10762340512E+03  0.24943654880E+03  0.32999580886E+03  0.17775807555E+03 0.  0.
         24    2    5    5    0    0 -0.98276099533E+02  0.11732117525E+03  0.22127794356E+03  0.28059507844E+03  0.79669441059E+02 0.  0.
          5    1    5    5  501    0  0.39132957608E+02 -0.96977701372E+01  0.28158605243E+02  0.49400730420E+02  0.47000000000E+01 0. -1.
        -13    1    6    6    0    0 -0.37247142485E+02  0.22559732804E+02  0.15970252502E+02  0.46382541246E+02  0.00000000000E+00 0.  1.
         14    1    6    6    0    0 -0.61028957049E+02  0.94761442449E+02  0.20530769105E+03  0.23421253719E+03  0.00000000000E+00 0. -1.
         -5    1    3    3    0  503  0.44406636629E+02  0.23305406417E+02  0.25927017431E+02  0.56651492283E+02  0.47000000000E+01 0.  1.
         11    1    4    4    0    0 -0.31692573699E+02 -0.47219746156E+02 -0.15663879874E+02  0.58987123912E+02  0.00000000000E+00 0. -1.
        -12    1    4    4    0    0  0.46429078995E+02 -0.83709065377E+02 -0.51704373244E+01  0.95862403604E+02  0.00000000000E+00 0.  1.
</event>
<event>
12    1  0.8133495E-002  0.2149717E+03  0.7818608E-02  0.1138064E+00
         21   -1    0    0  503  502  0.00000000000E+00  0.00000000000E+00  0.17850833066E+03  0.17850833066E+03  0.00000000000E+00 0.  1.
         21   -1    0    0  501  503 -0.00000000000E+00 -0.00000000000E+00 -0.26786325153E+03  0.26786325153E+03  0.00000000000E+00 0.  1.
          6    2    1    2  501    0 -0.83641025660E+02 -0.93287723357E+02 -0.90361173537E+02  0.23139747771E+03  0.17228241496E+03 0.  0.
         24    2    3    3    0    0  0.99144536886E+01 -0.94062490037E+02 -0.48461778146E+02  0.12877741479E+03  0.72725718931E+02 0.  0.
         -6    2    1    2    0  502  0.83641025660E+02  0.93287723357E+02  0.10062526675E+01  0.21497410448E+03  0.17468380735E+03 0.  0.
        -24    2    5    5    0    0  0.19091250267E+02  0.11488734921E+03 -0.22284240035E+02  0.14287865115E+03  0.79712876977E+02 0.  0.
          5    1    3    3  501    0 -0.93555479349E+02  0.77476667957E+00 -0.41899395391E+02  0.10262006292E+03  0.47000000000E+01 0. -1.
        -13    1    4    4    0    0 -0.22535109719E+02 -0.50427444070E+02 -0.49819278189E+02  0.74382247645E+02  0.00000000000E+00 0.  1.
         14    1    4    4    0    0  0.32449563408E+02 -0.43635045967E+02  0.13575000433E+01  0.54395167141E+02  0.00000000000E+00 0. -1.
         -5    1    5    5    0  502  0.64549775394E+02 -0.21599625855E+02  0.23290492703E+02  0.72095453329E+02  0.47000000000E+01 0.  1.
         11    1    6    6    0    0 -0.13852838724E+02  0.46923964166E+02  0.23794187754E+02  0.54405173694E+02  0.00000000000E+00 0. -1.
        -12    1    6    6    0    0  0.32944088991E+02  0.67963385046E+02 -0.46078427789E+02  0.88473477460E+02  0.00000000000E+00 0.  1.
</event>
<event>
12    1  0.8133495E-002  0.1905355E+03  0.7818608E-02  0.1158936E+00
         21   -1    0    0  501  502  0.00000000000E+00  0.00000000000E+00  0.16415441587E+04  0.16415441587E+04  0.00000000000E+00 0. -1.
         21   -1    0    0  502  503 -0.00000000000E+00 -0.00000000000E+00 -0.34995232563E+02  0.34995232563E+02  0.00000000000E+00 0. -1.
         -6    2    1    2    0  503  0.24103197980E+01  0.70447098125E+02  0.29078917684E+03  0.34765231136E+03  0.17701745944E+03 0.  0.
        -24    2    3    3    0    0 -0.61906099413E+02  0.91229021619E+01  0.15178363485E+03  0.18260113900E+03  0.79933170018E+02 0.  0.
          6    2    1    2  501    0 -0.24103197980E+01 -0.70447098125E+02  0.13157597493E+04  0.13288870799E+04  0.17247767971E+03 0.  0.
         24    2    5    5    0    0  0.24730542867E+02 -0.38373753589E+02  0.26860276061E+03  0.28087697746E+03  0.68266307572E+02 0.  0.
          5    1    5    5  501    0 -0.27140862665E+02 -0.32073344536E+02  0.10471569887E+04  0.10480101025E+04  0.47000000000E+01 0. -1.
        -11    1    6    6    0    0 -0.76194413825E+01 -0.44077649943E+02  0.19824106520E+03  0.20322503548E+03  0.00000000000E+00 0.  1.
         12    1    6    6    0    0  0.32349984250E+02  0.57038963542E+01  0.70361695403E+02  0.77651941989E+02  0.00000000000E+00 0. -1.
         -5    1    3    3    0  503  0.64316419211E+02  0.61324195963E+02  0.13900554199E+03  0.16505117236E+03  0.47000000000E+01 0.  1.
         11    1    4    4    0    0 -0.28776899312E+02 -0.30840866051E+02  0.10326097999E+03  0.11154415692E+03  0.00000000000E+00 0. -1.
        -12    1    4    4    0    0 -0.33129200101E+02  0.39963768213E+02  0.48522654851E+02  0.71056982084E+02  0.00000000000E+00 0.  1.
</event>
<event>
12    1  0.8133495E-002  0.2275543E+03  0.7818608E-02  0.1128503E+00
         21   -1    0    0  503  502  0.00000000000E+00  0.00000000000E+00  0.77083167489E+03  0.77083167489E+03  0.00000000000E+00 0.  1.
         21   -1    0    0  501  503 -0.00000000000E+00 -0.00000000000E+00 -0.12104910330E+03  0.12104910330E+03  0.00000000000E+00 0. -1.
          6    2    1    2  501    0  0.13943811437E+03 -0.53629112254E+02  0.27089790265E+02  0.22916115067E+03  0.17164471101E+03 0.  0.
         24    2    3    3    0    0  0.45397956036E+02 -0.48969888934E+02  0.70789478276E+02  0.12525247695E+03  0.78854348722E+02 0.  0.
         -6    2    1    2    0  502 -0.13943811437E+03  0.53629112254E+02  0.62269278132E+03  0.66271962752E+03  0.17068079965E+03 0.  0.
        -24    2    5    5    0    0 -0.27154354158E+02  0.70354931371E+02  0.35857546275E+03  0.37520016069E+03  0.80694626720E+02 0.  0.
          5    1    3    3  501    0  0.94040158339E+02 -0.46592233208E+01 -0.43699688011E+02  0.10390867372E+03  0.47000000000E+01 0. -1.
        -11    1    4    4    0    0  0.45257002537E+02  0.62338329559E+01  0.18735084293E+02  0.49376718557E+02  0.00000000000E+00 0.  1.
         12    1    4    4    0    0  0.14095349883E+00 -0.55203721889E+02  0.52054393983E+02  0.75875758390E+02  0.00000000000E+00 0. -1.
         -5    1    5    5    0  502 -0.11228376022E+03 -0.16725819117E+02  0.26411731857E+03  0.28751946683E+03  0.47000000000E+01 0.  1.
         13    1    6    6    0    0 -0.55568349816E+01 -0.11160630644E+02  0.14566763443E+03  0.14620019771E+03  0.00000000000E+00 0. -1.
        -14    1    6    6    0    0 -0.21597519177E+02  0.81515562015E+02  0.21290782832E+03  0.22899996298E+03  0.00000000000E+00 0.  1.
</event>
<event>
12    1  0.8133495E-002  0.1887772E+03  0.7818608E-02  0.1162479E+00
         21   -1    0    0  501  502  0.00000000000E+00  0.00000000000E+00  0.30332367832E+03  0.30332367832E+03  0.00000000000E+00 0.  1.
         21   -1    0    0  502  503 -0.00000000000E+00 -0.00000000000E+00 -0.14757006350E+03  0.14757006350E+03  0.00000000000E+00 0.  1.
         -6    2    1    2    0  503  0.18232716735E+02  0.33549551052E+02 -0.37895157713E+02  0.18045582295E+03  0.17225056378E+03 0.  0.
        -24    2    3    3    0    0  0.38648536363E+02  0.83843578027E+02 -0.23354777357E+02  0.12406604106E+03  0.79520324319E+02 0.  0.
          6    2    1    2  501    0 -0.18232716735E+02 -0.33549551052E+02  0.19364877254E+03  0.27043791887E+03  0.18487513765E+03 0.  0.
         24    2    5    5    0    0  0.25245009761E+02 -0.85814170875E+02  0.13556379852E+03  0.18089542955E+03  0.79650678103E+02 0.  0.
          5    1    5    5  501    0 -0.43477726495E+02  0.52264619823E+02  0.58084974018E+02  0.89542489318E+02  0.47000000000E+01 0. -1.
        -11    1    6    6    0    0  0.54165903207E+02 -0.57861512960E+02  0.83839723410E+02  0.11537330269E+03  0.00000000000E+00 0.  1.
         12    1    6    6    0    0 -0.28920893446E+02 -0.27952657915E+02  0.51724075113E+02  0.65522126861E+02  0.00000000000E+00 0. -1.
         -5    1    3    3    0  503 -0.20415819628E+02 -0.50294026976E+02 -0.14540380356E+02  0.56389781888E+02  0.47000000000E+01 0.  1.
         11    1    4    4    0    0  0.84639143447E+01  0.98807290518E+01 -0.40347912766E+02  0.42393640056E+02  0.00000000000E+00 0. -1.
        -12    1    4    4    0    0  0.30184622018E+02  0.73962848976E+02  0.16993135409E+02  0.81672401005E+02  0.00000000000E+00 0.  1.
</event>
<event>
12    1  0.8133495E-002  0.1906609E+03  0.7818608E-02  0.1161954E+00
         21   -1    0    0  503  502  0.00000000000E+00  0.00000000000E+00  0.27934054158E+03  0.27934054158E+03  0.00000000000E+00 0.  1.
         21   -1    0    0  501  503 -0.00000000000E+00 -0.00000000000E+00 -0.12153202725E+03  0.12153202725E+03  0.00000000000E+00 0.  1.
          6    2    1    2  501    0 -0.14990395633E+02  0.21689955034E+02  0.44081367478E+02  0.17886936077E+03  0.17133567974E+03 0.  0.
         24    2    3    3    0    0 -0.18454554362E+02  0.68250990986E+02 -0.75785715134E+01  0.10907846049E+03  0.82715823455E+02 0.  0.
         -6    2    1    2    0  502  0.14990395633E+02 -0.21689955034E+02  0.11372714686E+03  0.22200320806E+03  0.18882900823E+03 0.  0.
        -24    2    5    5    0    0 -0.23566976312E+02 -0.57931082238E+02  0.46090830657E+01  0.10064039631E+03  0.78713614198E+02 0.  0.
          5    1    3    3  501    0  0.34641587297E+01 -0.46561035951E+02  0.51659938991E+02  0.69790900275E+02  0.47000000000E+01 0. -1.
        -13    1    4    4    0    0 -0.42088810460E+02  0.84093003247E+01 -0.12059962464E+02  0.44582810505E+02  0.00000000000E+00 0.  1.
         14    1    4    4    0    0  0.23634256097E+02  0.59841690661E+02  0.44813909507E+01  0.64495649987E+02  0.00000000000E+00 0. -1.
         -5    1    5    5    0  502  0.38557371944E+02  0.36241127203E+02  0.10911806379E+03  0.12136281176E+03  0.47000000000E+01 0.  1.
         11    1    6    6    0    0  0.27854102697E+02 -0.25266020973E+02  0.11518770172E+02  0.39330712162E+02  0.00000000000E+00 0. -1.
        -12    1    6    6    0    0 -0.51421079009E+02 -0.32665061265E+02 -0.69096871059E+01  0.61309684144E+02  0.00000000000E+00 0.  1.
</event>
<event>
12    1  0.8133495E-002  0.2415033E+03  0.7818608E-02  0.1119265E+00
         21   -1    0    0  501  502  0.00000000000E+00  0.00000000000E+00  0.36522253872E+03  0.36522253872E+03  0.00000000000E+00 0. -1.
         21   -1    0    0  502  503 -0.00000000000E+00 -0.00000000000E+00 -0.16017816362E+03  0.16017816362E+03  0.00000000000E+00 0.  1.
         -6    2    1    2    0  503  0.16030675030E+03 -0.63967291862E+02  0.13371064635E+03  0.27358263781E+03  0.16486010477E+03 0.  0.
        -24    2    3    3    0    0  0.14378147412E+03 -0.98549337034E+02  0.13616382782E+03  0.23489012303E+03  0.79042379501E+02 0.  0.
          6    2    1    2  501    0 -0.16030675030E+03  0.63967291862E+02  0.71333728752E+02  0.25181806453E+03  0.16891941317E+03 0.  0.
         24    2    5    5    0    0 -0.52007728788E+02 -0.26468096804E+02  0.18062350045E+02  0.10093013469E+03  0.80344754628E+02 0.  0.
          5    1    5    5  501    0 -0.10829902151E+03  0.90435388666E+02  0.53271378707E+02  0.15088792984E+03  0.47000000000E+01 0. -1.
        -13    1    6    6    0    0 -0.22862789985E+02  0.56377006912E+01 -0.28722444107E+02  0.37141212022E+02  0.00000000000E+00 0.  1.
         14    1    6    6    0    0 -0.29144938803E+02 -0.32105797495E+02  0.46784794152E+02  0.63788922663E+02  0.00000000000E+00 0. -1.
         -5    1    3    3    0  503  0.16525276173E+02  0.34582045173E+02 -0.24531814696E+01  0.38692514783E+02  0.47000000000E+01 0.  1.
         11    1    4    4    0    0  0.72036517535E+02 -0.59928395125E+02  0.11927057138E+03  0.15167775578E+03  0.00000000000E+00 0. -1.
        -12    1    4    4    0    0  0.71744956588E+02 -0.38620941910E+02  0.16893256443E+02  0.83212367248E+02  0.00000000000E+00 0.  1.
</event>
<event>
12    1  0.8133495E-002  0.1753011E+03  0.7818608E-02  0.1173120E+00
         21   -1    0    0  501  502  0.00000000000E+00  0.00000000000E+00  0.25778043515E+04  0.25778043515E+04  0.00000000000E+00 0.  1.
         21   -1    0    0  502  503 -0.00000000000E+00 -0.00000000000E+00 -0.15409554115E+02  0.15409554115E+02  0.00000000000E+00 0.  1.
         -6    2    1    2    0  503 -0.55993366256E+01  0.13823857104E+02  0.65580407692E+03  0.67882947811E+03  0.17466545581E+03 0.  0.
        -24    2    3    3    0    0 -0.36191058684E+02 -0.32643317162E+02  0.56197499914E+03  0.56964597396E+03  0.79405649059E+02 0.  0.
          6    2    1    2  501    0  0.55993366256E+01 -0.13823857104E+02  0.19065907205E+04  0.19143844275E+04  0.17192181160E+03 0.  0.
         24    2    5    5    0    0 -0.16991601085E+02  0.13986677703E+02  0.18141313168E+04  0.18151140510E+04  0.55517944053E+02 0.  0.
          5    1    5    5  501    0  0.22590937711E+02 -0.27810534806E+02  0.92459403716E+02  0.99270376490E+02  0.47000000000E+01 0. -1.
        -11    1    6    6    0    0 -0.16872885276E+00 -0.20554621825E+02  0.77550891378E+03  0.77578128123E+03  0.00000000000E+00 0.  1.
         12    1    6    6    0    0 -0.16822872232E+02  0.34541299528E+02  0.10386224030E+04  0.10393327698E+04  0.00000000000E+00 0. -1.
         -5    1    3    3    0  503  0.30591722058E+02  0.46467174266E+02  0.93829077773E+02  0.10918350415E+03  0.47000000000E+01 0.  1.
         13    1    4    4    0    0 -0.41515822988E+02 -0.44960806581E+02  0.24994986317E+03  0.25733241496E+03  0.00000000000E+00 0. -1.
        -14    1    4    4    0    0  0.53247643038E+01  0.12317489419E+02  0.31202513597E+03  0.31231355900E+03  0.00000000000E+00 0.  1.
</event>
<event>
12    1  0.8133495E-002  0.2068908E+03  0.7818608E-02  0.1144242E+00
         21   -1    0    0  501  502  0.00000000000E+00  0.00000000000E+00  0.15586685960E+04  0.15586685960E+04  0.00000000000E+00 0.  1.
         21   -1    0    0  502  503 -0.00000000000E+00 -0.00000000000E+00 -0.53043309444E+02  0.53043309444E+02  0.00000000000E+00 0. -1.
         -6    2    1    2    0  503 -0.10354548193E+03  0.49900708928E+02  0.19270128695E+03  0.28273236892E+03  0.17202342534E+03 0.  0.
        -24    2    3    3    0    0 -0.50270736202E+01  0.53535220706E+02  0.14732704093E+03  0.17410457021E+03  0.75603260860E+02 0.  0.
          6    2    1    2  501    0  0.10354548193E+03 -0.49900708928E+02  0.13129239996E+04  0.13289795365E+04  0.17089596885E+03 0.  0.
         24    2    5    5    0    0  0.11919951287E+03 -0.82096606550E+02  0.11610417710E+04  0.11728644320E+04  0.81514446882E+02 0.  0.
          5    1    5    5  501    0 -0.15654030944E+02  0.32195897622E+02  0.15188222859E+03  0.15611510455E+03  0.47000000000E+01 0. -1.
        -13    1    6    6    0    0  0.77062500806E+02 -0.10858357060E+02  0.71367899012E+03  0.71790962794E+03  0.00000000000E+00 0.  1.
         14    1    6    6    0    0  0.42137012067E+02 -0.71238249489E+02  0.44736278089E+03  0.45495480402E+03  0.00000000000E+00 0. -1.
         -5    1    3    3    0  503 -0.98518408309E+02 -0.36345117784E+01  0.45374246017E+02  0.10862779871E+03  0.47000000000E+01 0.  1.
         13    1    4    4    0    0 -0.23135982592E+02  0.20251341557E+02  0.11073498085E+02  0.32680466416E+02  0.00000000000E+00 0. -1.
        -14    1    4    4    0    0  0.18108908972E+02  0.33283879149E+02  0.13625354284E+03  0.14142410379E+03  0.00000000000E+00 0.  1.
</event>
<event>
12    1  0.8133495E-002  0.1754330E+03  0.7818608E-02  0.1172392E+00
         21   -1    0    0  503  502  0.00000000000E+00  0.00000000000E+00  0.52004725425E+03  0.52004725425E+03  0.00000000000E+00 0.  1.
         21   -1    0    0  501  503 -0.00000000000E+00 -0.00000000000E+00 -0.63382246184E+02  0.63382246184E+02  0.00000000000E+00 0.  1.
          6    2    1    2  501    0  0.14414436207E+02 -0.28086839750E+02  0.15232556742E+03  0.23233557369E+03  0.17256909854E+03 0.  0.
         24    2    3    3    0    0  0.46284018763E+02 -0.40312076116E+02  0.16698243329E+03  0.19489174357E+03  0.79576282982E+02 0.  0.
         -6    2    1    2    0  502 -0.14414436207E+02  0.28086839750E+02  0.30433944064E+03  0.35109392674E+03  0.17218537606E+03 0.  0.
        -24    2    5    5    0    0 -0.10626564344E+02  0.85417361064E+02  0.21393952278E+03  0.24387745508E+03  0.79353917650E+02 0.  0.
          5    1    3    3  501    0 -0.31869582556E+02  0.12225236366E+02 -0.14656865867E+02  0.37443830112E+02  0.47000000000E+01 0. -1.
        -11    1    4    4    0    0  0.49531046324E+02  0.12252480254E+01  0.48647338053E+02  0.69436224569E+02  0.00000000000E+00 0.  1.
         12    1    4    4    0    0 -0.32470275615E+01 -0.41537324141E+02  0.11833509523E+03  0.12545551900E+03  0.00000000000E+00 0. -1.
         -5    1    5    5    0  502 -0.37878718635E+01 -0.57330521314E+02  0.90399917861E+02  0.10721647167E+03  0.47000000000E+01 0.  1.
         13    1    6    6    0    0 -0.35413499617E+02  0.67561481005E+02  0.99178801240E+02  0.12512035920E+03  0.00000000000E+00 0. -1.
        -14    1    6    6    0    0  0.24786935273E+02  0.17855880060E+02  0.11476072154E+03  0.11875709588E+03  0.00000000000E+00 0.  1.
</event>
<event>
12    1  0.8133495E-002  0.1899679E+03  0.7818608E-02  0.1158574E+00
         21   -1    0    0  501  502  0.00000000000E+00  0.00000000000E+00  0.34758446065E+02  0.34758446065E+02  0.00000000000E+00 0. -1.
         21   -1    0    0  502  503 -0.00000000000E+00 -0.00000000000E+00 -0.10480138984E+04  0.10480138984E+04  0.00000000000E+00 0. -1.
         -6    2    1    2    0  503 -0.72009273869E+02  0.34537311629E+02 -0.56455572005E+03  0.59566010355E+03  0.17236483545E+03 0.  0.
        -24    2    3    3    0    0 -0.81520482679E+02  0.58469299859E+02 -0.26346570117E+03  0.29343420687E+03  0.81395392658E+02 0.  0.
          6    2    1    2  501    0  0.72009273869E+02 -0.34537311629E+02 -0.44869973232E+03  0.48711224096E+03  0.17195558754E+03 0.  0.
         24    2    5    5    0    0  0.27527962373E+02 -0.28799176318E+01 -0.41280953548E+03  0.42160671526E+03  0.81082841180E+02 0.  0.
          5    1    5    5  501    0  0.44481311495E+02 -0.31657393997E+02 -0.35890196845E+02  0.65505525695E+02  0.47000000000E+01 0. -1.
        -13    1    6    6    0    0 -0.16654297866E+01  0.36565291604E+02 -0.17698319190E+03  0.18072864860E+03  0.00000000000E+00 0.  1.
         14    1    6    6    0    0  0.29193392160E+02 -0.39445209235E+02 -0.23582634357E+03  0.24087806667E+03  0.00000000000E+00 0. -1.
         -5    1    3    3    0  503  0.95112088105E+01 -0.23931988231E+02 -0.30109001888E+03  0.30222589668E+03  0.47000000000E+01 0.  1.
         11    1    4    4    0    0 -0.65451459725E+02  0.37521942638E+02 -0.25466509431E+03  0.26560515812E+03  0.00000000000E+00 0. -1.
        -12    1    4    4    0    0 -0.16069022955E+02  0.20947357221E+02 -0.88006068605E+01  0.27829048751E+02  0.00000000000E+00 0.  1.
</event>
<event>
12    1  0.8133495E-002  0.1754682E+03  0.7818608E-02  0.1173064E+00
         21   -1    0    0  503  502  0.00000000000E+00  0.00000000000E+00  0.26078912979E+02  0.26078912979E+02  0.00000000000E+00 0.  1.
         21   -1    0    0  501  503 -0.00000000000E+00 -0.00000000000E+00 -0.12168190550E+04  0.12168190550E+04  0.00000000000E+00 0.  1.
          6    2    1    2  501    0  0.24689823796E+02  0.21147196130E+02 -0.46550784123E+03  0.49748028856E+03  0.17243055400E+03 0.  0.
         24    2    3    3    0    0  0.10941468029E+02  0.50063427988E+02 -0.13646610644E+03  0.16685101129E+03  0.81180041989E+02 0.  0.
         -6    2    1    2    0  502 -0.24689823796E+02 -0.21147196130E+02 -0.72523230078E+03  0.74541767941E+03  0.16920057737E+03 0.  0.
        -24    2    5    5    0    0  0.39355646127E+02 -0.17281145344E+02 -0.24133802575E+03  0.25726552283E+03  0.78064087128E+02 0.  0.
          5    1    3    3  501    0  0.13748355767E+02 -0.28916231858E+02 -0.32904173479E+03  0.33062927726E+03  0.47000000000E+01 0. -1.
        -13    1    4    4    0    0 -0.27926443694E+02 -0.33888875417E+01 -0.27065904127E+02  0.39037597036E+02  0.00000000000E+00 0.  1.
         14    1    4    4    0    0  0.38867911723E+02  0.53452315530E+02 -0.10940020231E+03  0.12781341426E+03  0.00000000000E+00 0. -1.
         -5    1    5    5    0  502 -0.64045469923E+02 -0.38660507864E+01 -0.48389427502E+03  0.48815215657E+03  0.47000000000E+01 0.  1.
         11    1    6    6    0    0 -0.60912605130E+01  0.17840825274E+02 -0.16011964468E+02  0.24734217336E+02  0.00000000000E+00 0. -1.
        -12    1    6    6    0    0  0.45446906640E+02 -0.35121970618E+02 -0.22532606128E+03  0.23253130550E+03  0.00000000000E+00 0.  1.
</event>
<event>
12    1  0.8133495E-002  0.2207637E+03  0.7818608E-02  0.1133471E+00
         21   -1    0    0  501  502  0.00000000000E+00  0.00000000000E+00  0.49075146789E+03  0.49075146789E+03  0.00000000000E+00 0.  1.
         21   -1    0    0  502  503 -0.00000000000E+00 -0.00000000000E+00 -0.11789976590E+03  0.11789976590E+03  0.00000000000E+00 0. -1.
         -6    2    1    2    0  503  0.10403074484E+03  0.91120631218E+02  0.64066332156E+02  0.22906592664E+03  0.17100098984E+03 0.  0.
        -24    2    3    3    0    0  0.10881753556E+03  0.21985985783E+02  0.37186170635E+01  0.13705261629E+03  0.80280457791E+02 0.  0.
          6    2    1    2  501    0 -0.10403074484E+03 -0.91120631218E+02  0.30878536983E+03  0.37958530715E+03  0.17207915470E+03 0.  0.
         24    2    5    5    0    0 -0.10193089106E+03 -0.15945763984E+02  0.11997836435E+03  0.17629771440E+03  0.77729674188E+02 0.  0.
          5    1    5    5  501    0 -0.20998537811E+01 -0.75174867234E+02  0.18880700548E+03  0.20328759276E+03  0.47000000000E+01 0. -1.
        -11    1    6    6    0    0 -0.82842338853E+02 -0.33981696473E+02  0.12038400793E+03  0.15003305691E+03  0.00000000000E+00 0.  1.
         12    1    6    6    0    0 -0.19088552203E+02  0.18035932489E+02 -0.40564358211E+00  0.26264657483E+02  0.00000000000E+00 0. -1.
         -5    1    3    3    0  503 -0.47867907198E+01  0.69134645435E+02  0.60347715092E+02  0.92013310351E+02  0.47000000000E+01 0.  1.
         13    1    4    4    0    0  0.53555428670E+02  0.48718650644E+02  0.16714059731E+02  0.74303772807E+02  0.00000000000E+00 0. -1.
        -14    1    4    4    0    0  0.55262106887E+02 -0.26732664861E+02 -0.12995442668E+02  0.62748843482E+02  0.00000000000E+00 0.  1.
</event>
<event>
12    1  0.8133495E-002  0.1985174E+03  0.7818608E-02  0.1151186E+00
         21   -1    0    0  501  502  0.00000000000E+00  0.00000000000E+00  0.15624346840E+03  0.15624346840E+03  0.00000000000E+00 0.  1.
         21   -1    0    0  502  503 -0.00000000000E+00 -0.00000000000E+00 -0.40147180626E+03  0.40147180626E+03  0.00000000000E+00 0.  1.
         -6    2    1    2    0  503  0.53019029172E+02  0.85298795678E+02 -0.29310565803E+03  0.35350608415E+03  0.17020200575E+03 0.  0.
        -24    2    3    3    0    0  0.76983675299E+02  0.10041991668E+03 -0.16670175053E+03  0.22387973499E+03  0.79511107283E+02 0.  0.
          6    2    1    2  501    0 -0.53019029172E+02 -0.85298795678E+02  0.47877320180E+02  0.20420919051E+03  0.17123741911E+03 0.  0.
         24    2    5    5    0    0  0.20104124016E+02 -0.73425177227E+02  0.53742237079E+02  0.12974802212E+03  0.90282272597E+02 0.  0.
          5    1    5    5  501    0 -0.73123153189E+02 -0.11873618452E+02 -0.58649168991E+01  0.74461168387E+02  0.47000000000E+01 0. -1.
        -11    1    6    6    0    0 -0.18263905199E+01 -0.74672201592E+02  0.70040443953E+02  0.10239598226E+03  0.00000000000E+00 0.  1.
         12    1    6    6    0    0  0.21930514536E+02  0.12470243654E+01 -0.16298206874E+02  0.27352039867E+02  0.00000000000E+00 0. -1.
         -5    1    3    3    0  503 -0.23964646127E+02 -0.15121121001E+02 -0.12640390751E+03  0.12962634916E+03  0.47000000000E+01 0.  1.
         11    1    4    4    0    0  0.84973257648E+01 -0.78039319942E+01  0.23678283074E+01  0.11777627546E+02  0.00000000000E+00 0. -1.
        -12    1    4    4    0    0  0.68486349535E+02  0.10822384867E+03 -0.16906957883E+03  0.21210210744E+03  0.00000000000E+00 0.  1.
</event>
<event>
12    1  0.8133495E-002  0.1956354E+03  0.7818608E-02  0.1153581E+00
         21   -1    0    0  501  502  0.00000000000E+00  0.00000000000E+00  0.80486466852E+03  0.80486466852E+03  0.00000000000E+00 0. -1.
         21   -1    0    0  502  503 -0.00000000000E+00 -0.00000000000E+00 -0.51507991617E+02  0.51507991617E+02  0.00000000000E+00 0.  1.
         -6    2    1    2    0  503  0.31570951432E+02 -0.86837017989E+02  0.25668490196E+03  0.32273880050E+03  0.17244071963E+03 0.  0.
        -24    2    3    3    0    0  0.71093642833E+02 -0.13323327951E+02  0.17460414611E+03  0.20558229731E+03  0.80905228565E+02 0.  0.
          6    2    1    2  501    0 -0.31570951432E+02  0.86837017989E+02  0.49667177495E+03  0.53363385964E+03  0.17188615843E+03 0.  0.
         24    2    5    5    0    0  0.24652640283E+02  0.44473758515E+02  0.14471202332E+03  0.17467216978E+03  0.83565120324E+02 0.  0.
          5    1    5    5  501    0 -0.56223591715E+02  0.42363259474E+02  0.35195975163E+03  0.35896168986E+03  0.47000000000E+01 0. -1.
        -13    1    6    6    0    0 -0.13354090569E+02  0.13338982951E+02 -0.29018790111E+01  0.19096625432E+02  0.00000000000E+00 0.  1.
         14    1    6    6    0    0  0.38006730852E+02  0.31134775564E+02  0.14761390233E+03  0.15557554435E+03  0.00000000000E+00 0. -1.
         -5    1    3    3    0  503 -0.39522691401E+02 -0.73513690038E+02  0.82080755849E+02  0.11715650319E+03  0.47000000000E+01 0.  1.
         13    1    4    4    0    0  0.71750105164E+02 -0.22546716270E+02  0.17985634765E+03  0.19494803871E+03  0.00000000000E+00 0. -1.
        -14    1    4    4    0    0 -0.65646233051E+00  0.92233883192E+01 -0.52522015445E+01  0.10634258599E+02  0.00000000000E+00 0.  1.
</event>
<event>
12    1  0.8133495E-002  0.1748048E+03  0.7818608E-02  0.1172954E+00
         21   -1    0    0  501  502  0.00000000000E+00  0.00000000000E+00  0.39040524830E+03  0.39040524830E+03  0.00000000000E+00 0.  1.
         21   -1    0    0  502  503 -0.00000000000E+00 -0.00000000000E+00 -0.17108398896E+03  0.17108398896E+03  0.00000000000E+00 0.  1.
         -6    2    1    2    0  503  0.27436036051E+02  0.94779739761E+01 -0.97188514815E+02  0.19991608946E+03  0.17227381504E+03 0.  0.
        -24    2    3    3    0    0  0.75937220368E+02  0.37495935619E+02 -0.49073813047E+02  0.12592632273E+03  0.79226214118E+02 0.  0.
          6    2    1    2  501    0 -0.27436036051E+02 -0.94779739761E+01  0.31650977416E+03  0.36157314780E+03  0.17237788725E+03 0.  0.
         24    2    5    5    0    0 -0.40775470762E+02 -0.77650431075E+01  0.32994318658E+03  0.34199200331E+03  0.79831629346E+02 0.  0.
          5    1    5    5  501    0  0.13339434711E+02 -0.17129308686E+01 -0.13433412424E+02  0.19581144500E+02  0.47000000000E+01 0. -1.
        -13    1    6    6    0    0  0.48468842819E+01  0.21312541020E+02  0.29488769990E+02  0.36705643265E+02  0.00000000000E+00 0.  1.
         14    1    6    6    0    0 -0.45622355044E+02 -0.29077584127E+02  0.30045441659E+03  0.30528636004E+03  0.00000000000E+00 0. -1.
         -5    1    3    3    0  503 -0.48501184317E+02 -0.28017961643E+02 -0.48114701768E+02  0.73989766731E+02  0.47000000000E+01 0.  1.
         11    1    4    4    0    0  0.16128122146E+02  0.50994821286E+02 -0.13986177905E+02  0.55282920458E+02  0.00000000000E+00 0. -1.
        -12    1    4    4    0    0  0.59809098222E+02 -0.13498885667E+02 -0.35087635142E+02  0.70643402270E+02  0.00000000000E+00 0.  1.
</event>
<event>
12    1  0.8133495E-002  0.2124783E+03  0.7818608E-02  0.1139652E+00
         21   -1    0    0  501  502  0.00000000000E+00  0.00000000000E+00  0.31917660713E+03  0.31917660713E+03  0.00000000000E+00 0. -1.
         21   -1    0    0  502  503 -0.00000000000E+00 -0.00000000000E+00 -0.14580699732E+03  0.14580699732E+03  0.00000000000E+00 0. -1.
         -6    2    1    2    0  503 -0.11801257631E+03 -0.30438055267E+02  0.12737538973E+03  0.24758424403E+03  0.17383907676E+03 0.  0.
        -24    2    3    3    0    0 -0.55065462075E+02 -0.19708374585E+02  0.15296986562E+03  0.17863040125E+03  0.71333129196E+02 0.  0.
          6    2    1    2  501    0  0.11801257631E+03  0.30438055267E+02  0.45994220078E+02  0.21739936042E+03  0.17405048192E+03 0.  0.
         24    2    5    5    0    0  0.48967498483E+02  0.49383122466E+02 -0.33493099125E+02  0.11031779218E+03  0.78814458634E+02 0.  0.
          5    1    5    5  501    0  0.69045077822E+02 -0.18945067199E+02  0.79487319204E+02  0.10708156824E+03  0.47000000000E+01 0. -1.
        -13    1    6    6    0    0  0.18646954749E+02 -0.74488514647E+01  0.18679796098E+02  0.27424972047E+02  0.00000000000E+00 0.  1.
         14    1    6    6    0    0  0.30320543735E+02  0.56831973931E+02 -0.52172895223E+02  0.82892820131E+02  0.00000000000E+00 0. -1.
         -5    1    3    3    0  503 -0.62947114231E+02 -0.10729680682E+02 -0.25594475894E+02  0.68953842778E+02  0.47000000000E+01 0.  1.
         13    1    4    4    0    0 -0.60549073075E+02 -0.38945195614E+02  0.12489139384E+03  0.14415539798E+03  0.00000000000E+00 0. -1.
        -14    1    4    4    0    0  0.54836110007E+01  0.19236821030E+02  0.28078471777E+02  0.34475003267E+02  0.00000000000E+00 0.  1.
</event>
<event>
12    1  0.8133495E-002  0.2952881E+03  0.7818608E-02  0.1087734E+00
         21   -1    0    0  501  502  0.00000000000E+00  0.00000000000E+00  0.21473868010E+03  0.21473868010E+03  0.00000000000E+00 0. -1.
         21   -1    0    0  502  503 -0.00000000000E+00 -0.00000000000E+00 -0.78161422737E+03  0.78161422737E+03  0.00000000000E+00 0. -1.
         -6    2    1    2    0  503  0.23995110708E+03  0.36227575483E+01 -0.62910362812E+03  0.69457918917E+03  0.17052629401E+03 0.  0.
        -24    2    3    3    0    0  0.20049642639E+03  0.51595295150E+02 -0.55341589683E+03  0.59655491228E+03  0.82144488665E+02 0.  0.
          6    2    1    2  501    0 -0.23995110708E+03 -0.36227575483E+01  0.62228080845E+02  0.30177371830E+03  0.17206215402E+03 0.  0.
         24    2    5    5    0    0 -0.21963960704E+03  0.31337688496E+02  0.12856283356E+02  0.23778579593E+03  0.84576551256E+02 0.  0.
          5    1    5    5  501    0 -0.20311500040E+02 -0.34960446044E+02  0.49371797490E+02  0.63987922367E+02  0.47000000000E+01 0. -1.
        -13    1    6    6    0    0 -0.26165727044E+02 -0.11564969353E+02 -0.22609763198E+02  0.36463614464E+02  0.00000000000E+00 0.  1.
         14    1    6    6    0    0 -0.19347388000E+03  0.42902657849E+02  0.35466046554E+02  0.20132218147E+03  0.00000000000E+00 0. -1.
         -5    1    3    3    0  503  0.39454680690E+02 -0.47972537602E+02 -0.75687731283E+02  0.98024276886E+02  0.47000000000E+01 0.  1.
         13    1    4    4    0    0  0.92142393061E+01 -0.98560276022E+01 -0.96229120596E+02  0.97170402576E+02  0.00000000000E+00 0. -1.
        -14    1    4    4    0    0  0.19128218709E+03  0.61451322752E+02 -0.45718677624E+03  0.49938450970E+03  0.00000000000E+00 0.  1.
</event>
<event>
12    1  0.8133495E-002  0.2438386E+03  0.7818608E-02  0.1117584E+00
         21   -1    0    0  503  502  0.00000000000E+00  0.00000000000E+00  0.27163569193E+03  0.27163569193E+03  0.00000000000E+00 0. -1.
         21   -1    0    0  501  503 -0.00000000000E+00 -0.00000000000E+00 -0.21749943416E+03  0.21749943416E+03  0.00000000000E+00 0. -1.
          6    2    1    2  501    0 -0.10484003008E+03 -0.13422948637E+03  0.37362621316E+02  0.24668444054E+03  0.17449430024E+03 0.  0.
         24    2    3    3    0    0 -0.15676287089E+01 -0.40199897251E+02  0.56231890467E+02  0.10567064039E+03  0.79911010106E+02 0.  0.
         -6    2    1    2    0  502  0.10484003008E+03  0.13422948637E+03  0.16773636450E+02  0.24245068556E+03  0.17173232989E+03 0.  0.
        -24    2    5    5    0    0  0.10436895282E+03  0.79859495825E+02  0.66499812426E+02  0.16861911803E+03  0.82096068895E+02 0.  0.
          5    1    3    3  501    0 -0.10327240137E+03 -0.94029589120E+02 -0.18869269151E+02  0.14101380015E+03  0.47000000000E+01 0. -1.
        -11    1    4    4    0    0 -0.15252774849E+01  0.12137612384E+02 -0.13671412407E+02  0.18345452379E+02  0.00000000000E+00 0.  1.
         12    1    4    4    0    0 -0.42351224030E-01 -0.52337509635E+02  0.69903302874E+02  0.87325188011E+02  0.00000000000E+00 0. -1.
         -5    1    5    5    0  502  0.47107726136E+00  0.54369990546E+02 -0.49726175976E+02  0.73831567523E+02  0.47000000000E+01 0.  1.
         11    1    6    6    0    0  0.18722254871E+02  0.54664389395E+02  0.82258883530E+00  0.57787498196E+02  0.00000000000E+00 0. -1.
        -12    1    6    6    0    0  0.85646697945E+02  0.25195106430E+02  0.65677223590E+02  0.11083161984E+03  0.00000000000E+00 0.  1.
</event>
<event>
12    1  0.8133495E-002  0.1761130E+03  0.7818608E-02  0.1171630E+00
         21   -1    0    0  501  502  0.00000000000E+00  0.00000000000E+00  0.10431857272E+04  0.10431857272E+04  0.00000000000E+00 0. -1.
         21   -1    0    0  502  503 -0.00000000000E+00 -0.00000000000E+00 -0.47014964996E+02  0.47014964996E+02  0.00000000000E+00 0. -1.
         -6    2    1    2    0  503 -0.30342602024E+02  0.32092397541E+02  0.16747098386E+03  0.24299405014E+03  0.17043762053E+03 0.  0.
        -24    2    3    3    0    0 -0.45307653068E+01  0.37592966962E+02  0.18927056594E+03  0.20844236484E+03  0.78683628092E+02 0.  0.
          6    2    1    2  501    0  0.30342602024E+02 -0.32092397541E+02  0.82869977838E+03  0.84720664210E+03  0.17048512029E+03 0.  0.
         24    2    5    5    0    0 -0.17569913661E+02  0.10963504123E+02  0.21847352250E+03  0.23357190286E+03  0.79976580844E+02 0.  0.
          5    1    5    5  501    0  0.47912515686E+02 -0.43055901664E+02  0.61022625588E+03  0.61363473923E+03  0.47000000000E+01 0. -1.
        -13    1    6    6    0    0 -0.47717248211E+02  0.27818070437E+01  0.16349429316E+03  0.17033807009E+03  0.00000000000E+00 0.  1.
         14    1    6    6    0    0  0.30147334550E+02  0.81816970796E+01  0.54979229339E+02  0.63233832766E+02  0.00000000000E+00 0. -1.
         -5    1    3    3    0  503 -0.25811836718E+02 -0.55005694214E+01 -0.21799582075E+02  0.34551685304E+02  0.47000000000E+01 0.  1.
         13    1    4    4    0    0 -0.12916920822E+01  0.62030239918E+02  0.12361421363E+03  0.13831085621E+03  0.00000000000E+00 0. -1.
        -14    1    4    4    0    0 -0.32390732246E+01 -0.24437272956E+02  0.65656352304E+02  0.70131508630E+02  0.00000000000E+00 0.  1.
</event>
<event>
12    1  0.8133495E-002  0.1959709E+03  0.7818608E-02  0.1154133E+00
         21   -1    0    0  501  502  0.00000000000E+00  0.00000000000E+00  0.98643499800E+02  0.98643499800E+02  0.00000000000E+00 0. -1.
         21   -1    0    0  502  503 -0.00000000000E+00 -0.00000000000E+00 -0.41958616921E+03  0.41958616921E+03  0.00000000000E+00 0.  1.
         -6    2    1    2    0  503 -0.78879763270E+02  0.36868661376E+02 -0.23765449952E+03  0.30529419484E+03  0.17071487639E+03 0.  0.
        -24    2    3    3    0    0 -0.97683969848E+01  0.70438196645E+02 -0.88899636694E+02  0.13780272085E+03  0.77649747860E+02 0.  0.
          6    2    1    2  501    0  0.78879763270E+02 -0.36868661376E+02 -0.83288169897E+02  0.21293547417E+03  0.17556560503E+03 0.  0.
         24    2    5    5    0    0  0.42054783082E+02 -0.60596346163E+02 -0.11583665478E+03  0.15815795999E+03  0.78455642042E+02 0.  0.
          5    1    5    5  501    0  0.36824980188E+02  0.23727684788E+02  0.32548484886E+02  0.54777514179E+02  0.47000000000E+01 0. -1.
        -13    1    6    6    0    0  0.57810748883E+02 -0.15541453326E+02 -0.67651782443E+02  0.90334838936E+02  0.00000000000E+00 0.  1.
         14    1    6    6    0    0 -0.15755965801E+02 -0.45054892838E+02 -0.48184872340E+02  0.67823121053E+02  0.00000000000E+00 0. -1.
         -5    1    3    3    0  503 -0.69111366285E+02 -0.33569535269E+02 -0.14875486282E+03  0.16749147400E+03  0.47000000000E+01 0.  1.
         13    1    4    4    0    0 -0.40538404913E+02  0.19752945243E+02 -0.29583268220E+02  0.53932465892E+02  0.00000000000E+00 0. -1.
        -14    1    4    4    0    0  0.30770007928E+02  0.50685251402E+02 -0.59316368473E+02  0.83870254956E+02  0.00000000000E+00 0.  1.
</event>
<event>
12    1  0.8133495E-002  0.1815777E+03  0.7818608E-02  0.1166398E+00
         21   -1    0    0  501  502  0.00000000000E+00  0.00000000000E+00  0.15265376113E+03  0.15265376113E+03  0.00000000000E+00 0.  1.
         21   -1    0    0  502  503 -0.00000000000E+00 -0.00000000000E+00 -0.42952514712E+03  0.42952514712E+03  0.00000000000E+00 0.  1.
         -6    2    1    2    0  503  0.57579680862E+02 -0.53703313627E+01 -0.34386145452E+03  0.38863787374E+03  0.17162294978E+03 0.  0.
        -24    2    3    3    0    0  0.68079176928E+02  0.45614686827E+02 -0.15718919193E+03  0.19478655154E+03  0.80733416972E+02 0.  0.
          6    2    1    2  501    0 -0.57579680862E+02  0.53703313627E+01  0.66990068533E+02  0.19354103452E+03  0.17212263841E+03 0.  0.
         24    2    5    5    0    0 -0.70115504060E+01  0.50800690654E+02  0.80380580608E+02  0.12409717822E+03  0.79430472077E+02 0.  0.
          5    1    5    5  501    0 -0.50568130456E+02 -0.45430359292E+02 -0.13390512075E+02  0.69443856293E+02  0.47000000000E+01 0. -1.
        -11    1    6    6    0    0 -0.18702668692E+02  0.19137401784E+02 -0.92575866981E+01  0.28314887863E+02  0.00000000000E+00 0.  1.
         12    1    6    6    0    0  0.11691118286E+02  0.31663288870E+02  0.89638167306E+02  0.95782290361E+02  0.00000000000E+00 0. -1.
         -5    1    3    3    0  503 -0.10499496065E+02 -0.50985018190E+02 -0.18667226259E+03  0.19385132220E+03  0.47000000000E+01 0.  1.
         11    1    4    4    0    0 -0.14059702525E+02  0.18622557412E+02 -0.13132910279E+02  0.26775888632E+02  0.00000000000E+00 0. -1.
        -12    1    4    4    0    0  0.82138879452E+02  0.26992129416E+02 -0.14405628165E+03  0.16801066291E+03  0.00000000000E+00 0.  1.
</event>
<event>
12    1  0.8133495E-002  0.1872919E+03  0.7818608E-02  0.1161199E+00
         21   -1    0    0  503  502  0.00000000000E+00  0.00000000000E+00  0.48273373170E+03  0.48273373170E+03  0.00000000000E+00 0. -1.
         21   -1    0    0  501  503 -0.00000000000E+00 -0.00000000000E+00 -0.36623914478E+03  0.36623914478E+03  0.00000000000E+00 0. -1.
          6    2    1    2  501    0  0.19834015404E+02  0.72128773999E+02 -0.32213316027E+03  0.37203204010E+03  0.17041748066E+03 0.  0.
         24    2    3    3    0    0  0.57627606734E+02  0.25837076524E+02 -0.28593006814E+03  0.30200325545E+03  0.73901737821E+02 0.  0.
         -6    2    1    2    0  502 -0.19834015404E+02 -0.72128773999E+02  0.43862774718E+03  0.47694083637E+03  0.17170414261E+03 0.  0.
        -24    2    5    5    0    0 -0.36450880428E+02  0.26009461454E+02  0.22228619306E+03  0.23875395281E+03  0.74747171087E+02 0.  0.
          5    1    3    3  501    0 -0.37793591330E+02  0.46291697475E+02 -0.36203092121E+02  0.70028784652E+02  0.47000000000E+01 0. -1.
        -13    1    4    4    0    0  0.14474405140E+02 -0.24979574579E+02 -0.11403721649E+03  0.11763491954E+03  0.00000000000E+00 0.  1.
         14    1    4    4    0    0  0.43153201593E+02  0.50816651102E+02 -0.17189285165E+03  0.18436833591E+03  0.00000000000E+00 0. -1.
         -5    1    5    5    0  502  0.16616865024E+02 -0.98138235453E+02  0.21634155412E+03  0.23818688356E+03  0.47000000000E+01 0.  1.
         11    1    6    6    0    0 -0.48911227089E+02 -0.54758496725E+00  0.82397202291E+02  0.95822267402E+02  0.00000000000E+00 0. -1.
        -12    1    6    6    0    0  0.12460346661E+02  0.26557046421E+02  0.13988899077E+03  0.14293168540E+03  0.00000000000E+00 0.  1.
</event>
<event>
12    1  0.8133495E-002  0.1908949E+03  0.7818608E-02  0.1157792E+00
         21   -1    0    0  501  502  0.00000000000E+00  0.00000000000E+00  0.36501676583E+02  0.36501676583E+02  0.00000000000E+00 0. -1.
         21   -1    0    0  502  503 -0.00000000000E+00 -0.00000000000E+00 -0.99560106128E+03  0.99560106128E+03  0.00000000000E+00 0. -1.
         -6    2    1    2    0  503 -0.12834691831E+01 -0.80667052433E+02 -0.48924552884E+03  0.52495037657E+03  0.17234526315E+03 0.  0.
        -24    2    3    3    0    0 -0.43718866603E+02 -0.11945303831E+02 -0.36319374859E+03  0.37516859200E+03  0.82387765034E+02 0.  0.
          6    2    1    2  501    0  0.12834691831E+01  0.80667052433E+02 -0.46985385586E+03  0.50715236130E+03  0.17300881786E+03 0.  0.
         24    2    5    5    0    0  0.31868480520E+02  0.40002930931E+02 -0.11565554104E+03  0.14928709347E+03  0.79338499917E+02 0.  0.
          5    1    5    5  501    0 -0.30585011337E+02  0.40664121502E+02 -0.35419831482E+03  0.35786526782E+03  0.47000000000E+01 0. -1.
        -11    1    6    6    0    0  0.13116845762E+01 -0.23422946323E+02 -0.36101504335E+02  0.43054309263E+02  0.00000000000E+00 0.  1.
         12    1    6    6    0    0  0.30556795944E+02  0.63425877254E+02 -0.79554036709E+02  0.10623278421E+03  0.00000000000E+00 0. -1.
         -5    1    3    3    0  503  0.42435397420E+02 -0.68721748602E+02 -0.12605178025E+03  0.14978178457E+03  0.47000000000E+01 0.  1.
         11    1    4    4    0    0 -0.23590460719E+02  0.23924349479E+02 -0.56547913463E+02  0.65776522042E+02  0.00000000000E+00 0. -1.
        -12    1    4    4    0    0 -0.20128405884E+02 -0.35869653309E+02 -0.30664583512E+03  0.30939206995E+03  0.00000000000E+00 0.  1.
</event>
<event>
12    1  0.8133495E-002  0.2162088E+03  0.7818608E-02  0.1136854E+00
         21   -1    0    0  503  502  0.00000000000E+00  0.00000000000E+00  0.45750205784E+03  0.45750205784E+03  0.00000000000E+00 0. -1.
         21   -1    0    0  501  503 -0.00000000000E+00 -0.00000000000E+00 -0.10538305123E+03  0.10538305123E+03  0.00000000000E+00 0.  1.
          6    2    1    2  501    0  0.91572931487E+02  0.92990068848E+02  0.22700451132E+03  0.31308546400E+03  0.17163538365E+03 0.  0.
         24    2    3    3    0    0  0.97337659657E+02  0.53172255772E+02  0.76875428544E+02  0.15758780541E+03  0.81376754237E+02 0.  0.
         -6    2    1    2    0  502 -0.91572931487E+02 -0.92990068848E+02  0.12511449529E+03  0.24979964507E+03  0.17237595847E+03 0.  0.
        -24    2    5    5    0    0 -0.94667239575E+02 -0.56733366501E+02  0.15228010153E+03  0.20414678787E+03  0.79411085829E+02 0.  0.
          5    1    3    3  501    0 -0.57647281700E+01  0.39817813076E+02  0.15012908278E+03  0.15549765859E+03  0.47000000000E+01 0. -1.
        -11    1    4    4    0    0  0.29179835304E+02  0.59863673486E+02  0.52819953967E+02  0.85000410168E+02  0.00000000000E+00 0.  1.
         12    1    4    4    0    0  0.68157824353E+02 -0.66914177141E+01  0.24055474577E+02  0.72587395246E+02  0.00000000000E+00 0. -1.
         -5    1    5    5    0  502  0.30943080880E+01 -0.36256702346E+02 -0.27165606243E+02  0.45652857195E+02  0.47000000000E+01 0.  1.
         11    1    6    6    0    0 -0.36834306173E+02 -0.62060638252E+02  0.11283487974E+03  0.13394028153E+03  0.00000000000E+00 0. -1.
        -12    1    6    6    0    0 -0.57832933402E+02  0.53272717503E+01  0.39445221798E+02  0.70206506343E+02  0.00000000000E+00 0.  1.
</event>
<event>
12    1  0.8133495E-002  0.1784706E+03  0.7818608E-02  0.1169656E+00
         21   -1    0    0  503  502  0.00000000000E+00  0.00000000000E+00  0.87176934756E+02  0.87176934756E+02  0.00000000000E+00 0.  1.
         21   -1    0    0  501  503 -0.00000000000E+00 -0.00000000000E+00 -0.38461239896E+03  0.38461239896E+03  0.00000000000E+00 0.  1.
          6    2    1    2  501    0 -0.31738459778E+02  0.35433022268E+02 -0.92531689923E+02  0.20103198238E+03  0.17201428837E+03 0.  0.
         24    2    3    3    0    0 -0.38103301959E+02  0.10156442335E+02  0.14945746838E+02  0.90339136528E+02  0.79892235536E+02 0.  0.
         -6    2    1    2    0  502  0.31738459778E+02 -0.35433022268E+02 -0.20490377429E+03  0.27075735134E+03  0.17047333426E+03 0.  0.
        -24    2    5    5    0    0  0.29789672977E+02 -0.63644274270E+02 -0.60038299364E+02  0.12308281619E+03  0.81282002847E+02 0.  0.
          5    1    3    3  501    0  0.63648421816E+01  0.25276579933E+02 -0.10747743676E+03  0.11069284585E+03  0.47000000000E+01 0. -1.
        -13    1    4    4    0    0 -0.33011513769E+02 -0.28217626293E+02  0.25310114606E+02  0.50265260134E+02  0.00000000000E+00 0.  1.
         14    1    4    4    0    0 -0.50917881905E+01  0.38374068628E+02 -0.10364367768E+02  0.40073876394E+02  0.00000000000E+00 0. -1.
         -5    1    5    5    0  502  0.19487868012E+01  0.28211252002E+02 -0.14486547492E+03  0.14767453516E+03  0.47000000000E+01 0.  1.
         11    1    6    6    0    0  0.20039226857E+02 -0.83189011484E+02 -0.49103281846E+02  0.98656548352E+02  0.00000000000E+00 0. -1.
        -12    1    6    6    0    0  0.97504461192E+01  0.19544737214E+02 -0.10935017518E+02  0.24426267836E+02  0.00000000000E+00 0.  1.
</event>
<event>
12    1  0.8133495E-002  0.2094553E+03  0.7818608E-02  0.1142814E+00
         21   -1    0    0  501  502  0.00000000000E+00  0.00000000000E+00  0.18380891873E+03  0.18380891873E+03  0.00000000000E+00 0.  1.
         21   -1    0    0  502  503 -0.00000000000E+00 -0.00000000000E+00 -0.27964046207E+03  0.27964046207E+03  0.00000000000E+00 0.  1.
         -6    2    1    2    0  503  0.52677708391E+02  0.10671307727E+03 -0.14106217401E+03  0.24916603834E+03  0.16739939040E+03 0.  0.
        -24    2    3    3    0    0  0.27432076913E+02  0.13862166034E+03 -0.97952123889E+02  0.18970120837E+03  0.80146405550E+02 0.  0.
          6    2    1    2  501    0 -0.52677708391E+02 -0.10671307727E+03  0.45230630675E+02  0.21428334245E+03  0.17236275432E+03 0.  0.
         24    2    5    5    0    0 -0.88115235459E+02 -0.86964433605E+02 -0.63368819514E+01  0.14850245153E+03  0.81766219223E+02 0.  0.
          5    1    5    5  501    0  0.35437527068E+02 -0.19748643663E+02  0.51567512626E+02  0.65780890916E+02  0.47000000000E+01 0. -1.
        -11    1    6    6    0    0 -0.99249593278E+01 -0.61651906503E+02  0.13653257000E+02  0.63920840262E+02  0.00000000000E+00 0.  1.
         12    1    6    6    0    0 -0.78190276131E+02 -0.25312527101E+02 -0.19990138951E+02  0.84581611270E+02  0.00000000000E+00 0. -1.
         -5    1    3    3    0  503  0.25245631478E+02 -0.31908583072E+02 -0.43110050124E+02  0.59464829976E+02  0.47000000000E+01 0.  1.
         11    1    4    4    0    0 -0.52837615137E+01 -0.10232663292E+01  0.92069838339E+01  0.10664603182E+02  0.00000000000E+00 0. -1.
        -12    1    4    4    0    0  0.32715838426E+02  0.13964492667E+03 -0.10715910772E+03  0.17903660519E+03  0.00000000000E+00 0.  1.
</event>
<event>
12    1  0.8133495E-002  0.2001501E+03  0.7818608E-02  0.1149953E+00
         21   -1    0    0  503  502  0.00000000000E+00  0.00000000000E+00  0.90242431392E+03  0.90242431392E+03  0.00000000000E+00 0.  1.
         21   -1    0    0  501  503 -0.00000000000E+00 -0.00000000000E+00 -0.55959787464E+02  0.55959787464E+02  0.00000000000E+00 0. -1.
          6    2    1    2  501    0  0.65287478137E+02 -0.74275857503E+02  0.20069116494E+03  0.28230473683E+03  0.17216173485E+03 0.  0.
         24    2    3    3    0    0 -0.31586046010E+02 -0.36252720369E+02  0.80089732935E+02  0.12294026765E+03  0.79925002662E+02 0.  0.
         -6    2    1    2    0  502 -0.65287478137E+02  0.74275857503E+02  0.64577336151E+03  0.67607936455E+03  0.17401354808E+03 0.  0.
        -24    2    5    5    0    0  0.15694279704E+02  0.10801961835E+02  0.43197667604E+03  0.43876503027E+03  0.74484295985E+02 0.  0.
          5    1    3    3  501    0  0.96873524147E+02 -0.38023137134E+02  0.12060143200E+03  0.15936446919E+03  0.47000000000E+01 0. -1.
        -13    1    4    4    0    0  0.19773670065E+02 -0.20903347091E+02  0.58419638469E+02  0.65121441218E+02  0.00000000000E+00 0.  1.
         14    1    4    4    0    0 -0.51359716075E+02 -0.15349373278E+02  0.21670094466E+02  0.57818826428E+02  0.00000000000E+00 0. -1.
         -5    1    5    5    0  502 -0.80981757841E+02  0.63473895669E+02  0.21379668547E+03  0.23731433427E+03  0.47000000000E+01 0.  1.
         11    1    6    6    0    0  0.14698985142E+01  0.81906116701E+01  0.20172860491E+01  0.85624858643E+01  0.00000000000E+00 0. -1.
        -12    1    6    6    0    0  0.14224381190E+02  0.26113501645E+01  0.42995938999E+03  0.43020254441E+03  0.00000000000E+00 0.  1.
</event>
<event>
12    1  0.8133495E-002  0.2624187E+03  0.7818608E-02  0.1105821E+00
         21   -1    0    0  503  502  0.00000000000E+00  0.00000000000E+00  0.98235646108E+02  0.98235646108E+02  0.00000000000E+00 0. -1.
         21   -1    0    0  501  503 -0.00000000000E+00 -0.00000000000E+00 -0.71073333756E+03  0.71073333756E+03  0.00000000000E+00 0. -1.
          6    2    1    2  501    0  0.12288066304E+03  0.15476516728E+03 -0.25336323354E+03  0.36417562247E+03  0.17140315499E+03 0.  0.
         24    2    3    3    0    0  0.14935283418E+01  0.48540743723E+02 -0.13545018839E+03  0.16431556932E+03  0.79337370500E+02 0.  0.
         -6    2    1    2    0  502 -0.12288066304E+03 -0.15476516728E+03 -0.35913445791E+03  0.44479336120E+03  0.17266053677E+03 0.  0.
        -24    2    5    5    0    0 -0.12025102053E+03 -0.11867944976E+03 -0.36260486816E+03  0.40814328923E+03  0.80953902907E+02 0.  0.
          5    1    3    3  501    0  0.12138713469E+03  0.10622442355E+03 -0.11791304515E+03  0.19986005315E+03  0.47000000000E+01 0. -1.
        -13    1    4    4    0    0 -0.14203388814E+02  0.59384699560E+02 -0.56831830059E+02  0.83415440438E+02  0.00000000000E+00 0.  1.
         14    1    4    4    0    0  0.15696917156E+02 -0.10843955837E+02 -0.78618358332E+02  0.80900128883E+02  0.00000000000E+00 0. -1.
         -5    1    5    5    0  502 -0.26296425025E+01 -0.36085717515E+02  0.34704102431E+01  0.36650071972E+02  0.47000000000E+01 0.  1.
         11    1    6    6    0    0 -0.66695412101E+02 -0.32757204483E+02 -0.22739497570E+03  0.23922748048E+03  0.00000000000E+00 0. -1.
        -12    1    6    6    0    0 -0.53555608432E+02 -0.85922245279E+02 -0.13520989245E+03  0.16891580875E+03  0.00000000000E+00 0.  1.
</event>
<event>
12    1  0.8133495E-002  0.1777398E+03  0.7818608E-02  0.1170049E+00
         21   -1    0    0  501  502  0.00000000000E+00  0.00000000000E+00  0.28903917918E+02  0.28903917918E+02  0.00000000000E+00 0.  1.
         21   -1    0    0  502  503 -0.00000000000E+00 -0.00000000000E+00 -0.15358516467E+04  0.15358516467E+04  0.00000000000E+00 0.  1.
         -6    2    1    2    0  503  0.17678076441E+02  0.42690069100E+02 -0.11738315642E+04  0.11871872757E+04  0.17145882923E+03 0.  0.
        -24    2    3    3    0    0  0.61814004717E+02  0.31422591739E+02 -0.47624921843E+03  0.48810347863E+03  0.81383888758E+02 0.  0.
          6    2    1    2  501    0 -0.17678076441E+02 -0.42690069100E+02 -0.33311616454E+03  0.37756828887E+03  0.17162889410E+03 0.  0.
         24    2    5    5    0    0  0.27406279988E+02 -0.34813274536E+02 -0.30648275401E+03  0.32440747958E+03  0.96671950617E+02 0.  0.
          5    1    5    5  501    0 -0.45084356429E+02 -0.78767945637E+01 -0.26633410538E+02  0.53160809288E+02  0.47000000000E+01 0. -1.
        -11    1    6    6    0    0 -0.24639175951E+01 -0.46293314783E+02 -0.59835413025E+02  0.75692922624E+02  0.00000000000E+00 0.  1.
         12    1    6    6    0    0  0.29870197583E+02  0.11480040246E+02 -0.24664734098E+03  0.24871455695E+03  0.00000000000E+00 0. -1.
         -5    1    3    3    0  503 -0.44135928276E+02  0.11267477361E+02 -0.69758234578E+03  0.69908379709E+03  0.47000000000E+01 0.  1.
         13    1    4    4    0    0  0.12515719085E+02 -0.27213846806E+02 -0.15254302458E+03  0.15545613860E+03  0.00000000000E+00 0. -1.
        -14    1    4    4    0    0  0.49298285632E+02  0.58636438545E+02 -0.32370619385E+03  0.33264734003E+03  0.00000000000E+00 0.  1.
</event>
<event>
12    1  0.8133495E-002  0.1795488E+03  0.7818608E-02  0.1171175E+00
         21   -1    0    0  501  502  0.00000000000E+00  0.00000000000E+00  0.45111570798E+03  0.45111570798E+03  0.00000000000E+00 0. -1.
         21   -1    0    0  502  503 -0.00000000000E+00 -0.00000000000E+00 -0.67619137705E+02  0.67619137705E+02  0.00000000000E+00 0. -1.
         -6    2    1    2    0  503 -0.43346544325E+00  0.51859343335E+02  0.22493598928E+03  0.28780890993E+03  0.17189586958E+03 0.  0.
        -24    2    3    3    0    0  0.60149694588E+02  0.48257679276E+02  0.20160541530E+03  0.22261921024E+03  0.54477334015E+02 0.  0.
          6    2    1    2  501    0  0.43346544325E+00 -0.51859343335E+02  0.15856058100E+03  0.23092593576E+03  0.15967388821E+03 0.  0.
         24    2    5    5    0    0  0.55041149051E+02 -0.18601870115E+02  0.12679046409E+03  0.15937533155E+03  0.77130518360E+02 0.  0.
          5    1    5    5  501    0 -0.54607683608E+02 -0.33257473220E+02  0.31770116912E+02  0.71550604208E+02  0.47000000000E+01 0. -1.
        -11    1    6    6    0    0  0.27309410604E+02 -0.41663330301E+02  0.10748023342E+03  0.11846365508E+03  0.00000000000E+00 0.  1.
         12    1    6    6    0    0  0.27731738447E+02  0.23061460186E+02  0.19310230672E+02  0.40911676472E+02  0.00000000000E+00 0. -1.
         -5    1    3    3    0  503 -0.60583160031E+02  0.36016640587E+01  0.23330573976E+02  0.65189699688E+02  0.47000000000E+01 0.  1.
         11    1    4    4    0    0  0.44257234904E+02  0.66084650485E+01  0.13703011496E+03  0.14415140324E+03  0.00000000000E+00 0. -1.
        -12    1    4    4    0    0  0.15892459684E+02  0.41649214228E+02  0.64575300345E+02  0.78467806999E+02  0.00000000000E+00 0.  1.
</event>
<event>
12    1  0.8133495E-002  0.1763739E+03  0.7818608E-02  0.1172217E+00
         21   -1    0    0  503  502  0.00000000000E+00  0.00000000000E+00  0.17641616049E+03  0.17641616049E+03  0.00000000000E+00 0.  1.
         21   -1    0    0  501  503 -0.00000000000E+00 -0.00000000000E+00 -0.20529254240E+03  0.20529254240E+03  0.00000000000E+00 0.  1.
          6    2    1    2  501    0 -0.12789955672E+00 -0.32719763356E+02 -0.90326188075E+02  0.19815793416E+03  0.17331228273E+03 0.  0.
         24    2    3    3    0    0  0.51910399510E+02 -0.59378054493E+02 -0.81073953340E+02  0.13877491551E+03  0.80405524268E+02 0.  0.
         -6    2    1    2    0  502  0.12789955672E+00  0.32719763356E+02  0.61449806168E+02  0.18355076872E+03  0.16983582292E+03 0.  0.
        -24    2    5    5    0    0  0.59942657315E+02  0.38607115870E+02  0.60534868046E+02  0.12325654614E+03  0.80274992089E+02 0.  0.
          5    1    3    3  501    0 -0.52038299067E+02  0.26658291137E+02 -0.92522347346E+01  0.59383018648E+02  0.47000000000E+01 0. -1.
        -11    1    4    4    0    0  0.19076206918E+02  0.18849104823E+02 -0.12032030181E+02  0.29393199440E+02  0.00000000000E+00 0.  1.
         12    1    4    4    0    0  0.32834192592E+02 -0.78227159316E+02 -0.69041923159E+02  0.10938171607E+03  0.00000000000E+00 0. -1.
         -5    1    5    5    0  502 -0.59814757758E+02 -0.58873525137E+01  0.91493812174E+00  0.60294222585E+02  0.47000000000E+01 0.  1.
         11    1    6    6    0    0  0.47818987682E+02  0.58339425233E+02  0.22485053694E+02  0.78712907194E+02  0.00000000000E+00 0. -1.
        -12    1    6    6    0    0  0.12123669633E+02 -0.19732309363E+02  0.38049814352E+02  0.44543638944E+02  0.00000000000E+00 0.  1.
</event>
<event>
12    1  0.8133495E-002  0.1967534E+03  0.7818608E-02  0.1152539E+00
         21   -1    0    0  501  502  0.00000000000E+00  0.00000000000E+00  0.10336674927E+04  0.10336674927E+04  0.00000000000E+00 0.  1.
         21   -1    0    0  502  503 -0.00000000000E+00 -0.00000000000E+00 -0.40752279365E+02  0.40752279365E+02  0.00000000000E+00 0.  1.
         -6    2    1    2    0  503 -0.47484649869E+02  0.81470451853E+02  0.34308091952E+03  0.39549514505E+03  0.17268371644E+03 0.  0.
        -24    2    3    3    0    0  0.15774374016E+02  0.23479317087E+02  0.72068834876E+02  0.11118138204E+03  0.79795197512E+02 0.  0.
          6    2    1    2  501    0  0.47484649869E+02 -0.81470451853E+02  0.64983429386E+03  0.67892462706E+03  0.17251612461E+03 0.  0.
         24    2    5    5    0    0  0.40714570065E+02 -0.75613407334E+02  0.28742490360E+03  0.31637422352E+03  0.10052119438E+03 0.  0.
          5    1    5    5  501    0  0.67700798037E+01 -0.58570445188E+01  0.36240939026E+03  0.36255040353E+03  0.47000000000E+01 0. -1.
        -11    1    6    6    0    0  0.27098692650E+02 -0.29086045773E+02  0.25493332328E+03  0.25801421767E+03  0.00000000000E+00 0.  1.
         12    1    6    6    0    0  0.13615877415E+02 -0.46527361562E+02  0.32491580317E+02  0.58360005853E+02  0.00000000000E+00 0. -1.
         -5    1    3    3    0  503 -0.63259023884E+02  0.57991134766E+02  0.27101208464E+03  0.28431376301E+03  0.47000000000E+01 0.  1.
         13    1    4    4    0    0  0.16683440153E+01  0.46440301794E+02  0.16305195923E+02  0.49247785905E+02  0.00000000000E+00 0. -1.
        -14    1    4    4    0    0  0.14106030000E+02 -0.22960984707E+02  0.55763638953E+02  0.61933596137E+02  0.00000000000E+00 0.  1.
</event>
<event>
12    1  0.8133495E-002  0.2688811E+03  0.7818608E-02  0.1101995E+00
         21   -1    0    0  501  502  0.00000000000E+00  0.00000000000E+00  0.66901416847E+02  0.66901416847E+02  0.00000000000E+00 0.  1.
         21   -1    0    0  502  503 -0.00000000000E+00 -0.00000000000E+00 -0.11309894213E+04  0.11309894213E+04  0.00000000000E+00 0. -1.
         -6    2    1    2    0  503  0.17458461129E+03 -0.10873663954E+03 -0.40267281197E+03  0.48391106952E+03  0.17239804647E+03 0.  0.
        -24    2    3    3    0    0  0.15924435549E+03 -0.12562357051E+03 -0.40555678263E+03  0.46043982813E+03  0.79927999902E+02 0.  0.
          6    2    1    2  501    0 -0.17458461129E+03  0.10873663954E+03 -0.66141519247E+03  0.71397976861E+03  0.17318663309E+03 0.  0.
         24    2    5    5    0    0 -0.76759730473E+02 -0.11953235400E+02 -0.29635282450E+03  0.31720732031E+03  0.82222572411E+02 0.  0.
          5    1    5    5  501    0 -0.97824880814E+02  0.12068987494E+03 -0.36506236797E+03  0.39677244830E+03  0.47000000000E+01 0. -1.
        -11    1    6    6    0    0 -0.85232265612E+02 -0.25559131194E+02 -0.19183245597E+03  0.21146512585E+03  0.00000000000E+00 0.  1.
         12    1    6    6    0    0  0.84725351389E+01  0.13605895794E+02 -0.10452036853E+03  0.10574219446E+03  0.00000000000E+00 0. -1.
         -5    1    3    3    0  503  0.15340255799E+02  0.16886930973E+02  0.28839706598E+01  0.23471241390E+02  0.47000000000E+01 0.  1.
         11    1    4    4    0    0  0.10759048874E+03 -0.44115239334E+02 -0.27065610054E+03  0.29457866924E+03  0.00000000000E+00 0. -1.
        -12    1    4    4    0    0  0.51653866752E+02 -0.81508331179E+02 -0.13490068208E+03  0.16586115889E+03  0.00000000000E+00 0.  1.
</event>
<event>
12    1  0.8133495E-002  0.2261860E+03  0.7818608E-02  0.1129456E+00
         21   -1    0    0  501  502  0.00000000000E+00  0.00000000000E+00  0.12999852343E+03  0.12999852343E+03  0.00000000000E+00 0. -1.
         21   -1    0    0  502  503 -0.00000000000E+00 -0.00000000000E+00 -0.39872366265E+03  0.39872366265E+03  0.00000000000E+00 0.  1.
         -6    2    1    2    0  503 -0.10500111623E+02  0.14596877432E+03 -0.16708921492E+03  0.28075046881E+03  0.17171163203E+03 0.  0.
        -24    2    3    3    0    0  0.42392721636E+02  0.51631564502E+02 -0.33003127769E+02  0.10841843542E+03  0.78755249955E+02 0.  0.
          6    2    1    2  501    0  0.10500111623E+02 -0.14596877432E+03 -0.10163592430E+03  0.24797171726E+03  0.17246152045E+03 0.  0.
         24    2    5    5    0    0 -0.34798987353E+02 -0.15641964328E+03 -0.74867738306E+02  0.19412141725E+03  0.79999200445E+02 0.  0.
          5    1    5    5  501    0  0.45299098976E+02  0.10450868962E+02 -0.26768185994E+02  0.53850300013E+02  0.47000000000E+01 0. -1.
        -11    1    6    6    0    0 -0.23610907375E+02 -0.13341743384E+03 -0.91606419878E+02  0.16355250766E+03  0.00000000000E+00 0.  1.
         12    1    6    6    0    0 -0.11188079978E+02 -0.23002209440E+02  0.16738681572E+02  0.30568909589E+02  0.00000000000E+00 0. -1.
         -5    1    3    3    0  503 -0.52892833260E+02  0.94337209816E+02 -0.13408608715E+03  0.17233203339E+03  0.47000000000E+01 0.  1.
         13    1    4    4    0    0  0.16877206180E+02  0.48922238429E+02 -0.54344937382E+02  0.75043971912E+02  0.00000000000E+00 0. -1.
        -14    1    4    4    0    0  0.25515515456E+02  0.27093260730E+01  0.21341809613E+02  0.33374463506E+02  0.00000000000E+00 0.  1.
</event>
<event>
12    1  0.8133495E-002  0.2308639E+03  0.7818608E-02  0.1126147E+00
         21   -1    0    0  503  502  0.00000000000E+00  0.00000000000E+00  0.21638017679E+03  0.21638017679E+03  0.00000000000E+00 0.  1.
         21   -1    0    0  501  503 -0.00000000000E+00 -0.00000000000E+00 -0.26005591101E+03  0.26005591101E+03  0.00000000000E+00 0. -1.
          6    2    1    2  501    0 -0.14970858850E+03 -0.30431224238E+02 -0.77921785164E+02  0.24304600557E+03  0.17222321371E+03 0.  0.
         24    2    3    3    0    0 -0.84779097951E+02  0.38223122775E+02 -0.34955088484E+01  0.12266901976E+03  0.79918503878E+02 0.  0.
         -6    2    1    2    0  502  0.14970858850E+03  0.30431224238E+02  0.34246050944E+02  0.23339008223E+03  0.17308788981E+03 0.  0.
        -24    2    5    5    0    0  0.74508529999E+02  0.66979314239E+02 -0.11888975574E+02  0.13777971484E+03  0.93830445494E+02 0.  0.
          5    1    3    3  501    0 -0.64929490551E+02 -0.68654347013E+02 -0.74426276315E+02  0.12037698581E+03  0.47000000000E+01 0. -1.
        -11    1    4    4    0    0 -0.67037314346E+01 -0.20218819029E+02  0.11161492628E+02  0.24048275942E+02  0.00000000000E+00 0.  1.
         12    1    4    4    0    0 -0.78075366516E+02  0.58441941804E+02 -0.14657001477E+02  0.98620743816E+02  0.00000000000E+00 0. -1.
         -5    1    5    5    0  502  0.75200058503E+02 -0.36548090000E+02  0.46135026517E+02  0.95610367395E+02  0.47000000000E+01 0.  1.
         13    1    6    6    0    0  0.20054333815E+02 -0.23253329828E+02  0.47883855671E+01  0.31077681529E+02  0.00000000000E+00 0. -1.
        -14    1    6    6    0    0  0.54454196183E+02  0.90232644067E+02 -0.16677361141E+02  0.10670203331E+03  0.00000000000E+00 0.  1.
</event>
<event>
12    1  0.8133495E-002  0.1942808E+03  0.7818608E-02  0.1158122E+00
         21   -1    0    0  503  502  0.00000000000E+00  0.00000000000E+00  0.73542361152E+03  0.73542361152E+03  0.00000000000E+00 0. -1.
         21   -1    0    0  501  503 -0.00000000000E+00 -0.00000000000E+00 -0.61148197727E+02  0.61148197727E+02  0.00000000000E+00 0. -1.
          6    2    1    2  501    0 -0.43028148218E+02  0.68072433532E+02  0.13779840167E+03  0.22599963975E+03  0.16000674960E+03 0.  0.
         24    2    3    3    0    0 -0.83117194263E+02  0.11261959671E+02  0.75663544404E+02  0.13263266464E+03  0.69506489335E+02 0.  0.
         -6    2    1    2    0  502  0.43028148218E+02 -0.68072433532E+02  0.53647701213E+03  0.57057216951E+03  0.17680423731E+03 0.  0.
        -24    2    5    5    0    0  0.90731011767E+02 -0.68225334258E+02  0.31771349176E+03  0.34661870467E+03  0.79472327571E+02 0.  0.
          5    1    3    3  501    0  0.40089046045E+02  0.56810473861E+02  0.62134857268E+02  0.93366975108E+02  0.47000000000E+01 0. -1.
        -11    1    4    4    0    0 -0.10944447042E+02  0.93977543123E+01  0.55968496176E+02  0.57797675311E+02  0.00000000000E+00 0.  1.
         12    1    4    4    0    0 -0.72172747221E+02  0.18642053587E+01  0.19695048229E+02  0.74834989328E+02  0.00000000000E+00 0. -1.
         -5    1    5    5    0  502 -0.47702863549E+02  0.15290072550E+00  0.21876352036E+03  0.22395346484E+03  0.47000000000E+01 0.  1.
         11    1    6    6    0    0  0.24299513431E+02 -0.48622878056E+02  0.65755024904E+02  0.85313386544E+02  0.00000000000E+00 0. -1.
        -12    1    6    6    0    0  0.66431498336E+02 -0.19602456202E+02  0.25195846686E+03  0.26130531813E+03  0.00000000000E+00 0.  1.
</event>
<event>
12    1  0.8133495E-002  0.2576888E+03  0.7818608E-02  0.1108620E+00
         21   -1    0    0  503  502  0.00000000000E+00  0.00000000000E+00  0.64287652067E+02  0.64287652067E+02  0.00000000000E+00 0.  1.
         21   -1    0    0  501  503 -0.00000000000E+00 -0.00000000000E+00 -0.10323035901E+04  0.10323035901E+04  0.00000000000E+00 0. -1.
          6    2    1    2  501    0  0.58842142584E+02 -0.18226530419E+03 -0.46361864791E+03  0.53042036142E+03  0.17239625941E+03 0.  0.
         24    2    3    3    0    0  0.19883150707E+02 -0.77059465315E+02 -0.35967320251E+03  0.37740788741E+03  0.82087757916E+02 0.  0.
         -6    2    1    2    0  502 -0.58842142584E+02  0.18226530419E+03 -0.50439729016E+03  0.56617088078E+03  0.17160944343E+03 0.  0.
        -24    2    5    5    0    0 -0.23188441406E+02  0.12508289244E+03 -0.46345026252E+03  0.48717870589E+03  0.79834277431E+02 0.  0.
          5    1    3    3  501    0  0.38958991877E+02 -0.10520583888E+03 -0.10394544540E+03  0.15301247400E+03  0.47000000000E+01 0. -1.
        -11    1    4    4    0    0 -0.14933559752E+02 -0.96646608774E+00 -0.10333947683E+02  0.18186141380E+02  0.00000000000E+00 0.  1.
         12    1    4    4    0    0  0.34816710460E+02 -0.76092999227E+02 -0.34933925483E+03  0.35922174603E+03  0.00000000000E+00 0. -1.
         -5    1    5    5    0  502 -0.35653701178E+02  0.57182411752E+02 -0.40947027637E+02  0.78992174890E+02  0.47000000000E+01 0.  1.
         11    1    6    6    0    0 -0.23132100043E+02 -0.15534005771E+01 -0.60128806987E+02  0.64443622923E+02  0.00000000000E+00 0. -1.
        -12    1    6    6    0    0 -0.56341363495E-01  0.12663629302E+03 -0.40332145553E+03  0.42273508297E+03  0.00000000000E+00 0.  1.
</event>
<event>
12    1  0.8133495E-002  0.3209157E+03  0.7818608E-02  0.1076366E+00
         21   -1    0    0  501  502  0.00000000000E+00  0.00000000000E+00  0.45422813929E+03  0.45422813929E+03  0.00000000000E+00 0.  1.
         21   -1    0    0  502  503 -0.00000000000E+00 -0.00000000000E+00 -0.38793903268E+03  0.38793903268E+03  0.00000000000E+00 0.  1.
         -6    2    1    2    0  503 -0.11387345186E+03 -0.23393851926E+03 -0.24427499880E+03  0.39558351342E+03  0.17065065841E+03 0.  0.
        -24    2    3    3    0    0 -0.31191588412E+02 -0.16966518682E+03 -0.92636211685E+02  0.21123665674E+03  0.79248133304E+02 0.  0.
          6    2    1    2  501    0  0.11387345186E+03  0.23393851926E+03  0.31056410541E+03  0.44658365855E+03  0.18786299978E+03 0.  0.
         24    2    5    5    0    0  0.91563714998E+01  0.52757373198E+02  0.16723316761E+03  0.19289463172E+03  0.79838756442E+02 0.  0.
          5    1    5    5  501    0  0.10471708036E+03  0.18118114606E+03  0.14333093780E+03  0.25368902684E+03  0.47000000000E+01 0. -1.
        -11    1    6    6    0    0  0.35878994811E+02  0.53153705591E+02  0.14339686138E+03  0.15708366732E+03  0.00000000000E+00 0.  1.
         12    1    6    6    0    0 -0.26722623311E+02 -0.39633239283E+00  0.23836306234E+02  0.35810964395E+02  0.00000000000E+00 0. -1.
         -5    1    3    3    0  503 -0.82681863450E+02 -0.64273332439E+02 -0.15163878712E+03  0.18434685667E+03  0.47000000000E+01 0.  1.
         11    1    4    4    0    0  0.99833386400E+01 -0.34033232440E+02  0.92740482375E+01  0.36659731743E+02  0.00000000000E+00 0. -1.
        -12    1    4    4    0    0 -0.41174927052E+02 -0.13563195438E+03 -0.10191025992E+03  0.17457692500E+03  0.00000000000E+00 0.  1.
</event>
<event>
12    1  0.8133495E-002  0.2125320E+03  0.7818608E-02  0.1139858E+00
         21   -1    0    0  501  502  0.00000000000E+00  0.00000000000E+00  0.35593629302E+03  0.35593629302E+03  0.00000000000E+00 0.  1.
         21   -1    0    0  502  503 -0.00000000000E+00 -0.00000000000E+00 -0.34332475053E+03  0.34332475053E+03  0.00000000000E+00 0.  1.
         -6    2    1    2    0  503 -0.27764839645E+02 -0.11974931424E+03 -0.27182641502E+03  0.34504993158E+03  0.17337551961E+03 0.  0.
        -24    2    3    3    0    0 -0.63774481823E+02 -0.22991536535E+02 -0.17010175929E+03  0.20003697540E+03  0.80525696080E+02 0.  0.
          6    2    1    2  501    0  0.27764839645E+02  0.11974931424E+03  0.28443795751E+03  0.35421111197E+03  0.17160936917E+03 0.  0.
         24    2    5    5    0    0  0.67313360997E+02  0.93118119689E+02  0.27083925770E+03  0.30440829376E+03  0.78156464964E+02 0.  0.
          5    1    5    5  501    0 -0.39548521352E+02  0.26631194555E+02  0.13598699803E+02  0.49802818203E+02  0.47000000000E+01 0. -1.
        -11    1    6    6    0    0 -0.11584933964E+02 -0.55094793104E+00  0.55317738960E+02  0.56520496125E+02  0.00000000000E+00 0.  1.
         12    1    6    6    0    0  0.78898294962E+02  0.93669067621E+02  0.21552151874E+03  0.24788779764E+03  0.00000000000E+00 0. -1.
         -5    1    3    3    0  503  0.36009642178E+02 -0.96757777710E+02 -0.10172465573E+03  0.14501295618E+03  0.47000000000E+01 0.  1.
         11    1    4    4    0    0 -0.87853220116E+01  0.20440140495E+02 -0.83570662770E+01  0.23765979531E+02  0.00000000000E+00 0. -1.
        -12    1    4    4    0    0 -0.54989159812E+02 -0.43431677030E+02 -0.16174469302E+03  0.17627099587E+03  0.00000000000E+00 0.  1.
</event>
<event>
12    1  0.8133495E-002  0.1743638E+03  0.7818608E-02  0.1173428E+00
         21   -1    0    0  503  502  0.00000000000E+00  0.00000000000E+00  0.96754324222E+03  0.96754324222E+03  0.00000000000E+00 0. -1.
         21   -1    0    0  501  503 -0.00000000000E+00 -0.00000000000E+00 -0.34133998777E+03  0.34133998777E+03  0.00000000000E+00 0. -1.
          6    2    1    2  501    0 -0.20901583070E+02 -0.29408908607E+01 -0.31054861597E+03  0.35604179857E+03  0.17285772888E+03 0.  0.
         24    2    3    3    0    0 -0.15105256606E+02 -0.56375966949E+02 -0.27380402843E+03  0.29076424140E+03  0.78541579200E+02 0.  0.
         -6    2    1    2    0  502  0.20901583070E+02  0.29408908607E+01  0.93675187042E+03  0.95284143142E+03  0.17308148856E+03 0.  0.
        -24    2    5    5    0    0  0.75572455918E+02 -0.25204204706E+02  0.56974028968E+03  0.58068468871E+03  0.79020642856E+02 0.  0.
          5    1    3    3  501    0 -0.57963264639E+01  0.53435076088E+02 -0.36744587541E+02  0.65277557174E+02  0.47000000000E+01 0. -1.
        -13    1    4    4    0    0  0.31977678787E+01 -0.28797588515E+02 -0.20955223605E+02  0.35758190950E+02  0.00000000000E+00 0.  1.
         14    1    4    4    0    0 -0.18303024484E+02 -0.27578378434E+02 -0.25284880483E+03  0.25500605045E+03  0.00000000000E+00 0. -1.
         -5    1    5    5    0  502 -0.54670872848E+02  0.28145095567E+02  0.36701158074E+03  0.37215674271E+03  0.47000000000E+01 0.  1.
         11    1    6    6    0    0  0.25520028408E+02  0.23344285317E+02  0.30350929616E+03  0.30547360011E+03  0.00000000000E+00 0. -1.
        -12    1    6    6    0    0  0.50052427510E+02 -0.48548490023E+02  0.26623099351E+03  0.27521108860E+03  0.00000000000E+00 0.  1.
</event>
<event>
12    1  0.8133495E-002  0.2802438E+03  0.7818608E-02  0.1095612E+00
         21   -1    0    0  501  502  0.00000000000E+00  0.00000000000E+00  0.22951816622E+03  0.22951816622E+03  0.00000000000E+00 0.  1.
         21   -1    0    0  502  503 -0.00000000000E+00 -0.00000000000E+00 -0.65239488909E+03  0.65239488909E+03  0.00000000000E+00 0. -1.
         -6    2    1    2    0  503  0.55711781192E+02  0.21485174348E+03 -0.51583527338E+03  0.58704565534E+03  0.17108915204E+03 0.  0.
        -24    2    3    3    0    0  0.83643350555E+02  0.19571571864E+03 -0.34791698709E+03  0.41568346323E+03  0.80284862098E+02 0.  0.
          6    2    1    2  501    0 -0.55711781192E+02 -0.21485174348E+03  0.92958550509E+02  0.29486739996E+03  0.17041249135E+03 0.  0.
         24    2    5    5    0    0 -0.61367544553E+02 -0.52872533394E+02  0.63294496684E+02  0.13003021287E+03  0.79625263805E+02 0.  0.
          5    1    5    5  501    0  0.56557633609E+01 -0.16197921009E+03  0.29664053825E+02  0.16483718710E+03  0.47000000000E+01 0. -1.
        -11    1    6    6    0    0 -0.72145725210E+02 -0.20045673312E+02  0.26182284003E+02  0.79324313298E+02  0.00000000000E+00 0.  1.
         12    1    6    6    0    0  0.10778180656E+02 -0.32826860082E+02  0.37112212682E+02  0.50705899570E+02  0.00000000000E+00 0. -1.
         -5    1    3    3    0  503 -0.27931569363E+02  0.19136024845E+02 -0.16791828629E+03  0.17136219211E+03  0.47000000000E+01 0.  1.
         13    1    4    4    0    0  0.43753460218E+02  0.15538516365E+03 -0.30303501416E+03  0.34334987138E+03  0.00000000000E+00 0. -1.
        -14    1    4    4    0    0  0.39889890338E+02  0.40330554985E+02 -0.44881972923E+02  0.72333591851E+02  0.00000000000E+00 0.  1.
</event>
<event>
12    1  0.8133495E-002  0.2445775E+03  0.7818608E-02  0.1116955E+00
         21   -1    0    0  501  502  0.00000000000E+00  0.00000000000E+00  0.72051508277E+03  0.72051508277E+03  0.00000000000E+00 0. -1.
         21   -1    0    0  502  503 -0.00000000000E+00 -0.00000000000E+00 -0.12075121930E+03  0.12075121930E+03  0.00000000000E+00 0.  1.
         -6    2    1    2    0  503  0.48706030901E+02  0.16487601726E+03  0.64079769432E+02  0.25283269834E+03  0.17395912734E+03 0.  0.
        -24    2    3    3    0    0  0.66572510786E+02  0.82244941112E+02  0.94926101346E+02  0.16271781588E+03  0.79183289624E+02 0.  0.
          6    2    1    2  501    0 -0.48706030901E+02 -0.16487601726E+03  0.53568409404E+03  0.58843360373E+03  0.17245370069E+03 0.  0.
         24    2    5    5    0    0 -0.30488402566E+02 -0.16698564353E+03  0.31363584793E+03  0.36557973658E+03  0.80419841171E+02 0.  0.
          5    1    5    5  501    0 -0.18217628335E+02  0.21096262696E+01  0.22204824611E+03  0.22285386715E+03  0.47000000000E+01 0. -1.
        -13    1    6    6    0    0 -0.19577194790E+02 -0.25772081685E+02  0.16308800344E+02  0.36241464083E+02  0.00000000000E+00 0.  1.
         14    1    6    6    0    0 -0.10911207775E+02 -0.14121356184E+03  0.29732704758E+03  0.32933827249E+03  0.00000000000E+00 0. -1.
         -5    1    3    3    0  503 -0.17866479886E+02  0.82631076147E+02 -0.30846331914E+02  0.90114882463E+02  0.47000000000E+01 0.  1.
         11    1    4    4    0    0  0.70053076565E+02  0.84974846609E+02  0.56012978840E+02  0.12355408488E+03  0.00000000000E+00 0. -1.
        -12    1    4    4    0    0 -0.34805657791E+01 -0.27299054967E+01  0.38913122507E+02  0.39163730994E+02  0.00000000000E+00 0.  1.
</event>
<event>
12    1  0.8133495E-002  0.1815926E+03  0.7818608E-02  0.1166404E+00
         21   -1    0    0  501  502  0.00000000000E+00  0.00000000000E+00  0.25019323726E+03  0.25019323726E+03  0.00000000000E+00 0.  1.
         21   -1    0    0  502  503 -0.00000000000E+00 -0.00000000000E+00 -0.20902663465E+03  0.20902663465E+03  0.00000000000E+00 0.  1.
         -6    2    1    2    0  503  0.58112291569E+02 -0.13698308520E+02 -0.11936430656E+03  0.21684402788E+03  0.17090585905E+03 0.  0.
        -24    2    3    3    0    0  0.66527983399E+02  0.48993416173E+02 -0.61384437981E+02  0.13090898628E+03  0.80887490126E+02 0.  0.
          6    2    1    2  501    0 -0.58112291569E+02  0.13698308520E+02  0.16053090917E+03  0.24237584403E+03  0.17149692383E+03 0.  0.
         24    2    5    5    0    0  0.89680253209E+01  0.38154742989E+02  0.14544867016E+03  0.16924958312E+03  0.77161491978E+02 0.  0.
          5    1    5    5  501    0 -0.67080316890E+02 -0.24456434469E+02  0.15082239011E+02  0.73126260910E+02  0.47000000000E+01 0. -1.
        -13    1    6    6    0    0  0.40128370770E+02  0.35095369333E+02  0.73633278136E+02  0.90905614449E+02  0.00000000000E+00 0.  1.
         14    1    6    6    0    0 -0.31160345449E+02  0.30593736561E+01  0.71815392023E+02  0.78343968671E+02  0.00000000000E+00 0. -1.
         -5    1    3    3    0  503 -0.84156918296E+01 -0.62691724693E+02 -0.57979868578E+02  0.85935041597E+02  0.47000000000E+01 0.  1.
         13    1    4    4    0    0  0.60929550935E+02  0.23193489944E+01 -0.10923594433E+02  0.61944446662E+02  0.00000000000E+00 0. -1.
        -14    1    4    4    0    0  0.55984324644E+01  0.46674067179E+02 -0.50460843547E+02  0.68964539617E+02  0.00000000000E+00 0.  1.
</event>
<event>
12    1  0.8133495E-002  0.2476648E+03  0.7818608E-02  0.1115262E+00
         21   -1    0    0  503  502  0.00000000000E+00  0.00000000000E+00  0.44318770460E+03  0.44318770460E+03  0.00000000000E+00 0.  1.
         21   -1    0    0  501  503 -0.00000000000E+00 -0.00000000000E+00 -0.18739675941E+03  0.18739675941E+03  0.00000000000E+00 0.  1.
          6    2    1    2  501    0  0.16668770252E+03 -0.61871653229E+02 -0.35430528642E+02  0.25018632103E+03  0.17240934205E+03 0.  0.
         24    2    3    3    0    0  0.14026128424E+03 -0.52755455012E+02  0.38625529593E+02  0.17089035383E+03  0.72492865884E+02 0.  0.
         -6    2    1    2    0  502 -0.16668770252E+03  0.61871653229E+02  0.29122147383E+03  0.38039814298E+03  0.16816631268E+03 0.  0.
        -24    2    5    5    0    0 -0.47064168037E+02  0.76422872120E+02  0.18366816673E+03  0.21880813141E+03  0.78022507034E+02 0.  0.
          5    1    3    3  501    0  0.26426418275E+02 -0.91161982173E+01 -0.74056058236E+02  0.79295967200E+02  0.47000000000E+01 0. -1.
        -13    1    4    4    0    0  0.11773682330E+03 -0.30784568502E+02  0.81211050055E+00  0.12169761190E+03  0.00000000000E+00 0.  1.
         14    1    4    4    0    0  0.22524460940E+02 -0.21970886510E+02  0.37813419093E+02  0.49192741926E+02  0.00000000000E+00 0. -1.
         -5    1    5    5    0  502 -0.11962353448E+03 -0.14551218891E+02  0.10755330710E+03  0.16159001158E+03  0.47000000000E+01 0.  1.
         13    1    6    6    0    0  0.40016046215E+01 -0.13618811925E+02  0.13264986522E+02  0.19427937236E+02  0.00000000000E+00 0. -1.
        -14    1    6    6    0    0 -0.51065772659E+02  0.90041684046E+02  0.17040318021E+03  0.19938019417E+03  0.00000000000E+00 0.  1.
</event>
<event>
12    1  0.8133495E-002  0.2390513E+03  0.7818608E-02  0.1120500E+00
         21   -1    0    0  503  502  0.00000000000E+00  0.00000000000E+00  0.28126171503E+03  0.28126171503E+03  0.00000000000E+00 0. -1.
         21   -1    0    0  501  503 -0.00000000000E+00 -0.00000000000E+00 -0.20280145895E+03  0.20280145895E+03  0.00000000000E+00 0.  1.
          6    2    1    2  501    0 -0.14492799834E+03 -0.79802645579E+02  0.38794414649E+02  0.24217867118E+03  0.17254829823E+03 0.  0.
         24    2    3    3    0    0 -0.54659507156E+02  0.15666575800E+02  0.50423861550E+02  0.11019341910E+03  0.79792985154E+02 0.  0.
         -6    2    1    2    0  502  0.14492799834E+03  0.79802645579E+02  0.39665841428E+02  0.24188450280E+03  0.17193646144E+03 0.  0.
        -24    2    5    5    0    0  0.14780052431E+03  0.11444992826E+03  0.38310309188E+02  0.20677591310E+03  0.79654361997E+02 0.  0.
          5    1    3    3  501    0 -0.90268491187E+02 -0.95469221379E+02 -0.11629446901E+02  0.13198525208E+03  0.47000000000E+01 0. -1.
        -11    1    4    4    0    0  0.20407160299E+01  0.21901994895E+02  0.48344382803E+02  0.53113475229E+02  0.00000000000E+00 0.  1.
         12    1    4    4    0    0 -0.56700223186E+02 -0.62354190944E+01  0.20794787472E+01  0.57079943873E+02  0.00000000000E+00 0. -1.
         -5    1    5    5    0  502 -0.28725259627E+01 -0.34647282684E+02  0.13555322391E+01  0.35108589696E+02  0.47000000000E+01 0.  1.
         11    1    6    6    0    0  0.16945677841E+02 -0.12083751710E+02  0.25884199323E+00  0.20814419330E+02  0.00000000000E+00 0. -1.
        -12    1    6    6    0    0  0.13085484646E+03  0.12653367997E+03  0.38051467195E+02  0.18596149377E+03  0.00000000000E+00 0.  1.
</event>
<event>
12    1  0.8133495E-002  0.2249545E+03  0.7818608E-02  0.1130295E+00
         21   -1    0    0  501  502  0.00000000000E+00  0.00000000000E+00  0.37778139605E+03  0.37778139605E+03  0.00000000000E+00 0.  1.
         21   -1    0    0  502  503 -0.00000000000E+00 -0.00000000000E+00 -0.51400365506E+03  0.51400365506E+03  0.00000000000E+00 0.  1.
         -6    2    1    2    0  503 -0.14550948842E+03  0.67564583053E-01 -0.45162481234E+03  0.50454882677E+03  0.17155620562E+03 0.  0.
        -24    2    3    3    0    0 -0.81068286003E+02  0.54440701214E+02 -0.17604055476E+03  0.21631649065E+03  0.79162429627E+02 0.  0.
          6    2    1    2  501    0  0.14550948842E+03 -0.67564583053E-01  0.31540255333E+03  0.38723622434E+03  0.17117274026E+03 0.  0.
         24    2    5    5    0    0  0.12540150917E+03  0.60569365103E+02  0.21038215106E+03  0.26422182289E+03  0.78475064287E+02 0.  0.
          5    1    5    5  501    0  0.20107979253E+02 -0.60636929686E+02  0.10502040227E+03  0.12301440145E+03  0.47000000000E+01 0. -1.
        -11    1    6    6    0    0  0.11138904456E+03  0.29143077056E+02  0.19516797791E+03  0.22659959795E+03  0.00000000000E+00 0.  1.
         12    1    6    6    0    0  0.14012464612E+02  0.31426288046E+02  0.15214173146E+02  0.37622224939E+02  0.00000000000E+00 0. -1.
         -5    1    3    3    0  503 -0.64441202422E+02 -0.54373136631E+02 -0.27558425758E+03  0.28823233612E+03  0.47000000000E+01 0.  1.
         11    1    4    4    0    0 -0.53160563538E+02  0.55901571041E+02 -0.17143713845E+03  0.18799394565E+03  0.00000000000E+00 0. -1.
        -12    1    4    4    0    0 -0.27907722464E+02 -0.14608698266E+01 -0.46034163089E+01  0.28322545004E+02  0.00000000000E+00 0.  1.
</event>
<event>
12    1  0.8133495E-002  0.1941321E+03  0.7818608E-02  0.1155142E+00
         21   -1    0    0  501  502  0.00000000000E+00  0.00000000000E+00  0.15421120890E+03  0.15421120890E+03  0.00000000000E+00 0. -1.
         21   -1    0    0  502  503 -0.00000000000E+00 -0.00000000000E+00 -0.28964193535E+03  0.28964193535E+03  0.00000000000E+00 0.  1.
         -6    2    1    2    0  503  0.38672617663E+02 -0.77328590722E+02 -0.15762041944E+03  0.25006293335E+03  0.17381597082E+03 0.  0.
        -24    2    3    3    0    0  0.41390175143E+02 -0.10920664389E+03 -0.16603493901E+03  0.21664902110E+03  0.75696497311E+02 0.  0.
          6    2    1    2  501    0 -0.38672617663E+02  0.77328590722E+02  0.22189692997E+02  0.19379021089E+03  0.17200866566E+03 0.  0.
         24    2    5    5    0    0  0.56974886611E+01  0.97287309883E+02 -0.22434269081E+02  0.12760528212E+03  0.79262409459E+02 0.  0.
          5    1    5    5  501    0 -0.44370106324E+02 -0.19958719162E+02  0.44623962078E+02  0.66184928778E+02  0.47000000000E+01 0. -1.
        -11    1    6    6    0    0 -0.35810616063E+02  0.32257135791E+02 -0.12726915499E+02  0.49848745324E+02  0.00000000000E+00 0.  1.
         12    1    6    6    0    0  0.41508104724E+02  0.65030174092E+02 -0.97073535828E+01  0.77756536792E+02  0.00000000000E+00 0. -1.
         -5    1    3    3    0  503 -0.27175574795E+01  0.31878053170E+02  0.84145195649E+01  0.33413912254E+02  0.47000000000E+01 0.  1.
         11    1    4    4    0    0  0.12951266779E+02 -0.29182512226E+02 -0.20693140164E+01  0.31994318113E+02  0.00000000000E+00 0. -1.
        -12    1    4    4    0    0  0.28438908364E+02 -0.80024131666E+02 -0.16396562499E+03  0.18465470299E+03  0.00000000000E+00 0.  1.
</event>
<event>
12    1  0.8133495E-002  0.1844042E+03  0.7818608E-02  0.1163669E+00
         21   -1    0    0  501  502  0.00000000000E+00  0.00000000000E+00  0.31049182357E+03  0.31049182357E+03  0.00000000000E+00 0. -1.
         21   -1    0    0  502  503 -0.00000000000E+00 -0.00000000000E+00 -0.11968507940E+03  0.11968507940E+03  0.00000000000E+00 0. -1.
         -6    2    1    2    0  503 -0.63962803345E+02 -0.14490609216E+02  0.32180076280E+02  0.18693354384E+03  0.17206793582E+03 0.  0.
        -24    2    3    3    0    0  0.21201031339E+02 -0.31325730121E+02 -0.13778957334E+02  0.88594219032E+02  0.78919521559E+02 0.  0.
          6    2    1    2  501    0  0.63962803345E+02  0.14490609216E+02  0.15862666789E+03  0.24324335913E+03  0.17234759652E+03 0.  0.
         24    2    5    5    0    0  0.11919709019E+02  0.39342120018E+02  0.16021498532E+03  0.18535817961E+03  0.83659616026E+02 0.  0.
          5    1    5    5  501    0  0.52043094326E+02 -0.24851510802E+02 -0.15883174297E+01  0.57885179523E+02  0.47000000000E+01 0. -1.
        -11    1    6    6    0    0 -0.33678401395E+02  0.17324099767E+01  0.50300771673E+02  0.60559091767E+02  0.00000000000E+00 0.  1.
         12    1    6    6    0    0  0.45598110413E+02  0.37609710041E+02  0.10991421365E+03  0.12479908784E+03  0.00000000000E+00 0. -1.
         -5    1    3    3    0  503 -0.85163834683E+02  0.16835120906E+02  0.45959033614E+02  0.98339324813E+02  0.47000000000E+01 0.  1.
         11    1    4    4    0    0 -0.14213188344E+02 -0.89402241541E+01  0.25915719448E+02  0.30879877677E+02  0.00000000000E+00 0. -1.
        -12    1    4    4    0    0  0.35414219682E+02 -0.22385505967E+02 -0.39694676783E+02  0.57714341355E+02  0.00000000000E+00 0.  1.
</event>
<event>
12    1  0.8133495E-002  0.2047528E+03  0.7818608E-02  0.1145984E+00
         21   -1    0    0  503  502  0.00000000000E+00  0.00000000000E+00  0.40884518626E+03  0.40884518626E+03  0.00000000000E+00 0. -1.
         21   -1    0    0  501  503 -0.00000000000E+00 -0.00000000000E+00 -0.12136102043E+03  0.12136102043E+03  0.00000000000E+00 0. -1.
          6    2    1    2  501    0  0.87066244536E+02 -0.68521827365E+02  0.38321550178E+02  0.20830804195E+03  0.17218573509E+03 0.  0.
         24    2    3    3    0    0  0.40153658287E+02  0.24662748961E+02  0.46156558440E+02  0.10358157267E+03  0.79863301015E+02 0.  0.
         -6    2    1    2    0  502 -0.87066244536E+02  0.68521827365E+02  0.24916261565E+03  0.32189816474E+03  0.17105743966E+03 0.  0.
        -24    2    5    5    0    0 -0.41434139317E+02 -0.33257770490E+01  0.20826008064E+03  0.22734936963E+03  0.81164191552E+02 0.  0.
          5    1    3    3  501    0  0.46912586250E+02 -0.93184576326E+02 -0.78350082618E+01  0.10472646928E+03  0.47000000000E+01 0. -1.
        -13    1    4    4    0    0  0.29635514168E+00 -0.85901252604E+01 -0.18658653189E+02  0.20543208542E+02  0.00000000000E+00 0.  1.
         14    1    4    4    0    0  0.39857303145E+02  0.33252874221E+02  0.64815211629E+02  0.83038364125E+02  0.00000000000E+00 0. -1.
         -5    1    5    5    0  502 -0.45632105220E+02  0.71847604414E+02  0.40902535017E+02  0.94548795115E+02  0.47000000000E+01 0.  1.
         11    1    6    6    0    0 -0.47492944191E+01  0.36469217108E+02  0.93245673390E+02  0.10023629682E+03  0.00000000000E+00 0. -1.
        -12    1    6    6    0    0 -0.36684844897E+02 -0.39794994157E+02  0.11501440725E+03  0.12711307281E+03  0.00000000000E+00 0.  1.
</event>
<event>
12    1  0.8133495E-002  0.2171602E+03  0.7818608E-02  0.1138223E+00
         21   -1    0    0  501  502  0.00000000000E+00  0.00000000000E+00  0.24578653887E+03  0.24578653887E+03  0.00000000000E+00 0.  1.
         21   -1    0    0  502  503 -0.00000000000E+00 -0.00000000000E+00 -0.70622905145E+03  0.70622905145E+03  0.00000000000E+00 0.  1.
         -6    2    1    2    0  503  0.34850845277E+02  0.12835875031E+03 -0.64187669937E+03  0.67761660915E+03  0.17166252244E+03 0.  0.
        -24    2    3    3    0    0  0.43546394377E+02  0.14108995309E+03 -0.63950933591E+03  0.66132579862E+03  0.81098445567E+02 0.  0.
          6    2    1    2  501    0 -0.34850845277E+02 -0.12835875031E+03  0.18143418678E+03  0.27439898117E+03  0.15711742912E+03 0.  0.
         24    2    5    5    0    0 -0.70337197308E+02 -0.12305218006E+03  0.17317158011E+03  0.23728023203E+03  0.78894562623E+02 0.  0.
          5    1    5    5  501    0  0.35486352030E+02 -0.53065702538E+01  0.82626066661E+01  0.37118749133E+02  0.47000000000E+01 0. -1.
        -11    1    6    6    0    0 -0.28342963149E+02 -0.92839041231E+02  0.63429721735E+02  0.11595577060E+03  0.00000000000E+00 0.  1.
         12    1    6    6    0    0 -0.41994234159E+02 -0.30213138828E+02  0.10974185838E+03  0.12132446143E+03  0.00000000000E+00 0. -1.
         -5    1    3    3    0  503 -0.86955491000E+01 -0.12731202775E+02 -0.23673634598E+01  0.16290810539E+02  0.47000000000E+01 0.  1.
         13    1    4    4    0    0 -0.19930110435E+02  0.71494437861E+02 -0.28957232654E+03  0.29893276208E+03  0.00000000000E+00 0. -1.
        -14    1    4    4    0    0  0.63476504812E+02  0.69595515228E+02 -0.34993700937E+03  0.36239303654E+03  0.00000000000E+00 0.  1.
</event>
<event>
12    1  0.8133495E-002  0.1785935E+03  0.7818608E-02  0.1169755E+00
         21   -1    0    0  501  502  0.00000000000E+00  0.00000000000E+00  0.22913831373E+03  0.22913831373E+03  0.00000000000E+00 0. -1.
         21   -1    0    0  502  503 -0.00000000000E+00 -0.00000000000E+00 -0.13923340672E+03  0.13923340672E+03  0.00000000000E+00 0. -1.
         -6    2    1    2    0  503  0.22036008556E+02  0.41184888007E+02  0.66642570211E+02  0.19062232177E+03  0.17237707713E+03 0.  0.
        -24    2    3    3    0    0 -0.48691167993E+02  0.45700099695E+02  0.57945830686E+02  0.11906504459E+03  0.79746075742E+02 0.  0.
          6    2    1    2  501    0 -0.22036008556E+02 -0.41184888007E+02  0.23262336798E+02  0.17774939869E+03  0.16991742626E+03 0.  0.
         24    2    5    5    0    0 -0.38005096545E+02 -0.54616694610E+02  0.71474191337E+02  0.12500569652E+03  0.78041613532E+02 0.  0.
          5    1    5    5  501    0  0.15969087989E+02  0.13431806604E+02 -0.48211854539E+02  0.52743702164E+02  0.47000000000E+01 0. -1.
        -11    1    6    6    0    0 -0.16158900354E+02 -0.13298251932E+02  0.75258920564E+02  0.78114394893E+02  0.00000000000E+00 0.  1.
         12    1    6    6    0    0 -0.21846196191E+02 -0.41318442678E+02 -0.37847292261E+01  0.46891301632E+02  0.00000000000E+00 0. -1.
         -5    1    3    3    0  503  0.70727176549E+02 -0.45152116889E+01  0.86967395253E+01  0.71557277181E+02  0.47000000000E+01 0.  1.
         11    1    4    4    0    0 -0.48543735231E+02  0.49336868908E+01  0.61081549184E+02  0.78177945402E+02  0.00000000000E+00 0. -1.
        -12    1    4    4    0    0 -0.14743276164E+00  0.40766412805E+02 -0.31357184987E+01  0.40887099186E+02  0.00000000000E+00 0.  1.
</event>
<event>
12    1  0.8133495E-002  0.2161071E+03  0.7818608E-02  0.1136852E+00
         21   -1    0    0  501  502  0.00000000000E+00  0.00000000000E+00  0.19717968409E+03  0.19717968409E+03  0.00000000000E+00 0. -1.
         21   -1    0    0  502  503 -0.00000000000E+00 -0.00000000000E+00 -0.28713010001E+03  0.28713010001E+03  0.00000000000E+00 0. -1.
         -6    2    1    2    0  503 -0.90662549330E+02  0.94840587880E+02  0.56564643866E+02  0.22321798495E+03  0.17150007262E+03 0.  0.
        -24    2    3    3    0    0 -0.27481197225E+02 -0.14438574856E+02  0.44356374876E+02  0.96312703363E+02  0.79655258409E+02 0.  0.
          6    2    1    2  501    0  0.90662549330E+02 -0.94840587880E+02 -0.14651505979E+03  0.26109179914E+03  0.17172020812E+03 0.  0.
         24    2    5    5    0    0  0.90176948408E+02 -0.67531621234E+02 -0.30076820241E+02  0.14140065872E+03  0.79982055987E+02 0.  0.
          5    1    5    5  501    0  0.48560092191E+00 -0.27308966646E+02 -0.11643823955E+03  0.11969114042E+03  0.47000000000E+01 0. -1.
        -11    1    6    6    0    0  0.58109669096E+02 -0.48740158992E+02 -0.57528923905E+02  0.95194085040E+02  0.00000000000E+00 0.  1.
         12    1    6    6    0    0  0.32067279313E+02 -0.18791462242E+02  0.27452103663E+02  0.46206573680E+02  0.00000000000E+00 0. -1.
         -5    1    3    3    0  503 -0.63181352105E+02  0.10927916274E+03  0.12208268990E+02  0.12690528158E+03  0.47000000000E+01 0.  1.
         13    1    4    4    0    0 -0.29192499283E+02 -0.42545657976E+02  0.11176467958E+02  0.52794398027E+02  0.00000000000E+00 0. -1.
        -14    1    4    4    0    0  0.17113020584E+01  0.28107083120E+02  0.33179906919E+02  0.43518305336E+02  0.00000000000E+00 0.  1.
</event>
<event>
12    1  0.8133495E-002  0.2162726E+03  0.7818608E-02  0.1136953E+00
         21   -1    0    0  501  502  0.00000000000E+00  0.00000000000E+00  0.92517452714E+02  0.92517452714E+02  0.00000000000E+00 0.  1.
         21   -1    0    0  502  503 -0.00000000000E+00 -0.00000000000E+00 -0.51003632590E+03  0.51003632590E+03  0.00000000000E+00 0. -1.
         -6    2    1    2    0  503  0.36865461232E+02 -0.12693765960E+03 -0.17252598683E+03  0.27665691339E+03  0.17117710109E+03 0.  0.
        -24    2    3    3    0    0  0.15888393894E+01 -0.94507175866E+01 -0.22887489975E+02  0.83107458895E+02  0.79316908999E+02 0.  0.
          6    2    1    2  501    0 -0.36865461232E+02  0.12693765960E+03 -0.24499288635E+03  0.32589686522E+03  0.16945506998E+03 0.  0.
         24    2    5    5    0    0 -0.88175329607E+02  0.10429765344E+03 -0.18886681736E+03  0.24641417470E+03  0.79977381375E+02 0.  0.
          5    1    5    5  501    0  0.51309868374E+02  0.22640006161E+02 -0.56126068996E+02  0.79482690521E+02  0.47000000000E+01 0. -1.
        -13    1    6    6    0    0 -0.68312833518E+02  0.50116684418E+02 -0.56007557312E+02  0.10156363403E+03  0.00000000000E+00 0.  1.
         14    1    6    6    0    0 -0.19862496088E+02  0.54180969022E+02 -0.13285926004E+03  0.14485054068E+03  0.00000000000E+00 0. -1.
         -5    1    3    3    0  503  0.35276621843E+02 -0.11748694201E+03 -0.14963849686E+03  0.19354945449E+03  0.47000000000E+01 0.  1.
         11    1    4    4    0    0  0.76762759552E+00  0.34036162155E+02 -0.20073070865E+02  0.39521864333E+02  0.00000000000E+00 0. -1.
        -12    1    4    4    0    0  0.82121179391E+00 -0.43486879741E+02 -0.28144191094E+01  0.43585594563E+02  0.00000000000E+00 0.  1.
</event>
<event>
12    1  0.8133495E-002  0.1770064E+03  0.7818608E-02  0.1170739E+00
         21   -1    0    0  503  502  0.00000000000E+00  0.00000000000E+00  0.20968371451E+03  0.20968371451E+03  0.00000000000E+00 0. -1.
         21   -1    0    0  501  503 -0.00000000000E+00 -0.00000000000E+00 -0.15349743849E+03  0.15349743849E+03  0.00000000000E+00 0.  1.
          6    2    1    2  501    0  0.32954252858E+02 -0.25989301635E+02  0.57768582638E+02  0.18616765397E+03  0.17192951947E+03 0.  0.
         24    2    3    3    0    0  0.17916342837E+02  0.50983885085E+02  0.17777221529E+02  0.98006385976E+02  0.79805201634E+02 0.  0.
         -6    2    1    2    0  502 -0.32954252858E+02  0.25989301635E+02 -0.15823066140E+01  0.17701349902E+03  0.17195885718E+03 0.  0.
        -24    2    5    5    0    0  0.77838569427E+01 -0.98994290113E+01 -0.57709665412E+02  0.98783293967E+02  0.79177942391E+02 0.  0.
          5    1    3    3  501    0  0.15037910021E+02 -0.76973186720E+02  0.39991361109E+02  0.88161267997E+02  0.47000000000E+01 0. -1.
        -13    1    4    4    0    0  0.14219920761E+02  0.65824989473E+02  0.34229306519E+02  0.75543238019E+02  0.00000000000E+00 0.  1.
         14    1    4    4    0    0  0.36964220763E+01 -0.14841104388E+02 -0.16452084990E+02  0.22463147957E+02  0.00000000000E+00 0. -1.
         -5    1    5    5    0  502 -0.40738109801E+02  0.35888730646E+02  0.56127358798E+02  0.78230205056E+02  0.47000000000E+01 0.  1.
         13    1    6    6    0    0 -0.30670559466E+02 -0.16635277889E+02 -0.83969136829E+01  0.35887655926E+02  0.00000000000E+00 0. -1.
        -14    1    6    6    0    0  0.38454416409E+02  0.67358488782E+01 -0.49312751729E+02  0.62895638041E+02  0.00000000000E+00 0.  1.
</event>
<event>
12    1  0.8133495E-002  0.2037832E+03  0.7818608E-02  0.1146716E+00
         21   -1    0    0  503  502  0.00000000000E+00  0.00000000000E+00  0.85108635592E+02  0.85108635592E+02  0.00000000000E+00 0. -1.
         21   -1    0    0  501  503 -0.00000000000E+00 -0.00000000000E+00 -0.68410787264E+03  0.68410787264E+03  0.00000000000E+00 0. -1.
          6    2    1    2  501    0  0.14092740336E+02 -0.10750021716E+03 -0.50591696495E+03  0.54518097026E+03  0.17180050318E+03 0.  0.
         24    2    3    3    0    0 -0.91189936223E+01  0.14310438627E+02 -0.19197072260E+03  0.20759993771E+03  0.77181805504E+02 0.  0.
         -6    2    1    2    0  502 -0.14092740336E+02  0.10750021716E+03 -0.93082272099E+02  0.22403553797E+03  0.17254770608E+03 0.  0.
        -24    2    5    5    0    0 -0.40017347529E+01  0.14411995926E+03 -0.82695980381E+02  0.18437700849E+03  0.79810272216E+02 0.  0.
          5    1    3    3  501    0  0.23211733958E+02 -0.12181065579E+03 -0.31394624235E+03  0.33758103256E+03  0.47000000000E+01 0. -1.
        -13    1    4    4    0    0 -0.38024855925E+02 -0.10106417976E+02 -0.75496668525E+02  0.85133872875E+02  0.00000000000E+00 0.  1.
         14    1    4    4    0    0  0.28905862303E+02  0.24416856603E+02 -0.11647405408E+03  0.12246606483E+03  0.00000000000E+00 0. -1.
         -5    1    5    5    0  502 -0.10091005583E+02 -0.36619742096E+02 -0.10386291718E+02  0.39658529480E+02  0.47000000000E+01 0.  1.
         13    1    6    6    0    0  0.70038953226E+00  0.14635321549E+03 -0.55241360442E+02  0.15643325137E+03  0.00000000000E+00 0. -1.
        -14    1    6    6    0    0 -0.47021242851E+01 -0.22332562318E+01 -0.27454619939E+02  0.27943757123E+02  0.00000000000E+00 0.  1.
</event>
<event>
12    1  0.8133495E-002  0.2492940E+03  0.7818608E-02  0.1113757E+00
         21   -1    0    0  501  502  0.00000000000E+00  0.00000000000E+00  0.71993441921E+03  0.71993441921E+03  0.00000000000E+00 0.  1.
         21   -1    0    0  502  503 -0.00000000000E+00 -0.00000000000E+00 -0.19133028605E+03  0.19133028605E+03  0.00000000000E+00 0.  1.
         -6    2    1    2    0  503  0.15417116550E+03  0.92144804579E+02 -0.73270056292E+02  0.25980479361E+03  0.17283117876E+03 0.  0.
        -24    2    3    3    0    0  0.18296134902E+03  0.85122396561E+02 -0.77378120285E+02  0.22952022541E+03  0.77275369562E+02 0.  0.
          6    2    1    2  501    0 -0.15417116550E+03 -0.92144804579E+02  0.60187418945E+03  0.65145991165E+03  0.17288164529E+03 0.  0.
         24    2    5    5    0    0 -0.17249853561E+03 -0.84879498674E+02  0.59462574487E+03  0.62993534164E+03  0.79236885955E+02 0.  0.
          5    1    5    5  501    0  0.18327370117E+02 -0.72653059043E+01  0.72484445751E+01  0.21524570008E+02  0.47000000000E+01 0. -1.
        -11    1    6    6    0    0 -0.83496554312E+02 -0.78548769361E+02  0.27134214675E+03  0.29456432974E+03  0.00000000000E+00 0.  1.
         12    1    6    6    0    0 -0.89001981302E+02 -0.63307293130E+01  0.32328359812E+03  0.33537101190E+03  0.00000000000E+00 0. -1.
         -5    1    3    3    0  503 -0.28790183520E+02  0.70224080179E+01  0.41080639926E+01  0.30284568203E+02  0.47000000000E+01 0.  1.
         11    1    4    4    0    0  0.43549653215E+02  0.78494423495E+01  0.13211091697E+02  0.46181370532E+02  0.00000000000E+00 0. -1.
        -12    1    4    4    0    0  0.13941169580E+03  0.77272954211E+02 -0.90589211982E+02  0.18333885487E+03  0.00000000000E+00 0.  1.
</event>
<event>
12    1  0.8133495E-002  0.3067202E+03  0.7818608E-02  0.1081994E+00
         21   -1    0    0  503  502  0.00000000000E+00  0.00000000000E+00  0.23062155994E+04  0.23062155994E+04  0.00000000000E+00 0. -1.
         21   -1    0    0  501  503 -0.00000000000E+00 -0.00000000000E+00 -0.42616952526E+02  0.42616952526E+02  0.00000000000E+00 0.  1.
          6    2    1    2  501    0  0.15762597854E+03 -0.19852795818E+03  0.13804036687E+04  0.14140691582E+04  0.17267888206E+03 0.  0.
         24    2    3    3    0    0  0.12718630635E+03 -0.21179740708E+03  0.10369675453E+04  0.10689994366E+04  0.80147409450E+02 0.  0.
         -6    2    1    2    0  502 -0.15762597854E+03  0.19852795818E+03  0.88319497820E+03  0.93476339375E+03  0.17172633315E+03 0.  0.
        -24    2    5    5    0    0 -0.10459070029E+03  0.19069955250E+03  0.53751178465E+03  0.58491630576E+03  0.76828589703E+02 0.  0.
          5    1    3    3  501    0  0.30439672196E+02  0.13269448900E+02  0.34343612339E+03  0.34506972160E+03  0.47000000000E+01 0. -1.
        -13    1    4    4    0    0  0.88677430750E+00  0.65778786564E+01  0.43490977765E+02  0.43994545153E+02  0.00000000000E+00 0.  1.
         14    1    4    4    0    0  0.12629953204E+03 -0.21837528574E+03  0.99347656752E+03  0.10250048914E+04  0.00000000000E+00 0. -1.
         -5    1    5    5    0  502 -0.53035278253E+02  0.78284056790E+01  0.34568319355E+03  0.34984708799E+03  0.47000000000E+01 0.  1.
         13    1    6    6    0    0 -0.83062278389E+02  0.11356240748E+03  0.41807647763E+03  0.44111642866E+03  0.00000000000E+00 0. -1.
        -14    1    6    6    0    0 -0.21528421901E+02  0.77137145025E+02  0.11943530701E+03  0.14379987710E+03  0.00000000000E+00 0.  1.
</event>
<event>
12    1  0.8133495E-002  0.2523703E+03  0.7818608E-02  0.1111930E+00
         21   -1    0    0  501  502  0.00000000000E+00  0.00000000000E+00  0.29740067740E+03  0.29740067740E+03  0.00000000000E+00 0.  1.
         21   -1    0    0  502  503 -0.00000000000E+00 -0.00000000000E+00 -0.23866007696E+03  0.23866007696E+03  0.00000000000E+00 0.  1.
         -6    2    1    2    0  503 -0.18242510421E+03  0.19546770420E+02 -0.57623476211E+02  0.25815542638E+03  0.17222881373E+03 0.  0.
        -24    2    3    3    0    0 -0.54742713290E+02  0.58854517635E+02 -0.46850396776E+02  0.12404337926E+03  0.82043777068E+02 0.  0.
          6    2    1    2  501    0  0.18242510421E+03 -0.19546770420E+02  0.11636407665E+03  0.27790532799E+03  0.17329102145E+03 0.  0.
         24    2    5    5    0    0  0.10280265210E+03 -0.71896379816E+02  0.35781461690E+02  0.15302192510E+03  0.79987010524E+02 0.  0.
          5    1    5    5  501    0  0.79622452108E+02  0.52349609396E+02  0.80582614960E+02  0.12488340289E+03  0.47000000000E+01 0. -1.
        -11    1    6    6    0    0  0.10899029062E+03 -0.40002910528E+02  0.24718413051E+02  0.11870179546E+03  0.00000000000E+00 0.  1.
         12    1    6    6    0    0 -0.61876385257E+01 -0.31893469288E+02  0.11063048639E+02  0.34320129646E+02  0.00000000000E+00 0. -1.
         -5    1    3    3    0  503 -0.12768239092E+03 -0.39307747214E+02 -0.10773079435E+02  0.13411204712E+03  0.47000000000E+01 0.  1.
         11    1    4    4    0    0 -0.33341018394E+02 -0.15206424468E+02 -0.23340825034E+02  0.43447128397E+02  0.00000000000E+00 0. -1.
        -12    1    4    4    0    0 -0.21401694896E+02  0.74060942103E+02 -0.23509571742E+02  0.80596250862E+02  0.00000000000E+00 0.  1.
</event>
<event>
12    1  0.8133495E-002  0.2074838E+03  0.7818608E-02  0.1143977E+00
         21   -1    0    0  503  502  0.00000000000E+00  0.00000000000E+00  0.89435136168E+03  0.89435136168E+03  0.00000000000E+00 0.  1.
         21   -1    0    0  501  503 -0.00000000000E+00 -0.00000000000E+00 -0.83831118548E+02  0.83831118548E+02  0.00000000000E+00 0.  1.
          6    2    1    2  501    0 -0.10369823407E+02 -0.11215299945E+03  0.85166909355E+02  0.22428318673E+03  0.17425187769E+03 0.  0.
         24    2    3    3    0    0 -0.72515774183E+02 -0.89116301166E+02  0.38621456181E+02  0.14315749489E+03  0.76172165693E+02 0.  0.
         -6    2    1    2    0  502  0.10369823407E+02  0.11215299945E+03  0.72535333378E+03  0.75389929350E+03  0.17187453969E+03 0.  0.
        -24    2    5    5    0    0 -0.13744374887E+01  0.10194917887E+03  0.27911227378E+03  0.30736237538E+03  0.78564904833E+02 0.  0.
          5    1    3    3  501    0  0.62145950776E+02 -0.23036698280E+02  0.46545453175E+02  0.81125691841E+02  0.47000000000E+01 0. -1.
        -11    1    4    4    0    0 -0.67807989413E+01  0.10526708237E+02 -0.81596669241E+01  0.14945600854E+02  0.00000000000E+00 0.  1.
         12    1    4    4    0    0 -0.65734975241E+02 -0.99643009403E+02  0.46781123105E+02  0.12821189403E+03  0.00000000000E+00 0. -1.
         -5    1    5    5    0  502  0.11744260895E+02  0.10203820575E+02  0.44624106000E+03  0.44653691812E+03  0.47000000000E+01 0.  1.
         13    1    6    6    0    0 -0.14014779791E+02  0.10127322236E+03  0.27599925653E+03  0.29432680684E+03  0.00000000000E+00 0. -1.
        -14    1    6    6    0    0  0.12640342302E+02  0.67595650886E+00  0.31130172544E+01  0.13035568539E+02  0.00000000000E+00 0.  1.
</event>
<event>
12    1  0.8133495E-002  0.2303285E+03  0.7818608E-02  0.1126458E+00
         21   -1    0    0  503  502  0.00000000000E+00  0.00000000000E+00  0.11037854554E+04  0.11037854554E+04  0.00000000000E+00 0. -1.
         21   -1    0    0  501  503 -0.00000000000E+00 -0.00000000000E+00 -0.48237397256E+02  0.48237397256E+02  0.00000000000E+00 0.  1.
          6    2    1    2  501    0  0.14998343206E+03  0.21818290372E+02  0.56816695104E+03  0.61307820724E+03  0.17343625991E+03 0.  0.
         24    2    3    3    0    0  0.36668217123E+02 -0.39275599649E+02  0.30911595703E+03  0.32376469419E+03  0.79898507119E+02 0.  0.
         -6    2    1    2    0  502 -0.14998343206E+03 -0.21818290372E+02  0.48738110711E+03  0.53894464542E+03  0.17306045063E+03 0.  0.
        -24    2    5    5    0    0 -0.87389894247E+02 -0.15902585953E+00  0.44339817684E+03  0.45929753078E+03  0.81946687850E+02 0.  0.
          5    1    3    3  501    0  0.11331521494E+03  0.61093890021E+02  0.25905099401E+03  0.28931351305E+03  0.47000000000E+01 0. -1.
        -13    1    4    4    0    0 -0.20333082998E-02  0.23072400792E+02  0.57439142328E+02  0.61899844538E+02  0.00000000000E+00 0.  1.
         14    1    4    4    0    0  0.36670250431E+02 -0.62348000441E+02  0.25167681470E+03  0.26186484965E+03  0.00000000000E+00 0. -1.
         -5    1    5    5    0  502 -0.62593537814E+02 -0.21659264512E+02  0.43982930265E+02  0.79647114637E+02  0.47000000000E+01 0.  1.
         11    1    6    6    0    0 -0.75659771332E+02  0.29453230496E+02  0.37715330230E+03  0.38579334782E+03  0.00000000000E+00 0. -1.
        -12    1    6    6    0    0 -0.11730122915E+02 -0.29612256356E+02  0.66244874541E+02  0.73504182963E+02  0.00000000000E+00 0.  1.
</event>
<event>
12    1  0.8133495E-002  0.1916551E+03  0.7818608E-02  0.1157370E+00
         21   -1    0    0  503  502  0.00000000000E+00  0.00000000000E+00  0.36381097067E+02  0.36381097067E+02  0.00000000000E+00 0.  1.
         21   -1    0    0  501  503 -0.00000000000E+00 -0.00000000000E+00 -0.10005654623E+04  0.10005654623E+04  0.00000000000E+00 0.  1.
          6    2    1    2  501    0  0.57131076619E+02  0.61151337918E+02 -0.47775568495E+03  0.51476418811E+03  0.17241876003E+03 0.  0.
         24    2    3    3    0    0  0.45606620911E+01  0.37734607178E+02 -0.43230782084E+03  0.44128228480E+03  0.79970636462E+02 0.  0.
         -6    2    1    2    0  502 -0.57131076619E+02 -0.61151337918E+02 -0.48642868028E+03  0.52218237126E+03  0.17046442974E+03 0.  0.
        -24    2    5    5    0    0  0.28160317240E+02 -0.62862132039E+02 -0.25618482524E+03  0.27659761711E+03  0.78300229880E+02 0.  0.
          5    1    3    3  501    0  0.52570414527E+02  0.23416730739E+02 -0.45447864105E+02  0.73481903308E+02  0.47000000000E+01 0. -1.
        -11    1    4    4    0    0  0.93444906433E+01  0.48080931403E+01 -0.33412538160E+01  0.11027295321E+02  0.00000000000E+00 0.  1.
         12    1    4    4    0    0 -0.47838285521E+01  0.32926514038E+02 -0.42896656703E+03  0.43025498948E+03  0.00000000000E+00 0. -1.
         -5    1    5    5    0  502 -0.85291393858E+02  0.17107941209E+01 -0.23024385504E+03  0.24558475414E+03  0.47000000000E+01 0.  1.
         13    1    6    6    0    0  0.25466805677E+02 -0.26211287767E+02 -0.29536651709E+02  0.46989398719E+02  0.00000000000E+00 0. -1.
        -14    1    6    6    0    0  0.26935115626E+01 -0.36650844271E+02 -0.22664817353E+03  0.22960821839E+03  0.00000000000E+00 0.  1.
</event>
<event>
12    1  0.8133495E-002  0.2011473E+03  0.7818608E-02  0.1149495E+00
         21   -1    0    0  501  502  0.00000000000E+00  0.00000000000E+00  0.35257285369E+03  0.35257285369E+03  0.00000000000E+00 0. -1.
         21   -1    0    0  502  503 -0.00000000000E+00 -0.00000000000E+00 -0.13472918065E+03  0.13472918065E+03  0.00000000000E+00 0. -1.
         -6    2    1    2    0  503 -0.97630470877E+02  0.10684256448E+01  0.98953042111E+01  0.19798775999E+03  0.17195460355E+03 0.  0.
        -24    2    3    3    0    0 -0.98485632431E+02  0.16195600890E+02  0.62285769063E+02  0.14324825378E+03  0.81724096205E+02 0.  0.
          6    2    1    2  501    0  0.97630470877E+02 -0.10684256448E+01  0.20794836882E+03  0.28931427436E+03  0.17586180618E+03 0.  0.
         24    2    5    5    0    0  0.39981537164E+01  0.45202068024E+02  0.70015935877E+02  0.11623794594E+03  0.80930937297E+02 0.  0.
          5    1    5    5  501    0  0.93632317160E+02 -0.46270493669E+02  0.13793243294E+03  0.17307632842E+03  0.47000000000E+01 0. -1.
        -11    1    6    6    0    0 -0.36464839583E+02  0.71739204739E+01  0.25539779583E+02  0.45093569407E+02  0.00000000000E+00 0.  1.
         12    1    6    6    0    0  0.40462993299E+02  0.38028147550E+02  0.44476156294E+02  0.71144376528E+02  0.00000000000E+00 0. -1.
         -5    1    3    3    0  503  0.85516155445E+00 -0.15127175246E+02 -0.52390464851E+02  0.54739506205E+02  0.47000000000E+01 0.  1.
         13    1    4    4    0    0 -0.47474213349E+02 -0.22409024684E+02 -0.20271836581E+01  0.52536413981E+02  0.00000000000E+00 0. -1.
        -14    1    4    4    0    0 -0.51011419082E+02  0.38604625575E+02  0.64312952721E+02  0.90711839802E+02  0.00000000000E+00 0.  1.
</event>
<event>
12    1  0.8133495E-002  0.1925859E+03  0.7818608E-02  0.1156429E+00
         21   -1    0    0  503  502  0.00000000000E+00  0.00000000000E+00  0.19749716606E+03  0.19749716606E+03  0.00000000000E+00 0.  1.
         21   -1    0    0  501  503 -0.00000000000E+00 -0.00000000000E+00 -0.20280343775E+03  0.20280343775E+03  0.00000000000E+00 0.  1.
          6    2    1    2  501    0  0.73629714552E+02 -0.43060532585E+02 -0.59282765341E+02  0.20150379963E+03  0.17266670399E+03 0.  0.
         24    2    3    3    0    0  0.15474976066E+02 -0.86104454278E+02 -0.50739644804E+02  0.12849813059E+03  0.79270461580E+02 0.  0.
         -6    2    1    2    0  502 -0.73629714552E+02  0.43060532585E+02  0.53976493654E+02  0.19879680418E+03  0.17126343204E+03 0.  0.
        -24    2    5    5    0    0 -0.38792686349E+02 -0.31670730664E+02 -0.95585958599E+01  0.94599021859E+02  0.79685007918E+02 0.  0.
          5    1    3    3  501    0  0.58154738486E+02  0.43043921693E+02 -0.85431205376E+01  0.73005669038E+02  0.47000000000E+01 0. -1.
        -13    1    4    4    0    0 -0.15317002829E+02 -0.32499425003E+02  0.14388539029E+02  0.38702109200E+02  0.00000000000E+00 0.  1.
         14    1    4    4    0    0  0.30791978895E+02 -0.53605029276E+02 -0.65128183832E+02  0.89796021388E+02  0.00000000000E+00 0. -1.
         -5    1    5    5    0  502 -0.34837028203E+02  0.74731263249E+02  0.63535089514E+02  0.10419778232E+03  0.47000000000E+01 0.  1.
         13    1    6    6    0    0 -0.39751007262E+02 -0.14929053731E+02  0.29760901223E+02  0.51852969686E+02  0.00000000000E+00 0. -1.
        -14    1    6    6    0    0  0.95832091310E+00 -0.16741676933E+02 -0.39319497083E+02  0.42746052173E+02  0.00000000000E+00 0.  1.
</event>
<event>
12    1  0.8133495E-002  0.1809583E+03  0.7818608E-02  0.1167730E+00
         21   -1    0    0  501  502  0.00000000000E+00  0.00000000000E+00  0.14516413193E+03  0.14516413193E+03  0.00000000000E+00 0. -1.
         21   -1    0    0  502  503 -0.00000000000E+00 -0.00000000000E+00 -0.22375835288E+03  0.22375835288E+03  0.00000000000E+00 0. -1.
         -6    2    1    2    0  503 -0.22493531070E+02  0.50975532186E+02 -0.59284339764E+02  0.19042201522E+03  0.17216691644E+03 0.  0.
        -24    2    3    3    0    0  0.39311302290E+02  0.45438475436E+02  0.75301285543E+01  0.99116157790E+02  0.78468314378E+02 0.  0.
          6    2    1    2  501    0  0.22493531070E+02 -0.50975532186E+02 -0.19309881185E+02  0.17850046959E+03  0.16847872955E+03 0.  0.
         24    2    5    5    0    0  0.69304953750E+01 -0.74256505335E+02  0.37143603920E+02  0.11530792437E+03  0.79713297255E+02 0.  0.
          5    1    5    5  501    0  0.15563035695E+02  0.23280973149E+02 -0.56453485106E+02  0.63192545220E+02  0.47000000000E+01 0. -1.
        -11    1    6    6    0    0 -0.25907847567E+01  0.89167718275E+01  0.29865472766E+02  0.31275668642E+02  0.00000000000E+00 0.  1.
         12    1    6    6    0    0  0.95212801317E+01 -0.83173277162E+02  0.72781311540E+01  0.84032255726E+02  0.00000000000E+00 0. -1.
         -5    1    3    3    0  503 -0.61804833360E+02  0.55370567503E+01 -0.66814468318E+02  0.91305857428E+02  0.47000000000E+01 0.  1.
         11    1    4    4    0    0  0.86389025142E+01  0.38991136671E+02 -0.30197204851E+02  0.50068059243E+02  0.00000000000E+00 0. -1.
        -12    1    4    4    0    0  0.30672399776E+02  0.64473387646E+01  0.37727333405E+02  0.49048098547E+02  0.00000000000E+00 0.  1.
</event>
<event>
12    1  0.8133495E-002  0.2510197E+03  0.7818608E-02  0.1115023E+00
         21   -1    0    0  501  502  0.00000000000E+00  0.00000000000E+00  0.29195671136E+03  0.29195671136E+03  0.00000000000E+00 0. -1.
         21   -1    0    0  502  503 -0.00000000000E+00 -0.00000000000E+00 -0.21011371342E+03  0.21011371342E+03  0.00000000000E+00 0. -1.
         -6    2    1    2    0  503  0.11267105397E+03 -0.11648448329E+03  0.86651691488E+02  0.26555490250E+03  0.19169634674E+03 0.  0.
        -24    2    3    3    0    0  0.52623899793E+02 -0.14290948017E+03  0.10053986947E+03  0.19833204423E+03  0.77684876675E+02 0.  0.
          6    2    1    2  501    0 -0.11267105397E+03  0.11648448329E+03 -0.48086935525E+01  0.23651552228E+03  0.17220066055E+03 0.  0.
         24    2    5    5    0    0  0.97714410077E+01  0.72065120485E+02  0.65472758106E+01  0.10568627322E+03  0.76405882472E+02 0.  0.
          5    1    5    5  501    0 -0.12244249498E+03  0.44419362801E+02 -0.11355969363E+02  0.13082924906E+03  0.47000000000E+01 0. -1.
        -13    1    6    6    0    0 -0.22332876593E+01  0.26265627749E+02 -0.34227634767E+02  0.43201872141E+02  0.00000000000E+00 0.  1.
         14    1    6    6    0    0  0.12004728667E+02  0.45799492737E+02  0.40774910577E+02  0.62484401077E+02  0.00000000000E+00 0. -1.
         -5    1    3    3    0  503  0.60047154181E+02  0.26424996886E+02 -0.13888177981E+02  0.67222858265E+02  0.47000000000E+01 0.  1.
         11    1    4    4    0    0  0.46686819237E+02 -0.43793760680E+02  0.11650858331E+02  0.65063776902E+02  0.00000000000E+00 0. -1.
        -12    1    4    4    0    0  0.59370805560E+01 -0.99115719493E+02  0.88889011139E+02  0.13326826733E+03  0.00000000000E+00 0.  1.
</event>
<event>
12    1  0.8133495E-002  0.3111510E+03  0.7818608E-02  0.1079837E+00
         21   -1    0    0  503  502  0.00000000000E+00  0.00000000000E+00  0.19415567215E+03  0.19415567215E+03  0.00000000000E+00 0.  1.
         21   -1    0    0  501  503 -0.00000000000E+00 -0.00000000000E+00 -0.59463224704E+03  0.59463224704E+03  0.00000000000E+00 0. -1.
          6    2    1    2  501    0 -0.12802995767E+03 -0.22553103945E+03 -0.35906179458E+03  0.47489286995E+03  0.17129490883E+03 0.  0.
         24    2    3    3    0    0 -0.42028101400E+02 -0.83539214146E+02 -0.24368966272E+03  0.27267809170E+03  0.78889342562E+02 0.  0.
         -6    2    1    2    0  502  0.12802995767E+03  0.22553103945E+03 -0.41414780316E+02  0.31389504925E+03  0.17192730469E+03 0.  0.
        -24    2    5    5    0    0  0.12151221496E+03  0.23155174934E+03 -0.70469248811E+02  0.28315448879E+03  0.82638480668E+02 0.  0.
          5    1    3    3  501    0 -0.86001856266E+02 -0.14199182530E+03 -0.11537213186E+03  0.20221477825E+03  0.47000000000E+01 0. -1.
        -13    1    4    4    0    0 -0.25883148789E+02 -0.17020932843E+01 -0.16707655163E+02  0.30854177251E+02  0.00000000000E+00 0.  1.
         14    1    4    4    0    0 -0.16144952611E+02 -0.81837120862E+02 -0.22698200756E+03  0.24182391445E+03  0.00000000000E+00 0. -1.
         -5    1    5    5    0  502  0.65177427037E+01 -0.60207098936E+01  0.29054468495E+02  0.30740560455E+02  0.47000000000E+01 0.  1.
         11    1    6    6    0    0 -0.62238886047E+01  0.15313686732E+02  0.10133532306E+02  0.19389024413E+02  0.00000000000E+00 0. -1.
        -12    1    6    6    0    0  0.12773610357E+03  0.21623806261E+03 -0.80602781116E+02  0.26376546438E+03  0.00000000000E+00 0.  1.
</event>
<event>
12    1  0.8133495E-002  0.1752656E+03  0.7818608E-02  0.1172730E+00
         21   -1    0    0  501  502  0.00000000000E+00  0.00000000000E+00  0.48610423839E+03  0.48610423839E+03  0.00000000000E+00 0.  1.
         21   -1    0    0  502  503 -0.00000000000E+00 -0.00000000000E+00 -0.88806474549E+02  0.88806474549E+02  0.00000000000E+00 0.  1.
         -6    2    1    2    0  503  0.22359973033E+02 -0.18172383302E+02  0.35374128500E+03  0.39431395430E+03  0.17181499914E+03 0.  0.
        -24    2    3    3    0    0  0.36939695012E+02  0.48545503305E+02  0.16709843695E+03  0.19551383504E+03  0.81133008720E+02 0.  0.
          6    2    1    2  501    0 -0.22359973033E+02  0.18172383302E+02  0.43556478846E+02  0.18059675865E+03  0.17288093728E+03 0.  0.
         24    2    5    5    0    0 -0.16737251896E+02 -0.15330615413E+02 -0.39571084531E+02  0.90672636694E+02  0.78361297489E+02 0.  0.
          5    1    5    5  501    0 -0.56227211369E+01  0.33502998716E+02  0.83127563377E+02  0.89924121952E+02  0.47000000000E+01 0. -1.
        -11    1    6    6    0    0 -0.56047376888E+01  0.76341015444E+01 -0.58270040339E+02  0.59034652469E+02  0.00000000000E+00 0.  1.
         12    1    6    6    0    0 -0.11132514208E+02 -0.22964716958E+02  0.18698955809E+02  0.31637984226E+02  0.00000000000E+00 0. -1.
         -5    1    3    3    0  503 -0.14579721979E+02 -0.66717886608E+02  0.18664284805E+03  0.19880011925E+03  0.47000000000E+01 0.  1.
         13    1    4    4    0    0  0.47458781267E+02  0.51958022758E+02  0.75344659150E+02  0.10309602180E+03  0.00000000000E+00 0. -1.
        -14    1    4    4    0    0 -0.10519086255E+02 -0.34125194524E+01  0.91753777798E+02  0.92417813245E+02  0.00000000000E+00 0.  1.
</event>
<event>
12    1  0.8133495E-002  0.2023795E+03  0.7818608E-02  0.1147918E+00
         21   -1    0    0  503  502  0.00000000000E+00  0.00000000000E+00  0.16441793451E+03  0.16441793451E+03  0.00000000000E+00 0.  1.
         21   -1    0    0  501  503 -0.00000000000E+00 -0.00000000000E+00 -0.29124853402E+03  0.29124853402E+03  0.00000000000E+00 0. -1.
          6    2    1    2  501    0 -0.81926532808E+02  0.65054730461E+02 -0.15100480444E+03  0.25184828237E+03  0.17228183780E+03 0.  0.
         24    2    3    3    0    0 -0.32409722523E+02  0.56094055066E+02 -0.16940404698E+03  0.19806324420E+03  0.79588846219E+02 0.  0.
         -6    2    1    2    0  502  0.81926532808E+02 -0.65054730461E+02  0.24174204930E+02  0.20381818616E+03  0.17324371877E+03 0.  0.
        -24    2    5    5    0    0  0.58531246959E+02 -0.10026356326E+02 -0.40775077441E+02  0.11541026435E+03  0.90169215834E+02 0.  0.
          5    1    3    3  501    0 -0.49516810285E+02  0.89606753947E+01  0.18399242543E+02  0.53785038166E+02  0.47000000000E+01 0. -1.
        -13    1    4    4    0    0 -0.19541008170E+02  0.95697530713E+01  0.16317246203E+00  0.21759085445E+02  0.00000000000E+00 0.  1.
         14    1    4    4    0    0 -0.12868714353E+02  0.46524301995E+02 -0.16956721944E+03  0.17630415876E+03  0.00000000000E+00 0. -1.
         -5    1    5    5    0  502  0.23395285849E+02 -0.55028374135E+02  0.64949282371E+02  0.88407921819E+02  0.47000000000E+01 0.  1.
         13    1    6    6    0    0  0.79314293558E+01 -0.34643725067E+02 -0.46858839792E+02  0.58811955628E+02  0.00000000000E+00 0. -1.
        -14    1    6    6    0    0  0.50599817603E+02  0.24617368742E+02  0.60837623516E+01  0.56598308717E+02  0.00000000000E+00 0.  1.
</event>
<event>
12    1  0.8133495E-002  0.2062557E+03  0.7818608E-02  0.1144657E+00
         21   -1    0    0  501  502  0.00000000000E+00  0.00000000000E+00  0.13699015170E+04  0.13699015170E+04  0.00000000000E+00 0.  1.
         21   -1    0    0  502  503 -0.00000000000E+00 -0.00000000000E+00 -0.77727377447E+02  0.77727377447E+02  0.00000000000E+00 0.  1.
         -6    2    1    2    0  503 -0.65259831720E+02  0.93920595770E+02  0.85078340293E+02  0.22311370869E+03  0.17164346499E+03 0.  0.
        -24    2    3    3    0    0  0.57385544329E+01  0.59837870416E+02 -0.12102731811E+02  0.97939215369E+02  0.76368265968E+02 0.  0.
          6    2    1    2  501    0  0.65259831720E+02 -0.93920595770E+02  0.12070957993E+04  0.12245151858E+04  0.17110595432E+03 0.  0.
         24    2    5    5    0    0  0.45993983732E+02 -0.13080757573E+03  0.84316034009E+03  0.85817800414E+03  0.79523954171E+02 0.  0.
          5    1    5    5  501    0  0.19265847988E+02  0.36886979955E+02  0.36393545918E+03  0.36633718162E+03  0.47000000000E+01 0. -1.
        -11    1    6    6    0    0  0.36932440986E+02 -0.35052232390E+02  0.47272662031E+03  0.47546095712E+03  0.00000000000E+00 0.  1.
         12    1    6    6    0    0  0.90615427454E+01 -0.95755343335E+02  0.37043371978E+03  0.38271704702E+03  0.00000000000E+00 0. -1.
         -5    1    3    3    0  503 -0.70998386153E+02  0.34082725354E+02  0.97181072105E+02  0.12517449333E+03  0.47000000000E+01 0.  1.
         11    1    4    4    0    0  0.12464494854E+02  0.52207883581E+01 -0.35618291023E+02  0.38095707350E+02  0.00000000000E+00 0. -1.
        -12    1    4    4    0    0 -0.67259404215E+01  0.54617082058E+02  0.23515559212E+02  0.59843508020E+02  0.00000000000E+00 0.  1.
</event>
<event>
12    1  0.8133495E-002  0.2254144E+03  0.7818608E-02  0.1130104E+00
         21   -1    0    0  501  502  0.00000000000E+00  0.00000000000E+00  0.54618749635E+03  0.54618749635E+03  0.00000000000E+00 0.  1.
         21   -1    0    0  502  503 -0.00000000000E+00 -0.00000000000E+00 -0.27797751868E+03  0.27797751868E+03  0.00000000000E+00 0.  1.
         -6    2    1    2    0  503  0.13864393085E+03 -0.46036947485E+02 -0.20231680526E+03  0.30289227960E+03  0.17166858552E+03 0.  0.
        -24    2    3    3    0    0  0.47103130070E+02 -0.70083707159E+02 -0.53195452054E+02  0.12620828814E+03  0.77255064580E+02 0.  0.
          6    2    1    2  501    0 -0.13864393085E+03  0.46036947485E+02  0.47052678292E+03  0.52127273543E+03  0.17025942311E+03 0.  0.
         24    2    5    5    0    0 -0.83936642685E+01  0.19172376108E+02  0.25850379093E+03  0.27094759432E+03  0.78424201206E+02 0.  0.
          5    1    5    5  501    0 -0.13025026658E+03  0.26864571376E+02  0.21202299199E+03  0.25032514111E+03  0.47000000000E+01 0. -1.
        -11    1    6    6    0    0 -0.14571299365E+02  0.18560947331E+02  0.26250405289E+03  0.26356253397E+03  0.00000000000E+00 0.  1.
         12    1    6    6    0    0  0.61776350962E+01  0.61142877710E+00 -0.40002619588E+01  0.73850603431E+01  0.00000000000E+00 0. -1.
         -5    1    3    3    0  503  0.91540800780E+02  0.24046759674E+02 -0.14912135320E+03  0.17668399146E+03  0.47000000000E+01 0.  1.
         11    1    4    4    0    0  0.96516906726E+01  0.11487501390E+02  0.85447388271E+01  0.17266452521E+02  0.00000000000E+00 0. -1.
        -12    1    4    4    0    0  0.37451439397E+02 -0.81571208549E+02 -0.61740190881E+02  0.10894183561E+03  0.00000000000E+00 0.  1.
</event>
<event>
12    1  0.8133495E-002  0.1997845E+03  0.7818608E-02  0.1150045E+00
         21   -1    0    0  503  502  0.00000000000E+00  0.00000000000E+00  0.27667335092E+03  0.27667335092E+03  0.00000000000E+00 0.  1.
         21   -1    0    0  501  503 -0.00000000000E+00 -0.00000000000E+00 -0.23671003889E+03  0.23671003889E+03  0.00000000000E+00 0.  1.
          6    2    1    2  501    0  0.75882745205E+01  0.10027661478E+03 -0.14081981183E+03  0.24394624488E+03  0.17194932278E+03 0.  0.
         24    2    3    3    0    0 -0.10541893974E+02  0.19016761119E+02 -0.13907579167E+03  0.16053762163E+03  0.77184735513E+02 0.  0.
         -6    2    1    2    0  502 -0.75882745205E+01 -0.10027661478E+03  0.18078312386E+03  0.26943714493E+03  0.17262924380E+03 0.  0.
        -24    2    5    5    0    0  0.31490036923E+02 -0.12612047341E+02  0.89262202744E+02  0.13673311405E+03  0.97864791812E+02 0.  0.
          5    1    3    3  501    0  0.18130168495E+02  0.81259853659E+02 -0.17440201582E+01  0.83408623251E+02  0.47000000000E+01 0. -1.
        -13    1    4    4    0    0 -0.10504782136E+02  0.47093478067E+02 -0.11000654435E+03  0.12012321142E+03  0.00000000000E+00 0.  1.
         14    1    4    4    0    0 -0.37111838469E-01 -0.28076716948E+02 -0.29069247328E+02  0.40414410203E+02  0.00000000000E+00 0. -1.
         -5    1    5    5    0  502 -0.39078311444E+02 -0.87664567437E+02  0.91520921114E+02  0.13270403088E+03  0.47000000000E+01 0.  1.
         11    1    6    6    0    0  0.21891073292E+02  0.11930749037E+02 -0.15064770980E+02  0.29129181024E+02  0.00000000000E+00 0. -1.
        -12    1    6    6    0    0  0.95989636314E+01 -0.24542796378E+02  0.10432697372E+03  0.10760393303E+03  0.00000000000E+00 0.  1.
</event>
<event>
12    1  0.8133495E-002  0.3007445E+03  0.7818608E-02  0.1085103E+00
         21   -1    0    0  503  502  0.00000000000E+00  0.00000000000E+00  0.24170392584E+03  0.24170392584E+03  0.00000000000E+00 0.  1.
         21   -1    0    0  501  503 -0.00000000000E+00 -0.00000000000E+00 -0.37990883936E+03  0.37990883936E+03  0.00000000000E+00 0.  1.
          6    2    1    2  501    0  0.18655772556E+03 -0.15759297293E+03 -0.11408267487E+03  0.31990245675E+03  0.17228869680E+03 0.  0.
         24    2    3    3    0    0  0.64674244520E+02 -0.14311725417E+03 -0.63418727190E+02  0.18703389396E+03  0.79337482846E+02 0.  0.
         -6    2    1    2    0  502 -0.18655772556E+03  0.15759297293E+03 -0.24122238650E+02  0.30171030845E+03  0.17552178710E+03 0.  0.
        -24    2    5    5    0    0 -0.92213318962E+02  0.26445166531E+02  0.33880199168E+02  0.12999255465E+03  0.80916953357E+02 0.  0.
          5    1    3    3  501    0  0.12188348104E+03 -0.14475718761E+02 -0.50663947681E+02  0.13286856279E+03  0.47000000000E+01 0. -1.
        -13    1    4    4    0    0 -0.64834806772E+01 -0.98892576106E+01 -0.30132069234E+02  0.32369345592E+02  0.00000000000E+00 0.  1.
         14    1    4    4    0    0  0.71157725197E+02 -0.13322799656E+03 -0.33286657957E+02  0.15466454836E+03  0.00000000000E+00 0. -1.
         -5    1    5    5    0  502 -0.94344406597E+02  0.13114780640E+03 -0.58002437818E+02  0.17171775381E+03  0.47000000000E+01 0.  1.
         11    1    6    6    0    0 -0.35831914520E+02  0.41649050087E+02  0.44422011918E+02  0.70653270371E+02  0.00000000000E+00 0. -1.
        -12    1    6    6    0    0 -0.56381404442E+02 -0.15203883556E+02 -0.10541812750E+02  0.59339284274E+02  0.00000000000E+00 0.  1.
</event>
<event>
12    1  0.8133495E-002  0.1910839E+03  0.7818608E-02  0.1157640E+00
         21   -1    0    0  503  502  0.00000000000E+00  0.00000000000E+00  0.24818534173E+03  0.24818534173E+03  0.00000000000E+00 0. -1.
         21   -1    0    0  501  503 -0.00000000000E+00 -0.00000000000E+00 -0.22219622956E+03  0.22219622956E+03  0.00000000000E+00 0. -1.
          6    2    1    2  501    0 -0.33505078903E+02 -0.73709019430E+02 -0.12417684848E+03  0.22788800417E+03  0.17308218537E+03 0.  0.
         24    2    3    3    0    0 -0.24374211005E+02 -0.54799746502E+01 -0.13467163772E+03  0.15809684498E+03  0.78955874410E+02 0.  0.
         -6    2    1    2    0  502  0.33505078903E+02  0.73709019430E+02  0.15016596064E+03  0.24249356711E+03  0.17233021934E+03 0.  0.
        -24    2    5    5    0    0  0.12959764339E+02  0.11674119204E+03  0.11476458293E+03  0.18291819155E+03  0.80571048725E+02 0.  0.
          5    1    3    3  501    0 -0.91308678971E+01 -0.68229044779E+02  0.10494789238E+02  0.69791159191E+02  0.47000000000E+01 0. -1.
        -13    1    4    4    0    0  0.21822927964E+02  0.17241997783E+02 -0.27060131670E+02  0.38804347675E+02  0.00000000000E+00 0.  1.
         14    1    4    4    0    0 -0.46197138970E+02 -0.22721972433E+02 -0.10761150605E+03  0.11929249731E+03  0.00000000000E+00 0. -1.
         -5    1    5    5    0  502  0.20545314563E+02 -0.43032172612E+02  0.35401377707E+02  0.59575375566E+02  0.47000000000E+01 0.  1.
         11    1    6    6    0    0  0.54340550717E+01  0.10918693345E+03  0.55314568105E+02  0.12251945492E+03  0.00000000000E+00 0. -1.
        -12    1    6    6    0    0  0.75257092675E+01  0.75542585950E+01  0.59450014829E+02  0.60398736626E+02  0.00000000000E+00 0.  1.
</event>
<event>
12    1  0.8133495E-002  0.1899439E+03  0.7818608E-02  0.1158525E+00
         21   -1    0    0  501  502  0.00000000000E+00  0.00000000000E+00  0.40112525154E+03  0.40112525154E+03  0.00000000000E+00 0.  1.
         21   -1    0    0  502  503 -0.00000000000E+00 -0.00000000000E+00 -0.15929966131E+03  0.15929966131E+03  0.00000000000E+00 0.  1.
         -6    2    1    2    0  503  0.54550234208E+02 -0.58619644520E+02 -0.64028271320E+02  0.20038982468E+03  0.17217569960E+03 0.  0.
        -24    2    3    3    0    0 -0.12701194917E+02 -0.75716454084E+02 -0.69280967757E+02  0.13064216209E+03  0.79832451120E+02 0.  0.
          6    2    1    2  501    0 -0.54550234208E+02  0.58619644520E+02  0.30585386155E+03  0.36003508817E+03  0.17224020818E+03 0.  0.
         24    2    5    5    0    0  0.54622011757E+01  0.56496397930E+01  0.24919772645E+03  0.26185504211E+03  0.80042502056E+02 0.  0.
          5    1    5    5  501    0 -0.60012435384E+02  0.52970004727E+02  0.56656135095E+02  0.98180046065E+02  0.47000000000E+01 0. -1.
        -13    1    6    6    0    0 -0.25904736753E+02 -0.25006239425E+02  0.12790076588E+03  0.13287201853E+03  0.00000000000E+00 0.  1.
         14    1    6    6    0    0  0.31366937929E+02  0.30655879218E+02  0.12129696057E+03  0.12898302357E+03  0.00000000000E+00 0. -1.
         -5    1    3    3    0  503  0.67251429125E+02  0.17096809564E+02  0.52526964374E+01  0.69747662588E+02  0.47000000000E+01 0.  1.
         11    1    4    4    0    0  0.14791474455E+02 -0.33697623110E+02  0.87720925661E+01  0.37832091243E+02  0.00000000000E+00 0. -1.
        -12    1    4    4    0    0 -0.27492669372E+02 -0.42018830974E+02 -0.78053060323E+02  0.92810070852E+02  0.00000000000E+00 0.  1.
</event>
<event>
12    1  0.8133495E-002  0.2010696E+03  0.7818608E-02  0.1149138E+00
         21   -1    0    0  501  502  0.00000000000E+00  0.00000000000E+00  0.13415983927E+03  0.13415983927E+03  0.00000000000E+00 0. -1.
         21   -1    0    0  502  503 -0.00000000000E+00 -0.00000000000E+00 -0.35039138469E+03  0.35039138469E+03  0.00000000000E+00 0. -1.
         -6    2    1    2    0  503 -0.10041223314E+03 -0.87898455284E+01 -0.20036774858E+03  0.28285682545E+03  0.17233940666E+03 0.  0.
        -24    2    3    3    0    0 -0.10540917750E+03 -0.61526123757E+02 -0.15762296865E+03  0.21462713466E+03  0.79518853626E+02 0.  0.
          6    2    1    2  501    0  0.10041223314E+03  0.87898455284E+01 -0.15863796847E+02  0.20169439850E+03  0.17398014940E+03 0.  0.
         24    2    5    5    0    0  0.12591713651E+03  0.38978433073E+02 -0.29936960691E+02  0.15948071761E+03  0.84637073218E+02 0.  0.
          5    1    5    5  501    0 -0.25504903366E+02 -0.30188587544E+02  0.14073163844E+02  0.42213680889E+02  0.47000000000E+01 0. -1.
        -11    1    6    6    0    0  0.52366018660E+02  0.60460303599E+02 -0.13570933527E+02  0.81128407222E+02  0.00000000000E+00 0.  1.
         12    1    6    6    0    0  0.73551117850E+02 -0.21481870526E+02 -0.16366027164E+02  0.78352310389E+02  0.00000000000E+00 0. -1.
         -5    1    3    3    0  503  0.49969443568E+01  0.52736278229E+02 -0.42744779926E+02  0.68229690790E+02  0.47000000000E+01 0.  1.
         11    1    4    4    0    0 -0.64958466681E+02 -0.19531254868E+02 -0.29712080972E+02  0.74053224548E+02  0.00000000000E+00 0. -1.
        -12    1    4    4    0    0 -0.40450710820E+02 -0.41994868889E+02 -0.12791088768E+03  0.14057391012E+03  0.00000000000E+00 0.  1.
</event>
<event>
12    1  0.8133495E-002  0.2251509E+03  0.7818608E-02  0.1130218E+00
         21   -1    0    0  503  502  0.00000000000E+00  0.00000000000E+00  0.62084757651E+03  0.62084757651E+03  0.00000000000E+00 0. -1.
         21   -1    0    0  501  503 -0.00000000000E+00 -0.00000000000E+00 -0.85063042077E+02  0.85063042077E+02  0.00000000000E+00 0. -1.
          6    2    1    2  501    0  0.65565471743E+02 -0.12844622127E+03  0.19517281885E+03  0.29796872820E+03  0.17290364635E+03 0.  0.
         24    2    3    3    0    0  0.52776622999E+02 -0.25997297215E+02  0.30092286789E+02  0.10320474601E+03  0.79274475566E+02 0.  0.
         -6    2    1    2    0  502 -0.65565471743E+02  0.12844622127E+03  0.34061171558E+03  0.40794189039E+03  0.17205517226E+03 0.  0.
        -24    2    5    5    0    0 -0.39421550943E+00  0.12423997805E+03  0.17145388174E+03  0.22655432778E+03  0.80589715963E+02 0.  0.
          5    1    3    3  501    0  0.12788848744E+02 -0.10244892406E+03  0.16508053206E+03  0.19476398219E+03  0.47000000000E+01 0. -1.
        -13    1    4    4    0    0 -0.17402193178E+02 -0.20686689234E+02  0.16048727937E+02  0.31437829238E+02  0.00000000000E+00 0.  1.
         14    1    4    4    0    0  0.70178816176E+02 -0.53106079811E+01  0.14043558853E+02  0.71766916767E+02  0.00000000000E+00 0. -1.
         -5    1    5    5    0  502 -0.65171256233E+02  0.42062432214E+01  0.16915783384E+03  0.18138756262E+03  0.47000000000E+01 0.  1.
         11    1    6    6    0    0  0.10428145613E+02  0.12231172817E+03  0.17606458970E+03  0.21463374576E+03  0.00000000000E+00 0. -1.
        -12    1    6    6    0    0 -0.10822361122E+02  0.19282498764E+01 -0.46107079618E+01  0.11920582022E+02  0.00000000000E+00 0.  1.
</event>
<event>
12    1  0.8133495E-002  0.1937664E+03  0.7818608E-02  0.1155155E+00
         21   -1    0    0  501  502  0.00000000000E+00  0.00000000000E+00  0.48877138369E+02  0.48877138369E+02  0.00000000000E+00 0. -1.
         21   -1    0    0  502  503 -0.00000000000E+00 -0.00000000000E+00 -0.93417249057E+03  0.93417249057E+03  0.00000000000E+00 0. -1.
         -6    2    1    2    0  503  0.61953025833E+01  0.90597610385E+02 -0.65018166034E+03  0.67837951317E+03  0.17092765624E+03 0.  0.
        -24    2    3    3    0    0  0.25850956493E+02 -0.20817276786E+01 -0.43015906100E+03  0.43878018375E+03  0.82574974161E+02 0.  0.
          6    2    1    2  501    0 -0.61953025833E+01 -0.90597610385E+02 -0.23511369186E+03  0.30467011577E+03  0.17116986464E+03 0.  0.
         24    2    5    5    0    0 -0.56561923794E+01 -0.60739771735E+02 -0.25088715115E+03  0.27057212189E+03  0.80892509870E+02 0.  0.
          5    1    5    5  501    0 -0.53911020385E+00 -0.29857838650E+02  0.15773459282E+02  0.34097993876E+02  0.47000000000E+01 0. -1.
        -11    1    6    6    0    0  0.33523985040E+02 -0.42759886453E+02 -0.17562867820E+03  0.18384150257E+03  0.00000000000E+00 0.  1.
         12    1    6    6    0    0 -0.39180177420E+02 -0.17979885282E+02 -0.75258472948E+02  0.86730619321E+02  0.00000000000E+00 0. -1.
         -5    1    3    3    0  503 -0.19655653910E+02  0.92679338064E+02 -0.22002259934E+03  0.23959932941E+03  0.47000000000E+01 0.  1.
         11    1    4    4    0    0  0.15889194957E+02  0.35499147601E+02 -0.11882931777E+03  0.12503224687E+03  0.00000000000E+00 0. -1.
        -12    1    4    4    0    0  0.99617615358E+01 -0.37580875280E+02 -0.31132974323E+03  0.31374793688E+03  0.00000000000E+00 0.  1.
</event>
<event>
12    1  0.8133495E-002  0.2161514E+03  0.7818608E-02  0.1136848E+00
         21   -1    0    0  501  502  0.00000000000E+00  0.00000000000E+00  0.19919814133E+03  0.19919814133E+03  0.00000000000E+00 0. -1.
         21   -1    0    0  502  503 -0.00000000000E+00 -0.00000000000E+00 -0.26552457458E+03  0.26552457458E+03  0.00000000000E+00 0.  1.
         -6    2    1    2    0  503 -0.11425484198E+03  0.63022484464E+02 -0.11300264144E+03  0.24390785844E+03  0.17232366051E+03 0.  0.
        -24    2    3    3    0    0 -0.12519954266E+03 -0.49702904374E+01 -0.79217727823E+02  0.16705530936E+03  0.77022066407E+02 0.  0.
          6    2    1    2  501    0  0.11425484198E+03 -0.63022484464E+02  0.46676208190E+02  0.22081485746E+03  0.17191431122E+03 0.  0.
         24    2    5    5    0    0  0.94819536347E+02  0.23968800998E+02  0.30408949773E+02  0.13008488145E+03  0.80200525314E+02 0.  0.
          5    1    5    5  501    0  0.19435305634E+02 -0.86991285463E+02  0.16267258417E+02  0.90729976017E+02  0.47000000000E+01 0. -1.
        -11    1    6    6    0    0 -0.11918008477E+02 -0.57778123154E+01 -0.43746818309E+01  0.13948472401E+02  0.00000000000E+00 0.  1.
         12    1    6    6    0    0  0.10673754482E+03  0.29746613314E+02  0.34783631604E+02  0.11613640905E+03  0.00000000000E+00 0. -1.
         -5    1    3    3    0  503  0.10944700684E+02  0.67992774902E+02 -0.33784913620E+02  0.76852549081E+02  0.47000000000E+01 0.  1.
         13    1    4    4    0    0 -0.46833971170E+02 -0.38136223112E+02 -0.45090763561E+02  0.75372205270E+02  0.00000000000E+00 0. -1.
        -14    1    4    4    0    0 -0.78365571495E+02  0.33165932674E+02 -0.34126964261E+02  0.91683104090E+02  0.00000000000E+00 0.  1.
</event>
<event>
12    1  0.8133495E-002  0.1944338E+03  0.7818608E-02  0.1156013E+00
         21   -1    0    0  503  502  0.00000000000E+00  0.00000000000E+00  0.11232512683E+03  0.11232512683E+03  0.00000000000E+00 0.  1.
         21   -1    0    0  501  503 -0.00000000000E+00 -0.00000000000E+00 -0.35246463007E+03  0.35246463007E+03  0.00000000000E+00 0.  1.
          6    2    1    2  501    0  0.86544325941E+02 -0.24569226246E+01 -0.18676419947E+03  0.26960225254E+03  0.17409351381E+03 0.  0.
         24    2    3    3    0    0  0.22609494553E+02 -0.23376388059E+02 -0.19519475148E+02  0.89274288784E+02  0.80816112040E+02 0.  0.
         -6    2    1    2    0  502 -0.86544325941E+02  0.24569226246E+01 -0.53375303763E+02  0.19518750436E+03  0.16659316308E+03 0.  0.
        -24    2    5    5    0    0 -0.12374720085E+03  0.52109600752E+01 -0.35225974985E+02  0.15343673480E+03  0.83435235065E+02 0.  0.
          5    1    3    3  501    0  0.63934831388E+02  0.20919465435E+02 -0.16724472432E+03  0.18032796375E+03  0.47000000000E+01 0. -1.
        -13    1    4    4    0    0 -0.46002383100E+00 -0.51012271278E+02 -0.93269906536E+01  0.51859967195E+02  0.00000000000E+00 0.  1.
         14    1    4    4    0    0  0.23069518384E+02  0.27635883219E+02 -0.10192484494E+02  0.37414321589E+02  0.00000000000E+00 0. -1.
         -5    1    5    5    0  502  0.37202874907E+02 -0.27540374507E+01 -0.18149328779E+02  0.41750769559E+02  0.47000000000E+01 0.  1.
         11    1    6    6    0    0 -0.12119243060E+02 -0.12873571464E+02  0.20747140452E+02  0.27258920219E+02  0.00000000000E+00 0. -1.
        -12    1    6    6    0    0 -0.11162795779E+03  0.18084531540E+02 -0.55973115437E+02  0.12617781458E+03  0.00000000000E+00 0.  1.
</event>
<event>
12    1  0.8133495E-002  0.2961035E+03  0.7818608E-02  0.1087724E+00
         21   -1    0    0  501  502  0.00000000000E+00  0.00000000000E+00  0.14119011998E+03  0.14119011998E+03  0.00000000000E+00 0.  1.
         21   -1    0    0  502  503 -0.00000000000E+00 -0.00000000000E+00 -0.79018240790E+03  0.79018240790E+03  0.00000000000E+00 0.  1.
         -6    2    1    2    0  503 -0.18713541863E+03 -0.14421635623E+03 -0.54357680885E+03  0.61706418564E+03  0.17168121554E+03 0.  0.
        -24    2    3    3    0    0 -0.88883319274E+02 -0.14316854796E+03 -0.29145917747E+03  0.34643535683E+03  0.81679414553E+02 0.  0.
          6    2    1    2  501    0  0.18713541863E+03  0.14421635623E+03 -0.10541547907E+03  0.31430834224E+03  0.17849170418E+03 0.  0.
         24    2    5    5    0    0  0.95912041794E+02  0.13777165389E+03 -0.12043722215E+03  0.22151296824E+03  0.79891941047E+02 0.  0.
          5    1    5    5  501    0  0.91223376833E+02  0.64447023456E+01  0.15021743084E+02  0.92795373993E+02  0.47000000000E+01 0. -1.
        -13    1    6    6    0    0  0.66855631254E+02  0.30312377273E+02 -0.35788442604E+02  0.81665955393E+02  0.00000000000E+00 0.  1.
         14    1    6    6    0    0  0.29056410540E+02  0.10745927662E+03 -0.84648779547E+02  0.13984701285E+03  0.00000000000E+00 0. -1.
         -5    1    3    3    0  503 -0.98252099353E+02 -0.10478082759E+01 -0.25211763138E+03  0.27062882881E+03  0.47000000000E+01 0.  1.
         13    1    4    4    0    0 -0.80644605616E+02 -0.12908112838E+03 -0.29286665790E+03  0.33005510060E+03  0.00000000000E+00 0. -1.
        -14    1    4    4    0    0 -0.82387136584E+01 -0.14087419575E+02  0.14074804353E+01  0.16380256231E+02  0.00000000000E+00 0.  1.
</event>
<event>
12    1  0.8133495E-002  0.2011403E+03  0.7818608E-02  0.1148944E+00
         21   -1    0    0  501  502  0.00000000000E+00  0.00000000000E+00  0.43623741380E+03  0.43623741380E+03  0.00000000000E+00 0. -1.
         21   -1    0    0  502  503 -0.00000000000E+00 -0.00000000000E+00 -0.18781419100E+03  0.18781419100E+03  0.00000000000E+00 0. -1.
         -6    2    1    2    0  503 -0.74166908554E+02  0.72453305239E+02 -0.98326688546E+02  0.22318636536E+03  0.17144621384E+03 0.  0.
        -24    2    3    3    0    0 -0.41820746671E+02  0.21458883062E+02 -0.12613702888E+03  0.15653645680E+03  0.79897770542E+02 0.  0.
          6    2    1    2  501    0  0.74166908554E+02 -0.72453305239E+02  0.34674991134E+03  0.40086523943E+03  0.17235784694E+03 0.  0.
         24    2    5    5    0    0 -0.22531803858E+02 -0.30351436266E+02  0.21180579677E+03  0.22953161047E+03  0.79963571669E+02 0.  0.
          5    1    5    5  501    0  0.96698712412E+02 -0.42101868973E+02  0.13494411458E+03  0.17133362896E+03  0.47000000000E+01 0. -1.
        -11    1    6    6    0    0 -0.36637005941E+01 -0.22121834853E+02  0.67103002632E+01  0.23405691807E+02  0.00000000000E+00 0.  1.
         12    1    6    6    0    0 -0.18868103264E+02 -0.82296014126E+01  0.20509549650E+03  0.20612591867E+03  0.00000000000E+00 0. -1.
         -5    1    3    3    0  503 -0.32346161882E+02  0.50994422177E+02  0.27810340338E+02  0.66649908563E+02  0.47000000000E+01 0.  1.
         13    1    4    4    0    0 -0.30557821463E+02 -0.28021431273E+02 -0.64801118281E+02  0.76929617142E+02  0.00000000000E+00 0. -1.
        -14    1    4    4    0    0 -0.11262925209E+02  0.49480314335E+02 -0.61335910604E+02  0.79606839659E+02  0.00000000000E+00 0.  1.
</event>
<event>
12    1  0.8133495E-002  0.1864892E+03  0.7818608E-02  0.1161996E+00
         21   -1    0    0  501  502  0.00000000000E+00  0.00000000000E+00  0.15318132033E+03  0.15318132033E+03  0.00000000000E+00 0.  1.
         21   -1    0    0  502  503 -0.00000000000E+00 -0.00000000000E+00 -0.25865387027E+03  0.25865387027E+03  0.00000000000E+00 0. -1.
         -6    2    1    2    0  503 -0.28387814134E+02 -0.67498170269E+02 -0.12684253246E+03  0.22553766705E+03  0.17151192447E+03 0.  0.
        -24    2    3    3    0    0 -0.68144157582E+02 -0.67560423084E+02 -0.13615022819E+03  0.18443664614E+03  0.79195674274E+02 0.  0.
          6    2    1    2  501    0  0.28387814134E+02  0.67498170269E+02  0.21369982517E+02  0.18629752355E+03  0.16996534984E+03 0.  0.
         24    2    5    5    0    0  0.31414514167E+02  0.67470855183E+02 -0.45929741925E+02  0.11876601557E+03  0.80353203184E+02 0.  0.
          5    1    5    5  501    0 -0.30267000335E+01  0.27315085899E-01  0.67299724442E+02  0.67531507973E+02  0.47000000000E+01 0. -1.
        -13    1    6    6    0    0  0.27308246747E+02  0.78805304836E+02 -0.13913483637E+02  0.84555315845E+02  0.00000000000E+00 0.  1.
         14    1    6    6    0    0  0.41062674205E+01 -0.11334449653E+02 -0.32016258288E+02  0.34210699727E+02  0.00000000000E+00 0. -1.
         -5    1    3    3    0  503  0.39756343449E+02  0.62252814515E-01  0.93076957324E+01  0.41101020908E+02  0.47000000000E+01 0.  1.
         13    1    4    4    0    0 -0.80229019425E+02 -0.73443405643E+02 -0.10818941165E+03  0.15341309652E+03  0.00000000000E+00 0. -1.
        -14    1    4    4    0    0  0.12084861843E+02  0.58829825596E+01 -0.27960816542E+02  0.31023549624E+02  0.00000000000E+00 0.  1.
</event>
<event>
12    1  0.8133495E-002  0.2662715E+03  0.7818608E-02  0.1103898E+00
         21   -1    0    0  501  502  0.00000000000E+00  0.00000000000E+00  0.12583233486E+04  0.12583233486E+04  0.00000000000E+00 0. -1.
         21   -1    0    0  502  503 -0.00000000000E+00 -0.00000000000E+00 -0.55678702594E+02  0.55678702594E+02  0.00000000000E+00 0. -1.
         -6    2    1    2    0  503  0.19548707088E+03 -0.40537251414E+02  0.60031052209E+03  0.65671395587E+03  0.17618749466E+03 0.  0.
        -24    2    3    3    0    0  0.53811422612E+02 -0.53237492580E+02  0.15979703439E+03  0.19378036638E+03  0.79283279288E+02 0.  0.
          6    2    1    2  501    0 -0.19548707088E+03  0.40537251414E+02  0.60233412391E+03  0.65728809531E+03  0.17135571126E+03 0.  0.
         24    2    5    5    0    0 -0.10869246089E+03  0.12930195970E+02  0.18207037330E+03  0.22724255829E+03  0.80674149786E+02 0.  0.
          5    1    5    5  501    0 -0.86794609986E+02  0.27607055444E+02  0.42026375061E+03  0.43004553702E+03  0.47000000000E+01 0. -1.
        -13    1    6    6    0    0 -0.44435765484E+02 -0.34127820084E+02  0.82712869931E+02  0.99903274271E+02  0.00000000000E+00 0.  1.
         14    1    6    6    0    0 -0.64256695409E+02  0.47058016054E+02  0.99357503369E+02  0.12733928402E+03  0.00000000000E+00 0. -1.
         -5    1    3    3    0  503  0.14167564827E+03  0.12700241167E+02  0.44051348770E+03  0.46293358949E+03  0.47000000000E+01 0.  1.
         11    1    4    4    0    0 -0.14618147045E+01 -0.46021680003E+02  0.10915395580E+03  0.11846821515E+03  0.00000000000E+00 0. -1.
        -12    1    4    4    0    0  0.55273237316E+02 -0.72158125769E+01  0.50643078586E+02  0.75312151232E+02  0.00000000000E+00 0.  1.
</event>
<event>
12    1  0.8133495E-002  0.2059420E+03  0.7818608E-02  0.1145333E+00
         21   -1    0    0  503  502  0.00000000000E+00  0.00000000000E+00  0.49367851461E+03  0.49367851461E+03  0.00000000000E+00 0.  1.
         21   -1    0    0  501  503 -0.00000000000E+00 -0.00000000000E+00 -0.16444393652E+03  0.16444393652E+03  0.00000000000E+00 0. -1.
          6    2    1    2  501    0 -0.14853183456E+02 -0.11061344191E+03 -0.64809183977E+02  0.21350736257E+03  0.17008589875E+03 0.  0.
         24    2    3    3    0    0 -0.54423927798E+02 -0.12201480421E+03 -0.66227766301E+02  0.17203523644E+03  0.85792943672E+02 0.  0.
         -6    2    1    2    0  502  0.14853183456E+02  0.11061344191E+03  0.39404376207E+03  0.44461508857E+03  0.17307842143E+03 0.  0.
        -24    2    5    5    0    0 -0.49786838490E+02  0.29617320277E+02  0.15989517250E+03  0.18851675559E+03  0.81339940996E+02 0.  0.
          5    1    3    3  501    0  0.39570744343E+02  0.11401362297E+02  0.14185823236E+01  0.41472126131E+02  0.47000000000E+01 0. -1.
        -13    1    4    4    0    0 -0.41729859962E+02 -0.13218766283E+03 -0.45942850476E+02  0.14603323227E+03  0.00000000000E+00 0.  1.
         14    1    4    4    0    0 -0.12694067836E+02  0.10172858622E+02 -0.20284915825E+02  0.26002004169E+02  0.00000000000E+00 0. -1.
         -5    1    5    5    0  502  0.64640021945E+02  0.80996121637E+02  0.23414858957E+03  0.25609833298E+03  0.47000000000E+01 0.  1.
         13    1    6    6    0    0  0.11949804940E+00 -0.16173287892E+02  0.14938727162E+01  0.16242572970E+02  0.00000000000E+00 0. -1.
        -14    1    6    6    0    0 -0.49906336539E+02  0.45790608169E+02  0.15840129978E+03  0.17227418262E+03  0.00000000000E+00 0.  1.
</event>
<event>
12    1  0.8133495E-002  0.2650951E+03  0.7818608E-02  0.1104205E+00
         21   -1    0    0  501  502  0.00000000000E+00  0.00000000000E+00  0.10209426679E+04  0.10209426679E+04  0.00000000000E+00 0.  1.
         21   -1    0    0  502  503 -0.00000000000E+00 -0.00000000000E+00 -0.71448869866E+02  0.71448869866E+02  0.00000000000E+00 0.  1.
         -6    2    1    2    0  503  0.17939478926E+03 -0.91382953910E+02  0.36779262022E+03  0.45337272421E+03  0.17245892523E+03 0.  0.
        -24    2    3    3    0    0  0.11545424687E+03 -0.48811753876E+02  0.11140158540E+03  0.18568045168E+03  0.79716036475E+02 0.  0.
          6    2    1    2  501    0 -0.17939478926E+03  0.91382953910E+02  0.58170117785E+03  0.63901881359E+03  0.17156762262E+03 0.  0.
         24    2    5    5    0    0 -0.15827456547E+03  0.80697584213E+02  0.58303950476E+03  0.61485019557E+03  0.80887333423E+02 0.  0.
          5    1    5    5  501    0 -0.21120223788E+02  0.10685369696E+02 -0.13383269048E+01  0.24168618026E+02  0.47000000000E+01 0. -1.
        -13    1    6    6    0    0 -0.10670340303E+03  0.94156756348E+01  0.30992757751E+03  0.32791671879E+03  0.00000000000E+00 0.  1.
         14    1    6    6    0    0 -0.51571162440E+02  0.71281908578E+02  0.27311192725E+03  0.28693347677E+03  0.00000000000E+00 0. -1.
         -5    1    3    3    0  503  0.63940542387E+02 -0.42571200033E+02  0.25639103482E+03  0.26769227253E+03  0.47000000000E+01 0.  1.
         13    1    4    4    0    0 -0.11652561284E+02 -0.63952646024E+01  0.37916567629E+01  0.13822382386E+02  0.00000000000E+00 0. -1.
        -14    1    4    4    0    0  0.12710680816E+03 -0.42416489274E+02  0.10760992863E+03  0.17185806930E+03  0.00000000000E+00 0.  1.
</event>
<event>
12    1  0.8133495E-002  0.1794862E+03  0.7818608E-02  0.1168356E+00
         21   -1    0    0  501  502  0.00000000000E+00  0.00000000000E+00  0.51330966077E+03  0.51330966077E+03  0.00000000000E+00 0. -1.
         21   -1    0    0  502  503 -0.00000000000E+00 -0.00000000000E+00 -0.68764249293E+02  0.68764249293E+02  0.00000000000E+00 0. -1.
         -6    2    1    2    0  503 -0.22025107606E+02  0.41388510594E+02  0.30871144182E+03  0.35698244710E+03  0.17301907134E+03 0.  0.
        -24    2    3    3    0    0 -0.78018616535E+02  0.33866796792E+02  0.24993942346E+03  0.27532407727E+03  0.78101009420E+02 0.  0.
          6    2    1    2  501    0  0.22025107606E+02 -0.41388510594E+02  0.13583396966E+03  0.22509146297E+03  0.17325468310E+03 0.  0.
         24    2    5    5    0    0  0.52365362784E+02  0.17812752686E+02  0.12382245700E+03  0.15732947440E+03  0.79756738149E+02 0.  0.
          5    1    5    5  501    0 -0.30340255178E+02 -0.59201263280E+02  0.12011512655E+02  0.67761988566E+02  0.47000000000E+01 0. -1.
        -11    1    6    6    0    0 -0.16570755910E+02  0.29957039756E+01  0.59675892156E+02  0.62006260154E+02  0.00000000000E+00 0.  1.
         12    1    6    6    0    0  0.68936118694E+02  0.14817048711E+02  0.64146564845E+02  0.95323214247E+02  0.00000000000E+00 0. -1.
         -5    1    3    3    0  503  0.55993508929E+02  0.75217138022E+01  0.58772018363E+02  0.81658369830E+02  0.47000000000E+01 0.  1.
         13    1    4    4    0    0 -0.16033549964E+02  0.45162403900E+02  0.71389386935E+02  0.85983498518E+02  0.00000000000E+00 0. -1.
        -14    1    4    4    0    0 -0.61985066572E+02 -0.11295607108E+02  0.17855003653E+03  0.18934057875E+03  0.00000000000E+00 0.  1.
</event>
<event>
12    1  0.8133495E-002  0.2583378E+03  0.7818608E-02  0.1108180E+00
         21   -1    0    0  501  502  0.00000000000E+00  0.00000000000E+00  0.16386389970E+03  0.16386389970E+03  0.00000000000E+00 0. -1.
         21   -1    0    0  502  503 -0.00000000000E+00 -0.00000000000E+00 -0.11298921275E+04  0.11298921275E+04  0.00000000000E+00 0. -1.
         -6    2    1    2    0  503 -0.19353858551E+03 -0.68098525365E+01 -0.10005321804E+04  0.10333455669E+04  0.17098204125E+03 0.  0.
        -24    2    3    3    0    0 -0.11253241059E+03 -0.60070050226E+02 -0.74156048040E+03  0.75678258956E+03  0.80845453776E+02 0.  0.
          6    2    1    2  501    0  0.19353858551E+03  0.68098525365E+01  0.34503952619E+02  0.26041046030E+03  0.17064444588E+03 0.  0.
         24    2    5    5    0    0  0.11643308119E+03 -0.53916397950E+02  0.55647090010E+02  0.15990146292E+03  0.77512830250E+02 0.  0.
          5    1    5    5  501    0  0.77105504321E+02  0.60726250487E+02 -0.21143137391E+02  0.10050899738E+03  0.47000000000E+01 0. -1.
        -11    1    6    6    0    0 -0.99494831769E+01 -0.13407790100E+02  0.10468353866E+02  0.19706534031E+02  0.00000000000E+00 0.  1.
         12    1    6    6    0    0  0.12638256437E+03 -0.40508607851E+02  0.45178736145E+02  0.14019492889E+03  0.00000000000E+00 0. -1.
         -5    1    3    3    0  503 -0.81006174929E+02  0.53260197690E+02 -0.25897170005E+03  0.27656297738E+03  0.47000000000E+01 0.  1.
         11    1    4    4    0    0 -0.19848113904E+02 -0.15475068955E+02 -0.38122912009E+03  0.38205898417E+03  0.00000000000E+00 0. -1.
        -12    1    4    4    0    0 -0.92684296681E+02 -0.44594981271E+02 -0.36033136032E+03  0.37472360539E+03  0.00000000000E+00 0.  1.
</event>
<event>
12    1  0.8133495E-002  0.1862362E+03  0.7818608E-02  0.1162371E+00
         21   -1    0    0  503  502  0.00000000000E+00  0.00000000000E+00  0.20230096030E+03  0.20230096030E+03  0.00000000000E+00 0.  1.
         21   -1    0    0  501  503 -0.00000000000E+00 -0.00000000000E+00 -0.17037566458E+03  0.17037566458E+03  0.00000000000E+00 0.  1.
          6    2    1    2  501    0  0.20567880712E+02 -0.62164528135E+02  0.34132108536E+01  0.18626742929E+03  0.17434574537E+03 0.  0.
         24    2    3    3    0    0 -0.23602181204E+02 -0.98404992615E+02 -0.24202849764E+01  0.12864377694E+03  0.79389911438E+02 0.  0.
         -6    2    1    2    0  502 -0.20567880712E+02  0.62164528135E+02  0.28512084872E+02  0.18640919560E+03  0.17218589647E+03 0.  0.
        -24    2    5    5    0    0 -0.44001454562E+02  0.77417197854E+02  0.65231801896E+02  0.14001734356E+03  0.86140106758E+02 0.  0.
          5    1    3    3  501    0  0.44170061917E+02  0.36240464480E+02  0.58334958300E+01  0.57623652340E+02  0.47000000000E+01 0. -1.
        -13    1    4    4    0    0  0.23755273013E+02 -0.56917847021E+01 -0.23007660392E+01  0.24535748070E+02  0.00000000000E+00 0.  1.
         14    1    4    4    0    0 -0.47357454217E+02 -0.92713207913E+02 -0.11951893721E+00  0.10410802887E+03  0.00000000000E+00 0. -1.
         -5    1    5    5    0  502  0.23433573850E+02 -0.15252669719E+02 -0.36719717025E+02  0.46391852036E+02  0.47000000000E+01 0.  1.
         11    1    6    6    0    0 -0.45962946297E+02  0.24811644885E+02 -0.47485827262E+01  0.52447680522E+02  0.00000000000E+00 0. -1.
        -12    1    6    6    0    0  0.19614917349E+01  0.52605552970E+02  0.69980384623E+02  0.87569663040E+02  0.00000000000E+00 0.  1.
</event>
<event>
12    1  0.8133495E-002  0.2227654E+03  0.7818608E-02  0.1131880E+00
         21   -1    0    0  501  502  0.00000000000E+00  0.00000000000E+00  0.28827028349E+02  0.28827028349E+02  0.00000000000E+00 0. -1.
         21   -1    0    0  502  503 -0.00000000000E+00 -0.00000000000E+00 -0.18717346310E+04  0.18717346310E+04  0.00000000000E+00 0. -1.
         -6    2    1    2    0  503 -0.11763826680E+03 -0.78747182554E+02 -0.65105677728E+03  0.68811288044E+03  0.17200153606E+03 0.  0.
        -24    2    3    3    0    0 -0.15028538955E+03 -0.53282541245E+02 -0.47434664090E+03  0.50655615409E+03  0.78547272432E+02 0.  0.
          6    2    1    2  501    0  0.11763826680E+03  0.78747182554E+02 -0.11918508254E+04  0.12124487789E+04  0.17170838933E+03 0.  0.
         24    2    5    5    0    0  0.76653051205E+02 -0.17573483733E+02 -0.76435591442E+03  0.77229943205E+03  0.77601103388E+02 0.  0.
          5    1    5    5  501    0  0.40985215598E+02  0.96320666287E+02 -0.42749491095E+03  0.44014934686E+03  0.47000000000E+01 0. -1.
        -13    1    6    6    0    0 -0.11773526866E+02  0.62925647658E+01 -0.21037556051E+03  0.21079869251E+03  0.00000000000E+00 0.  1.
         14    1    6    6    0    0  0.88426578072E+02 -0.23866048499E+02 -0.55398035391E+03  0.56150073953E+03  0.00000000000E+00 0. -1.
         -5    1    3    3    0  503  0.32647122748E+02 -0.25464641309E+02 -0.17671013638E+03  0.18155672634E+03  0.47000000000E+01 0.  1.
         11    1    4    4    0    0 -0.68730144462E+02 -0.58315369541E+02 -0.18339189430E+03  0.20434554553E+03  0.00000000000E+00 0. -1.
        -12    1    4    4    0    0 -0.81555245088E+02  0.50328282959E+01 -0.29095474660E+03  0.30221060857E+03  0.00000000000E+00 0.  1.
</event>
<event>
12    1  0.8133495E-002  0.1792748E+03  0.7818608E-02  0.1168533E+00
         21   -1    0    0  501  502  0.00000000000E+00  0.00000000000E+00  0.12765517524E+04  0.12765517524E+04  0.00000000000E+00 0. -1.
         21   -1    0    0  502  503 -0.00000000000E+00 -0.00000000000E+00 -0.21614444096E+03  0.21614444096E+03  0.00000000000E+00 0. -1.
         -6    2    1    2    0  503 -0.33370498034E+02  0.39192184578E+02 -0.17137691782E+03  0.24793443819E+03  0.17161532627E+03 0.  0.
        -24    2    3    3    0    0 -0.43621899711E+01 -0.15991419324E+02 -0.19043361894E+02  0.83270190898E+02  0.79350619825E+02 0.  0.
          6    2    1    2  501    0  0.33370498034E+02 -0.39192184578E+02  0.12317842293E+04  0.12447617552E+04  0.17172600916E+03 0.  0.
         24    2    5    5    0    0  0.35511046135E+02 -0.50378477380E+02  0.38735120694E+03  0.40023885183E+03  0.79694137889E+02 0.  0.
          5    1    5    5  501    0 -0.21405481011E+01  0.11186292802E+02  0.84443302234E+03  0.84452290337E+03  0.47000000000E+01 0. -1.
        -11    1    6    6    0    0  0.40825233238E+02  0.69716095182E+01  0.19961930241E+03  0.20387047089E+03  0.00000000000E+00 0.  1.
         12    1    6    6    0    0 -0.53141871029E+01 -0.57350086898E+02  0.18773190453E+03  0.19636838094E+03  0.00000000000E+00 0. -1.
         -5    1    3    3    0  503 -0.29008308063E+02  0.55183603902E+02 -0.15233355592E+03  0.16466424729E+03  0.47000000000E+01 0.  1.
         11    1    4    4    0    0  0.61887412312E+01 -0.31296654499E+02 -0.42625505271E+02  0.53242039785E+02  0.00000000000E+00 0. -1.
        -12    1    4    4    0    0 -0.10550931202E+02  0.15305235175E+02  0.23582143377E+02  0.30028151113E+02  0.00000000000E+00 0.  1.
</event>
<event>
12    1  0.8133495E-002  0.2856315E+03  0.7818608E-02  0.1093021E+00
         21   -1    0    0  501  502  0.00000000000E+00  0.00000000000E+00  0.11101205682E+04  0.11101205682E+04  0.00000000000E+00 0. -1.
         21   -1    0    0  502  503 -0.00000000000E+00 -0.00000000000E+00 -0.82572130217E+02  0.82572130217E+02  0.00000000000E+00 0.  1.
         -6    2    1    2    0  503  0.21928419887E+03  0.48050102473E+02  0.72128759824E+03  0.77578423031E+03  0.17660974039E+03 0.  0.
        -24    2    3    3    0    0  0.23345857155E+03  0.14977104660E+02  0.65683713142E+03  0.70182012619E+03  0.79932809376E+02 0.  0.
          6    2    1    2  501    0 -0.21928419887E+03 -0.48050102473E+02  0.30626083970E+03  0.41690846806E+03  0.17211216282E+03 0.  0.
         24    2    5    5    0    0 -0.18448659675E+03 -0.46219763159E+01  0.14923135169E+03  0.25024345866E+03  0.79341825229E+02 0.  0.
          5    1    5    5  501    0 -0.34797602120E+02 -0.43428126157E+02  0.15702948801E+03  0.16666500940E+03  0.47000000000E+01 0. -1.
        -11    1    6    6    0    0 -0.14720686394E+03 -0.26941573574E+02  0.14179931952E+03  0.20616196592E+03  0.00000000000E+00 0.  1.
         12    1    6    6    0    0 -0.37279732808E+02  0.22319597258E+02  0.74320321773E+01  0.44081492741E+02  0.00000000000E+00 0. -1.
         -5    1    3    3    0  503 -0.14174372686E+02  0.33072997812E+02  0.64450466826E+02  0.73964104128E+02  0.47000000000E+01 0.  1.
         13    1    4    4    0    0  0.12812569456E+03  0.47113993330E+02  0.38723044308E+03  0.41058901351E+03  0.00000000000E+00 0. -1.
        -14    1    4    4    0    0  0.10533287700E+03 -0.32136888670E+02  0.26960668834E+03  0.29123111267E+03  0.00000000000E+00 0.  1.
</event>
<event>
12    1  0.8133495E-002  0.1894881E+03  0.7818608E-02  0.1158949E+00
         21   -1    0    0  503  502  0.00000000000E+00  0.00000000000E+00  0.21919781534E+03  0.21919781534E+03  0.00000000000E+00 0. -1.
         21   -1    0    0  501  503 -0.00000000000E+00 -0.00000000000E+00 -0.32116591424E+03  0.32116591424E+03  0.00000000000E+00 0. -1.
          6    2    1    2  501    0 -0.48641758927E+02  0.63919089719E+02 -0.24017010454E+03  0.30592061225E+03  0.17162188422E+03 0.  0.
         24    2    3    3    0    0 -0.56377846725E+02  0.24237513400E+02 -0.48390994076E+02  0.10987012956E+03  0.77225892057E+02 0.  0.
         -6    2    1    2    0  502  0.48641758927E+02 -0.63919089719E+02  0.13820200564E+03  0.23444311733E+03  0.17149959230E+03 0.  0.
        -24    2    5    5    0    0  0.37476244391E+01 -0.79387325007E+02  0.30184925595E+02  0.11635616125E+03  0.79443278301E+02 0.  0.
          5    1    3    3  501    0  0.77360877979E+01  0.39681576320E+02 -0.19177911046E+03  0.19605048269E+03  0.47000000000E+01 0. -1.
        -11    1    4    4    0    0  0.68658525824E+01 -0.16694865303E+02  0.35081483199E+01  0.18389278502E+02  0.00000000000E+00 0.  1.
         12    1    4    4    0    0 -0.63243699307E+02  0.40932378703E+02 -0.51899142396E+02  0.91480851055E+02  0.00000000000E+00 0. -1.
         -5    1    5    5    0  502  0.44894134488E+02  0.15468235288E+02  0.10801708004E+03  0.11808695608E+03  0.47000000000E+01 0.  1.
         13    1    6    6    0    0 -0.63533115516E+01 -0.97150086262E+01  0.43226239234E+02  0.44757722447E+02  0.00000000000E+00 0. -1.
        -14    1    6    6    0    0  0.10100935991E+02 -0.69672316380E+02 -0.13041313639E+02  0.71598438804E+02  0.00000000000E+00 0.  1.
</event>
<event>
12    1  0.8133495E-002  0.2842466E+03  0.7818608E-02  0.1093862E+00
         21   -1    0    0  503  502  0.00000000000E+00  0.00000000000E+00  0.52210972627E+03  0.52210972627E+03  0.00000000000E+00 0. -1.
         21   -1    0    0  501  503 -0.00000000000E+00 -0.00000000000E+00 -0.15808098912E+03  0.15808098912E+03  0.00000000000E+00 0.  1.
          6    2    1    2  501    0 -0.38632686626E+01  0.22609136728E+03  0.12126926873E+03  0.30903461018E+03  0.17223217919E+03 0.  0.
         24    2    3    3    0    0 -0.52842150387E+02  0.74976276478E+02  0.30261021350E+02  0.12589725022E+03  0.80750562273E+02 0.  0.
         -6    2    1    2    0  502  0.38632686626E+01 -0.22609136728E+03  0.24275946842E+03  0.37115610521E+03  0.16641052769E+03 0.  0.
        -24    2    5    5    0    0  0.53163532678E+02 -0.74760956561E+02  0.10745241448E+03  0.16220276572E+03  0.79675303553E+02 0.  0.
          5    1    3    3  501    0  0.48978881724E+02  0.15111509080E+03  0.91008247376E+02  0.18313735996E+03  0.47000000000E+01 0. -1.
        -11    1    4    4    0    0  0.13812456849E+02 -0.80143705975E+00 -0.10177420404E+02  0.17175743118E+02  0.00000000000E+00 0.  1.
         12    1    4    4    0    0 -0.66654607236E+02  0.75777713537E+02  0.40438441754E+02  0.10872150710E+03  0.00000000000E+00 0. -1.
         -5    1    5    5    0  502 -0.49300264015E+02 -0.15133041072E+03  0.13530705394E+03  0.20895333949E+03  0.47000000000E+01 0.  1.
         13    1    6    6    0    0  0.31619705244E+02 -0.20105675798E+02  0.95037022074E+02  0.10215713154E+03  0.00000000000E+00 0. -1.
        -14    1    6    6    0    0  0.21543827434E+02 -0.54655280763E+02  0.12415392408E+02  0.60045634183E+02  0.00000000000E+00 0.  1.
</event>
<event>
12    1  0.8133495E-002  0.1751044E+03  0.7818608E-02  0.1173901E+00
         21   -1    0    0  501  502  0.00000000000E+00  0.00000000000E+00  0.50911130211E+03  0.50911130211E+03  0.00000000000E+00 0.  1.
         21   -1    0    0  502  503 -0.00000000000E+00 -0.00000000000E+00 -0.62116745367E+02  0.62116745367E+02  0.00000000000E+00 0.  1.
         -6    2    1    2    0  503 -0.23887365336E+02  0.10228004533E+02  0.15170876474E+03  0.22792751255E+03  0.16810765414E+03 0.  0.
        -24    2    3    3    0    0 -0.30177461665E+02 -0.53055759663E+02  0.12037610337E+03  0.15687664492E+03  0.79964258473E+02 0.  0.
          6    2    1    2  501    0  0.23887365336E+02 -0.10228004533E+02  0.29528579200E+03  0.34330053492E+03  0.17316564330E+03 0.  0.
         24    2    5    5    0    0 -0.35929494044E+02 -0.34641354688E+02  0.98570760798E+02  0.13619437414E+03  0.79635172293E+02 0.  0.
          5    1    5    5  501    0  0.59816859380E+02  0.24413350155E+02  0.19671503121E+03  0.20710616078E+03  0.47000000000E+01 0. -1.
        -13    1    6    6    0    0  0.27569545715E+01 -0.17043348068E+02  0.91493493905E+02  0.93108194800E+02  0.00000000000E+00 0.  1.
         14    1    6    6    0    0 -0.38686448615E+02 -0.17598006621E+02  0.70772668931E+01  0.43086179340E+02  0.00000000000E+00 0. -1.
         -5    1    3    3    0  503  0.62900963286E+01  0.63283764196E+02  0.31332661365E+02  0.71050867630E+02  0.47000000000E+01 0.  1.
         13    1    4    4    0    0  0.78615546619E+01  0.40458380266E+01  0.72915564841E+02  0.73449659244E+02  0.00000000000E+00 0. -1.
        -14    1    4    4    0    0 -0.38039016327E+02 -0.57101597690E+02  0.47460538534E+02  0.83426985680E+02  0.00000000000E+00 0.  1.
</event>
<event>
12    1  0.8133495E-002  0.1880607E+03  0.7818608E-02  0.1160600E+00
         21   -1    0    0  503  502  0.00000000000E+00  0.00000000000E+00  0.36060530091E+02  0.36060530091E+02  0.00000000000E+00 0. -1.
         21   -1    0    0  501  503 -0.00000000000E+00 -0.00000000000E+00 -0.10984995580E+04  0.10984995580E+04  0.00000000000E+00 0.  1.
          6    2    1    2  501    0  0.94761027931E+01  0.73666287433E+02 -0.72563006536E+03  0.74960377632E+03  0.17277242632E+03 0.  0.
         24    2    3    3    0    0  0.20357598251E+02  0.11457482369E+03 -0.48800090953E+03  0.50818790903E+03  0.81044686132E+02 0.  0.
         -6    2    1    2    0  502 -0.94761027931E+01 -0.73666287433E+02 -0.33680896258E+03  0.38495631180E+03  0.17098118695E+03 0.  0.
        -24    2    5    5    0    0  0.60214118707E+02 -0.28549903047E+02 -0.19812364448E+03  0.22325311898E+03  0.78410073169E+02 0.  0.
          5    1    3    3  501    0 -0.10881495458E+02 -0.40908536254E+02 -0.23762915582E+03  0.24141586729E+03  0.47000000000E+01 0. -1.
        -11    1    4    4    0    0  0.13940165025E+02  0.68903677863E+02 -0.42111713191E+03  0.42694459104E+03  0.00000000000E+00 0.  1.
         12    1    4    4    0    0  0.64174332259E+01  0.45671145824E+02 -0.66883777620E+02  0.81243317995E+02  0.00000000000E+00 0. -1.
         -5    1    5    5    0  502 -0.69690221500E+02 -0.45116384386E+02 -0.13868531810E+03  0.16170319282E+03  0.47000000000E+01 0.  1.
         11    1    6    6    0    0  0.23409351398E+02 -0.45904634107E+02 -0.59161473477E+02  0.78455803541E+02  0.00000000000E+00 0. -1.
        -12    1    6    6    0    0  0.36804767309E+02  0.17354731060E+02 -0.13896217101E+03  0.14479731544E+03  0.00000000000E+00 0.  1.
</event>
<event>
12    1  0.8133495E-002  0.2282871E+03  0.7818608E-02  0.1127856E+00
         21   -1    0    0  501  502  0.00000000000E+00  0.00000000000E+00  0.36720071139E+02  0.36720071139E+02  0.00000000000E+00 0.  1.
         21   -1    0    0  502  503 -0.00000000000E+00 -0.00000000000E+00 -0.15914459140E+04  0.15914459140E+04  0.00000000000E+00 0.  1.
         -6    2    1    2    0  503 -0.25313753983E+02  0.14700481523E+03 -0.10453001659E+04  0.10699380573E+04  0.17281148036E+03 0.  0.
        -24    2    3    3    0    0  0.12388565628E+02  0.34059711745E+02 -0.22549156732E+03  0.24151407790E+03  0.78543378901E+02 0.  0.
          6    2    1    2  501    0  0.25313753983E+02 -0.14700481523E+03 -0.50942567696E+03  0.55822792786E+03  0.17277933109E+03 0.  0.
         24    2    5    5    0    0 -0.33332025265E+02 -0.59179154702E+02 -0.36287684797E+03  0.37753115603E+03  0.78974494110E+02 0.  0.
          5    1    5    5  501    0  0.58645779248E+02 -0.87825660531E+02 -0.14654882899E+03  0.18069677183E+03  0.47000000000E+01 0. -1.
        -13    1    6    6    0    0  0.71712683313E+01 -0.51602591846E+02 -0.11497409354E+03  0.12622716332E+03  0.00000000000E+00 0.  1.
         14    1    6    6    0    0 -0.40503293596E+02 -0.75765628561E+01 -0.24790275443E+03  0.25130399270E+03  0.00000000000E+00 0. -1.
         -5    1    3    3    0  503 -0.37702319612E+02  0.11294510349E+03 -0.81980859860E+03  0.82842397940E+03  0.47000000000E+01 0.  1.
         13    1    4    4    0    0 -0.12440355110E+02  0.80151433616E+01 -0.17551177881E+01  0.14902529879E+02  0.00000000000E+00 0. -1.
        -14    1    4    4    0    0  0.24828920738E+02  0.26044568384E+02 -0.22373644953E+03  0.22661154802E+03  0.00000000000E+00 0.  1.
</event>
<event>
12    1  0.8133495E-002  0.1983095E+03  0.7818608E-02  0.1151297E+00
         21   -1    0    0  501  502  0.00000000000E+00  0.00000000000E+00  0.26918089429E+02  0.26918089429E+02  0.00000000000E+00 0.  1.
         21   -1    0    0  502  503 -0.00000000000E+00 -0.00000000000E+00 -0.19414327984E+04  0.19414327984E+04  0.00000000000E+00 0.  1.
         -6    2    1    2    0  503  0.25614655127E+02 -0.95273092406E+02 -0.14500843659E+04  0.14635816815E+04  0.17202789672E+03 0.  0.
        -24    2    3    3    0    0  0.21047005195E+02  0.11149290457E+02 -0.42478857050E+03  0.43275669867E+03  0.79156474810E+02 0.  0.
          6    2    1    2  501    0 -0.25614655127E+02  0.95273092406E+02 -0.46443034302E+03  0.50476920637E+03  0.17135733273E+03 0.  0.
         24    2    5    5    0    0 -0.52409828568E+02  0.32251531119E+02 -0.13799415031E+03  0.17119406278E+03  0.80486459861E+02 0.  0.
          5    1    5    5  501    0  0.26795173440E+02  0.63021561287E+02 -0.32643619271E+03  0.33357514359E+03  0.47000000000E+01 0. -1.
        -13    1    6    6    0    0  0.72460666746E+01  0.39717012236E+02 -0.66334247810E+02  0.77654227031E+02  0.00000000000E+00 0.  1.
         14    1    6    6    0    0 -0.59655895242E+02 -0.74654811171E+01 -0.71659902499E+02  0.93539835748E+02  0.00000000000E+00 0. -1.
         -5    1    3    3    0  503  0.45676499324E+01 -0.10642238286E+03 -0.10252957954E+04  0.10308249828E+04  0.47000000000E+01 0.  1.
         11    1    4    4    0    0  0.14239211906E+02  0.22270181396E+02 -0.41643077158E+03  0.41726886255E+03  0.00000000000E+00 0. -1.
        -12    1    4    4    0    0  0.68077932892E+01 -0.11120890939E+02 -0.83577989261E+01  0.15487836118E+02  0.00000000000E+00 0.  1.
</event>
<event>
12    1  0.8133495E-002  0.1975931E+03  0.7818608E-02  0.1152188E+00
         21   -1    0    0  503  502  0.00000000000E+00  0.00000000000E+00  0.28683886245E+02  0.28683886245E+02  0.00000000000E+00 0. -1.
         21   -1    0    0  501  503 -0.00000000000E+00 -0.00000000000E+00 -0.13987100658E+04  0.13987100658E+04  0.00000000000E+00 0. -1.
          6    2    1    2  501    0  0.80832612502E+02 -0.54871305429E+02 -0.82359987616E+03  0.84697095963E+03  0.17175063041E+03 0.  0.
         24    2    3    3    0    0  0.40680086343E+01 -0.56903261455E+02 -0.64581297725E+03  0.65325156289E+03  0.80054187700E+02 0.  0.
         -6    2    1    2    0  502 -0.80832612502E+02  0.54871305429E+02 -0.54642630340E+03  0.58042299242E+03  0.16960062994E+03 0.  0.
        -24    2    5    5    0    0  0.11950716465E+01  0.64009483729E+02 -0.20665063782E+03  0.23073507414E+03  0.80221855649E+02 0.  0.
          5    1    3    3  501    0  0.76764603867E+02  0.20319560262E+01 -0.17778689891E+03  0.19371939675E+03  0.47000000000E+01 0. -1.
        -11    1    4    4    0    0  0.32588976551E+00  0.10842723985E+02 -0.33246966224E+03  0.33264657999E+03  0.00000000000E+00 0.  1.
         12    1    4    4    0    0  0.37421188688E+01 -0.67745985440E+02 -0.31334331501E+03  0.32060498290E+03  0.00000000000E+00 0. -1.
         -5    1    5    5    0  502 -0.82027684148E+02 -0.91381783007E+01 -0.33977566558E+03  0.34968791828E+03  0.47000000000E+01 0.  1.
         11    1    6    6    0    0 -0.16567431296E+02  0.42635726359E+02 -0.37026433941E+02  0.58849313949E+02  0.00000000000E+00 0. -1.
        -12    1    6    6    0    0  0.17762502943E+02  0.21373757370E+02 -0.16962420388E+03  0.17188576019E+03  0.00000000000E+00 0.  1.
</event>
<event>
12    1  0.8133495E-002  0.1730779E+03  0.7818608E-02  0.1174925E+00
         21   -1    0    0  501  502  0.00000000000E+00  0.00000000000E+00  0.96766380250E+03  0.96766380250E+03  0.00000000000E+00 0.  1.
         21   -1    0    0  502  503 -0.00000000000E+00 -0.00000000000E+00 -0.33645902620E+02  0.33645902620E+02  0.00000000000E+00 0. -1.
         -6    2    1    2    0  503  0.66040793553E+01 -0.20277666103E+02  0.32217048382E+03  0.36571817527E+03  0.17175903316E+03 0.  0.
        -24    2    3    3    0    0 -0.43428283497E+02  0.35037071163E+02  0.20061282185E+03  0.22302510369E+03  0.79881665138E+02 0.  0.
          6    2    1    2  501    0 -0.66040793553E+01  0.20277666103E+02  0.61184741607E+03  0.63559152986E+03  0.17077627081E+03 0.  0.
         24    2    5    5    0    0 -0.23470421677E+02  0.64077119531E+02  0.53172432369E+03  0.54261483624E+03  0.83924764893E+02 0.  0.
          5    1    5    5  501    0  0.16866342322E+02 -0.43799453428E+02  0.80123092379E+02  0.92976693619E+02  0.47000000000E+01 0. -1.
        -13    1    6    6    0    0  0.24877263673E+02  0.49755040670E+02  0.33172712291E+03  0.33635892495E+03  0.00000000000E+00 0.  1.
         14    1    6    6    0    0 -0.48347685350E+02  0.14322078862E+02  0.19999720078E+03  0.20625591129E+03  0.00000000000E+00 0. -1.
         -5    1    3    3    0  503  0.50032362852E+02 -0.55314737266E+02  0.12155766197E+03  0.14269307157E+03  0.47000000000E+01 0.  1.
         11    1    4    4    0    0  0.16172941023E+02 -0.10483193645E+02  0.21663074936E+02  0.28995692542E+02  0.00000000000E+00 0. -1.
        -12    1    4    4    0    0 -0.59601224520E+02  0.45520264808E+02  0.17894974691E+03  0.19402941115E+03  0.00000000000E+00 0.  1.
</event>
<event>
12    1  0.8133495E-002  0.1993380E+03  0.7818608E-02  0.1150611E+00
         21   -1    0    0  501  502  0.00000000000E+00  0.00000000000E+00  0.41060220346E+02  0.41060220346E+02  0.00000000000E+00 0.  1.
         21   -1    0    0  502  503 -0.00000000000E+00 -0.00000000000E+00 -0.13888547224E+04  0.13888547224E+04  0.00000000000E+00 0.  1.
         -6    2    1    2    0  503 -0.96985905789E+02  0.28821928095E+01 -0.10691723116E+04  0.10873277656E+04  0.17244612193E+03 0.  0.
        -24    2    3    3    0    0 -0.41826754005E+02  0.58189796600E+02 -0.79642780565E+03  0.80357942887E+03  0.79417372895E+02 0.  0.
          6    2    1    2  501    0  0.96985905789E+02 -0.28821928095E+01 -0.27862219046E+03  0.34258717717E+03  0.17412948051E+03 0.  0.
         24    2    5    5    0    0  0.67263823414E+02 -0.19166493589E+02 -0.63259664020E+02  0.12452368084E+03  0.81317806060E+02 0.  0.
          5    1    5    5  501    0  0.29722082376E+02  0.16284300779E+02 -0.21536252644E+03  0.21806349632E+03  0.47000000000E+01 0. -1.
        -13    1    6    6    0    0  0.71597005221E+02 -0.25037914777E+02 -0.77551281744E+02  0.10847686220E+03  0.00000000000E+00 0.  1.
         14    1    6    6    0    0 -0.43331818072E+01  0.58714211886E+01  0.14291617725E+02  0.16046818642E+02  0.00000000000E+00 0. -1.
         -5    1    3    3    0  503 -0.55159151785E+02 -0.55307603791E+02 -0.27274450598E+03  0.28374833674E+03  0.47000000000E+01 0.  1.
         13    1    4    4    0    0 -0.34858703054E+00  0.40542973406E+02 -0.62534720982E+03  0.62666018466E+03  0.00000000000E+00 0. -1.
        -14    1    4    4    0    0 -0.41478166974E+02  0.17646823194E+02 -0.17108059583E+03  0.17691924421E+03  0.00000000000E+00 0.  1.
</event>
<event>
12    1  0.8133495E-002  0.1967424E+03  0.7818608E-02  0.1153554E+00
         21   -1    0    0  503  502  0.00000000000E+00  0.00000000000E+00  0.13470423254E+04  0.13470423254E+04  0.00000000000E+00 0.  1.
         21   -1    0    0  501  503 -0.00000000000E+00 -0.00000000000E+00 -0.33306623349E+02  0.33306623349E+02  0.00000000000E+00 0.  1.
          6    2    1    2  501    0 -0.65366935629E+02 -0.55745659238E+02  0.37583481920E+03  0.42203500083E+03  0.17170123995E+03 0.  0.
         24    2    3    3    0    0 -0.82049344150E+02 -0.93007696991E+02  0.25870821879E+03  0.29790807895E+03  0.80229386493E+02 0.  0.
         -6    2    1    2    0  502  0.65366935629E+02  0.55745659238E+02  0.93790088290E+03  0.95831394797E+03  0.17699475116E+03 0.  0.
        -24    2    5    5    0    0  0.89804237699E+01  0.62416774793E+02  0.28939596346E+03  0.30731113459E+03  0.81936609556E+02 0.  0.
          5    1    3    3  501    0  0.16682408521E+02  0.37262037754E+02  0.11712660040E+03  0.12412692187E+03  0.47000000000E+01 0. -1.
        -11    1    4    4    0    0 -0.37417663907E+02 -0.68883511305E+02  0.22158491940E+03  0.23504232854E+03  0.00000000000E+00 0.  1.
         12    1    4    4    0    0 -0.44631680243E+02 -0.24124185686E+02  0.37123299397E+02  0.62865750409E+02  0.00000000000E+00 0. -1.
         -5    1    5    5    0  502  0.56386511859E+02 -0.66711155556E+01  0.64850491944E+03  0.65100281339E+03  0.47000000000E+01 0.  1.
         13    1    6    6    0    0 -0.29728110829E+02  0.55210330714E+02  0.20072607540E+03  0.21029241198E+03  0.00000000000E+00 0. -1.
        -14    1    6    6    0    0  0.38708534599E+02  0.72064440794E+01  0.88669888067E+02  0.97018722610E+02  0.00000000000E+00 0.  1.
</event>
<event>
12    1  0.8133495E-002  0.1943895E+03  0.7818608E-02  0.1155294E+00
         21   -1    0    0  501  502  0.00000000000E+00  0.00000000000E+00  0.16000701626E+04  0.16000701626E+04  0.00000000000E+00 0.  1.
         21   -1    0    0  502  503 -0.00000000000E+00 -0.00000000000E+00 -0.72720066475E+02  0.72720066475E+02  0.00000000000E+00 0.  1.
         -6    2    1    2    0  503 -0.56861922171E+02 -0.70996195452E+02  0.75683904477E+02  0.20860332786E+03  0.17179510190E+03 0.  0.
        -24    2    3    3    0    0 -0.31416169045E+02  0.18048882719E+02  0.81620242416E+02  0.11568485604E+03  0.73541716729E+02 0.  0.
          6    2    1    2  501    0  0.56861922171E+02  0.70996195452E+02  0.14516661916E+04  0.14641869012E+04  0.16803217473E+03 0.  0.
         24    2    5    5    0    0  0.83694914597E+02  0.44841009502E+00  0.89604043340E+03  0.90343822959E+03  0.79417482888E+02 0.  0.
          5    1    5    5  501    0 -0.26832992426E+02  0.70547785357E+02  0.55562575824E+03  0.56074867162E+03  0.47000000000E+01 0. -1.
        -11    1    6    6    0    0  0.77031116889E+02  0.67579725866E+01  0.88762500498E+03  0.89098687567E+03  0.00000000000E+00 0.  1.
         12    1    6    6    0    0  0.66637977072E+01 -0.63095624916E+01  0.84154284261E+01  0.12451353915E+02  0.00000000000E+00 0. -1.
         -5    1    3    3    0  503 -0.25445753127E+02 -0.89045078171E+02 -0.59363379389E+01  0.92918471828E+02  0.47000000000E+01 0.  1.
         13    1    4    4    0    0 -0.37519856427E+02  0.94130077595E+01  0.92652117613E+02  0.10040298422E+03  0.00000000000E+00 0. -1.
        -14    1    4    4    0    0  0.61036873825E+01  0.86358749598E+01 -0.11031875197E+02  0.15281871821E+02  0.00000000000E+00 0.  1.
</event>
<event>
12    1  0.8133495E-002  0.1778184E+03  0.7818608E-02  0.1170781E+00
         21   -1    0    0  503  502  0.00000000000E+00  0.00000000000E+00  0.39238005265E+03  0.39238005265E+03  0.00000000000E+00 0. -1.
         21   -1    0    0  501  503 -0.00000000000E+00 -0.00000000000E+00 -0.87845278038E+02  0.87845278038E+02  0.00000000000E+00 0. -1.
          6    2    1    2  501    0  0.23988766336E+02  0.18088056360E+02  0.74923679224E+02  0.18981072109E+03  0.17179031824E+03 0.  0.
         24    2    3    3    0    0 -0.32338691318E+01 -0.12408199972E+02 -0.23616906978E+02  0.83023874236E+02  0.78554338275E+02 0.  0.
         -6    2    1    2    0  502 -0.23988766336E+02 -0.18088056360E+02  0.22961109538E+03  0.29041460959E+03  0.17526195151E+03 0.  0.
        -24    2    5    5    0    0  0.13555006275E+01 -0.78014294744E+02  0.12762897630E+03  0.16935293718E+03  0.79392658182E+02 0.  0.
          5    1    3    3  501    0  0.27222635467E+02  0.30496256332E+02  0.98540586203E+02  0.10678684685E+03  0.47000000000E+01 0. -1.
        -11    1    4    4    0    0  0.10933771459E+02  0.24757982476E+02 -0.32475013761E+02  0.42274478984E+02  0.00000000000E+00 0.  1.
         12    1    4    4    0    0 -0.14167640590E+02 -0.37166182448E+02  0.88581067828E+01  0.40749395252E+02  0.00000000000E+00 0. -1.
         -5    1    5    5    0  502 -0.25344266963E+02  0.59926238384E+02  0.10198211908E+03  0.12106167241E+03  0.47000000000E+01 0.  1.
         13    1    6    6    0    0  0.29544244285E+02 -0.17362972739E+02  0.13024653951E+02  0.36660289187E+02  0.00000000000E+00 0. -1.
        -14    1    6    6    0    0 -0.28188743658E+02 -0.60651322005E+02  0.11460432235E+03  0.13269264799E+03  0.00000000000E+00 0.  1.
</event>
<event>
12    1  0.8133495E-002  0.1737336E+03  0.7818608E-02  0.1174249E+00
         21   -1    0    0  503  502  0.00000000000E+00  0.00000000000E+00  0.51183005900E+02  0.51183005900E+02  0.00000000000E+00 0. -1.
         21   -1    0    0  501  503 -0.00000000000E+00 -0.00000000000E+00 -0.89357052040E+03  0.89357052040E+03  0.00000000000E+00 0. -1.
          6    2    1    2  501    0 -0.54054809456E+01  0.15927664256E+02 -0.69884746565E+03  0.72011882928E+03  0.17291743207E+03 0.  0.
         24    2    3    3    0    0 -0.11200459541E+02  0.40598655408E+02 -0.18600518727E+03  0.20662926552E+03  0.79523723286E+02 0.  0.
         -6    2    1    2    0  502  0.54054809456E+01 -0.15927664256E+02 -0.14354004884E+03  0.22463469702E+03  0.17197119460E+03 0.  0.
        -24    2    5    5    0    0  0.11696494406E+02  0.39175543264E+02 -0.22078526285E+02  0.91027317767E+02  0.78275028493E+02 0.  0.
          5    1    3    3  501    0  0.57949785951E+01 -0.24670991151E+02 -0.51284227839E+03  0.51348956375E+03  0.47000000000E+01 0. -1.
        -13    1    4    4    0    0 -0.19920363083E+02  0.60245960445E+02 -0.16409137533E+03  0.17593287377E+03  0.00000000000E+00 0.  1.
         14    1    4    4    0    0  0.87199035418E+01 -0.19647305037E+02 -0.21913811937E+02  0.30696391752E+02  0.00000000000E+00 0. -1.
         -5    1    5    5    0  502 -0.62910134602E+01 -0.55103207520E+02 -0.12146152256E+03  0.13360737926E+03  0.47000000000E+01 0.  1.
         11    1    6    6    0    0  0.31148091282E+02  0.11246605903E+02 -0.40508711148E+02  0.52322513450E+02  0.00000000000E+00 0. -1.
        -12    1    6    6    0    0 -0.19451596876E+02  0.27928937361E+02  0.18430184864E+02  0.38704804317E+02  0.00000000000E+00 0.  1.
</event>
<event>
12    1  0.8133495E-002  0.2173553E+03  0.7818608E-02  0.1136047E+00
         21   -1    0    0  503  502  0.00000000000E+00  0.00000000000E+00  0.10595307544E+04  0.10595307544E+04  0.00000000000E+00 0. -1.
         21   -1    0    0  501  503 -0.00000000000E+00 -0.00000000000E+00 -0.44674532296E+02  0.44674532296E+02  0.00000000000E+00 0. -1.
          6    2    1    2  501    0  0.11792603406E+03  0.60437134848E+02  0.46508558950E+03  0.51336921234E+03  0.17229087568E+03 0.  0.
         24    2    3    3    0    0  0.10075534166E+03  0.95373016309E+02  0.43623105631E+03  0.46468633469E+03  0.79926241271E+02 0.  0.
         -6    2    1    2    0  502 -0.11792603406E+03 -0.60437134848E+02  0.54977063261E+03  0.59083607436E+03  0.17111493655E+03 0.  0.
        -24    2    5    5    0    0 -0.49440617183E+02 -0.83643515703E+02  0.21843370358E+03  0.25166791699E+03  0.78631070416E+02 0.  0.
          5    1    3    3  501    0  0.17170692396E+02 -0.34935881461E+02  0.28854533186E+02  0.48682877649E+02  0.47000000000E+01 0. -1.
        -11    1    4    4    0    0 -0.13339296055E+02  0.13915097242E+02  0.40388204142E+02  0.44752360656E+02  0.00000000000E+00 0.  1.
         12    1    4    4    0    0  0.11409463771E+03  0.81457919068E+02  0.39584285217E+03  0.41993397403E+03  0.00000000000E+00 0. -1.
         -5    1    5    5    0  502 -0.68485416872E+02  0.23206380856E+02  0.33133692903E+03  0.33916815737E+03  0.47000000000E+01 0.  1.
         13    1    6    6    0    0 -0.57033340211E+02 -0.68607340563E+02  0.10859027397E+03  0.14054044498E+03  0.00000000000E+00 0. -1.
        -14    1    6    6    0    0  0.75927230284E+01 -0.15036175140E+02  0.10984342961E+03  0.11112747201E+03  0.00000000000E+00 0.  1.
</event>
<event>
12    1  0.8133495E-002  0.2277024E+03  0.7818608E-02  0.1128340E+00
         21   -1    0    0  501  502  0.00000000000E+00  0.00000000000E+00  0.70763618194E+03  0.70763618194E+03  0.00000000000E+00 0. -1.
         21   -1    0    0  502  503 -0.00000000000E+00 -0.00000000000E+00 -0.17959969432E+03  0.17959969432E+03  0.00000000000E+00 0. -1.
         -6    2    1    2    0  503  0.12786486909E+03  0.76403674216E+02 -0.77432182533E+02  0.24050810109E+03  0.17222502031E+03 0.  0.
        -24    2    3    3    0    0  0.87055559878E+02  0.10720336099E+03 -0.16510690898E+02  0.16083665974E+03  0.80774978118E+02 0.  0.
          6    2    1    2  501    0 -0.12786486909E+03 -0.76403674216E+02  0.60546867016E+03  0.64672777517E+03  0.17169029807E+03 0.  0.
         24    2    5    5    0    0 -0.10962356781E+02 -0.65396183587E+02  0.21519109903E+03  0.23914215869E+03  0.80529056052E+02 0.  0.
          5    1    5    5  501    0 -0.11690251230E+03 -0.11007490629E+02  0.39027757113E+03  0.40758561647E+03  0.47000000000E+01 0. -1.
        -13    1    6    6    0    0 -0.36322049055E+02 -0.63380843578E+02  0.11890640882E+03  0.13955341859E+03  0.00000000000E+00 0.  1.
         14    1    6    6    0    0  0.25359692273E+02 -0.20153400088E+01  0.96284690207E+02  0.99588740105E+02  0.00000000000E+00 0. -1.
         -5    1    3    3    0  503  0.40809309209E+02 -0.30799686776E+02 -0.60921491635E+02  0.79671441349E+02  0.47000000000E+01 0.  1.
         13    1    4    4    0    0  0.57395391265E+02  0.51230823165E+02 -0.47397390869E+02  0.90362275546E+02  0.00000000000E+00 0. -1.
        -14    1    4    4    0    0  0.29660168613E+02  0.55972537828E+02  0.30886699971E+02  0.70474384199E+02  0.00000000000E+00 0.  1.
</event>
<event>
12    1  0.8133495E-002  0.1828999E+03  0.7818608E-02  0.1165041E+00
         21   -1    0    0  503  502  0.00000000000E+00  0.00000000000E+00  0.65195100761E+02  0.65195100761E+02  0.00000000000E+00 0. -1.
         21   -1    0    0  501  503 -0.00000000000E+00 -0.00000000000E+00 -0.51427770213E+03  0.51427770213E+03  0.00000000000E+00 0. -1.
          6    2    1    2  501    0 -0.28082760276E+02 -0.56044754644E+02 -0.23938354651E+03  0.30125878296E+03  0.17182175654E+03 0.  0.
         24    2    3    3    0    0  0.40485434828E+02 -0.29419514585E+02 -0.79505126571E+02  0.12520850619E+03  0.82773948792E+02 0.  0.
         -6    2    1    2    0  502  0.28082760276E+02  0.56044754644E+02 -0.20969905486E+03  0.27821401994E+03  0.17175474181E+03 0.  0.
        -24    2    5    5    0    0  0.38920872339E+02 -0.14311011981E+02 -0.17492532588E+03  0.19884966523E+03  0.84986353976E+02 0.  0.
          5    1    3    3  501    0 -0.68568195104E+02 -0.26625240059E+02 -0.15987841994E+03  0.17605027677E+03  0.47000000000E+01 0. -1.
        -11    1    4    4    0    0  0.11313534141E+02  0.29153693301E+02 -0.24541754347E+02  0.39752126915E+02  0.00000000000E+00 0.  1.
         12    1    4    4    0    0  0.29171900687E+02 -0.58573207887E+02 -0.54963372225E+02  0.85456379271E+02  0.00000000000E+00 0. -1.
         -5    1    5    5    0  502 -0.10838112063E+02  0.70355766625E+02 -0.34773728983E+02  0.79364354706E+02  0.47000000000E+01 0.  1.
         13    1    6    6    0    0  0.13489426644E+02  0.35799055112E+02 -0.75673854678E+02  0.84794276103E+02  0.00000000000E+00 0. -1.
        -14    1    6    6    0    0  0.25431445695E+02 -0.50110067092E+02 -0.99251471200E+02  0.11405538913E+03  0.00000000000E+00 0.  1.
</event>
<event>
12    1  0.8133495E-002  0.3029741E+03  0.7818608E-02  0.1083881E+00
         21   -1    0    0  503  502  0.00000000000E+00  0.00000000000E+00  0.41573967027E+03  0.41573967027E+03  0.00000000000E+00 0. -1.
         21   -1    0    0  501  503 -0.00000000000E+00 -0.00000000000E+00 -0.65123521671E+03  0.65123521671E+03  0.00000000000E+00 0.  1.
          6    2    1    2  501    0  0.24728727585E+03  0.29385665472E+02 -0.55175594408E+03  0.62900920274E+03  0.17089014356E+03 0.  0.
         24    2    3    3    0    0  0.95434265528E+02 -0.19758747224E+01 -0.36825571341E+03  0.38872331550E+03  0.79887060515E+02 0.  0.
         -6    2    1    2    0  502 -0.24728727585E+03 -0.29385665472E+02  0.31626039764E+03  0.43796568425E+03  0.17256531323E+03 0.  0.
        -24    2    5    5    0    0 -0.20129437291E+03 -0.80656723027E+02  0.26112019926E+03  0.34961071868E+03  0.83779261262E+02 0.  0.
          5    1    3    3  501    0  0.15185301032E+03  0.31361540194E+02 -0.18350023067E+03  0.24028588724E+03  0.47000000000E+01 0. -1.
        -13    1    4    4    0    0  0.49873504987E+02 -0.38862789193E+02 -0.15112116930E+03  0.16381480609E+03  0.00000000000E+00 0.  1.
         14    1    4    4    0    0  0.45560760540E+02  0.36886914470E+02 -0.21713454411E+03  0.22490850941E+03  0.00000000000E+00 0. -1.
         -5    1    5    5    0  502 -0.45992902942E+02  0.51271057555E+02  0.55140198381E+02  0.88354965573E+02  0.47000000000E+01 0.  1.
         13    1    6    6    0    0 -0.15544396542E+03 -0.43113046425E+02  0.23454873943E+03  0.28466589596E+03  0.00000000000E+00 0. -1.
        -14    1    6    6    0    0 -0.45850407488E+02 -0.37543676602E+02  0.26571459835E+02  0.64944822714E+02  0.00000000000E+00 0.  1.
</event>
<event>
12    1  0.8133495E-002  0.1966660E+03  0.7818608E-02  0.1152785E+00
         21   -1    0    0  503  502  0.00000000000E+00  0.00000000000E+00  0.12254911387E+04  0.12254911387E+04  0.00000000000E+00 0.  1.
         21   -1    0    0  501  503 -0.00000000000E+00 -0.00000000000E+00 -0.45135368369E+02  0.45135368369E+02  0.00000000000E+00 0. -1.
          6    2    1    2  501    0  0.11684445665E+02 -0.93459162985E+02  0.23886570008E+03  0.30881515725E+03  0.17157749635E+03 0.  0.
         24    2    3    3    0    0 -0.52794787071E+02 -0.82809367504E+02  0.12763762374E+03  0.17972307940E+03  0.79776822351E+02 0.  0.
         -6    2    1    2    0  502 -0.11684445665E+02  0.93459162985E+02  0.94149007020E+03  0.96181134977E+03  0.17264523988E+03 0.  0.
        -24    2    5    5    0    0 -0.48998158557E+02  0.76148577914E+02  0.37617069391E+03  0.39497799090E+03  0.79396453807E+02 0.  0.
          5    1    3    3  501    0  0.64479232736E+02 -0.10649795482E+02  0.11122807634E+03  0.12909207785E+03  0.47000000000E+01 0. -1.
        -13    1    4    4    0    0 -0.25405864365E+02  0.88243281410E+01  0.49041138244E+02  0.55931743684E+02  0.00000000000E+00 0.  1.
         14    1    4    4    0    0 -0.27388922706E+02 -0.91633695645E+02  0.78596485501E+02  0.12379133571E+03  0.00000000000E+00 0. -1.
         -5    1    5    5    0  502  0.37313712892E+02  0.17310585071E+02  0.56531937628E+03  0.56683335887E+03  0.47000000000E+01 0.  1.
         13    1    6    6    0    0  0.88411409831E+01  0.53012789205E+02  0.22791861666E+03  0.23416963384E+03  0.00000000000E+00 0. -1.
        -14    1    6    6    0    0 -0.57839299540E+02  0.23135788709E+02  0.14825207725E+03  0.16080835706E+03  0.00000000000E+00 0.  1.
</event>
<event>
12    1  0.8133495E-002  0.2096139E+03  0.7818608E-02  0.1144255E+00
         21   -1    0    0  503  502  0.00000000000E+00  0.00000000000E+00  0.44724714572E+03  0.44724714572E+03  0.00000000000E+00 0.  1.
         21   -1    0    0  501  503 -0.00000000000E+00 -0.00000000000E+00 -0.95504429565E+02  0.95504429565E+02  0.00000000000E+00 0.  1.
          6    2    1    2  501    0 -0.82132210312E+02 -0.67267896742E+02  0.12583500769E+03  0.23457586653E+03  0.16709493737E+03 0.  0.
         24    2    3    3    0    0 -0.33331303143E+02 -0.10435797411E+03  0.94687200851E+02  0.16565940804E+03  0.80472423460E+02 0.  0.
         -6    2    1    2    0  502  0.82132210312E+02  0.67267896742E+02  0.22590770846E+03  0.30817570875E+03  0.18074098821E+03 0.  0.
        -24    2    5    5    0    0  0.81029936447E+02 -0.21709237726E+01  0.60931011871E+02  0.12911603931E+03  0.79923712930E+02 0.  0.
          5    1    3    3  501    0 -0.48800907169E+02  0.37090077372E+02  0.31147806838E+02  0.68916458490E+02  0.47000000000E+01 0. -1.
        -11    1    4    4    0    0 -0.59011687476E+02 -0.61512201968E+02  0.67888906824E+02  0.10897262922E+03  0.00000000000E+00 0.  1.
         12    1    4    4    0    0  0.25680384333E+02 -0.42845772146E+02  0.26798294027E+02  0.56686778820E+02  0.00000000000E+00 0. -1.
         -5    1    5    5    0  502  0.11022738644E+01  0.69438820515E+02  0.16497669659E+03  0.17905966944E+03  0.47000000000E+01 0.  1.
         11    1    6    6    0    0  0.41882542000E+02 -0.20476237065E+01 -0.14304242214E+02  0.44305207736E+02  0.00000000000E+00 0. -1.
        -12    1    6    6    0    0  0.39147394447E+02 -0.12330006606E+00  0.75235254085E+02  0.84810831573E+02  0.00000000000E+00 0.  1.
</event>
<event>
12    1  0.8133495E-002  0.3432362E+03  0.7818608E-02  0.1065893E+00
         21   -1    0    0  501  502  0.00000000000E+00  0.00000000000E+00  0.97864623015E+03  0.97864623015E+03  0.00000000000E+00 0.  1.
         21   -1    0    0  502  503 -0.00000000000E+00 -0.00000000000E+00 -0.14139711090E+03  0.14139711090E+03  0.00000000000E+00 0. -1.
         -6    2    1    2    0  503  0.15639481754E+03  0.24626147607E+03  0.64002702435E+03  0.72418014132E+03  0.17233174877E+03 0.  0.
        -24    2    3    3    0    0  0.63312571163E+02  0.47158654365E+02  0.20802599017E+03  0.23946040608E+03  0.88510186667E+02 0.  0.
          6    2    1    2  501    0 -0.15639481754E+03 -0.24626147607E+03  0.19722209490E+03  0.39586319973E+03  0.18085094591E+03 0.  0.
         24    2    5    5    0    0 -0.10456606513E+03 -0.51940713822E+02  0.97516575357E+02  0.17134135481E+03  0.78844642630E+02 0.  0.
          5    1    5    5  501    0 -0.51828752412E+02 -0.19432076225E+03  0.99705519539E+02  0.22452184492E+03  0.47000000000E+01 0. -1.
        -11    1    6    6    0    0 -0.42395064004E+02 -0.52013913859E+02  0.84360265581E+02  0.10779352066E+03  0.00000000000E+00 0.  1.
         12    1    6    6    0    0 -0.62171001125E+02  0.73200037021E-01  0.13156309776E+02  0.63547834157E+02  0.00000000000E+00 0. -1.
         -5    1    3    3    0  503  0.93082246378E+02  0.19910282171E+03  0.43200103418E+03  0.48471973524E+03  0.47000000000E+01 0.  1.
         13    1    4    4    0    0  0.82439563893E+02  0.52653960167E+02  0.18282462958E+03  0.20734890016E+03  0.00000000000E+00 0. -1.
        -14    1    4    4    0    0 -0.19126992730E+02 -0.54953058027E+01  0.25201360586E+02  0.32111505915E+02  0.00000000000E+00 0.  1.
</event>
<event>
12    1  0.8133495E-002  0.2539952E+03  0.7818608E-02  0.1111077E+00
         21   -1    0    0  503  502  0.00000000000E+00  0.00000000000E+00  0.56761398002E+03  0.56761398002E+03  0.00000000000E+00 0. -1.
         21   -1    0    0  501  503 -0.00000000000E+00 -0.00000000000E+00 -0.13662792007E+03  0.13662792007E+03  0.00000000000E+00 0. -1.
          6    2    1    2  501    0 -0.90654186386E+02  0.16035405682E+03  0.68071275696E+02  0.26127381954E+03  0.17233312263E+03 0.  0.
         24    2    3    3    0    0 -0.40772010262E+02  0.64466276587E+01  0.35894455930E+02  0.96249076017E+02  0.79193161565E+02 0.  0.
         -6    2    1    2    0  502  0.90654186386E+02 -0.16035405682E+03  0.36291478426E+03  0.44296808055E+03  0.17487702738E+03 0.  0.
        -24    2    5    5    0    0  0.88320604621E+02 -0.18710558444E+03  0.28203264758E+03  0.35761528406E+03  0.74412688198E+02 0.  0.
          5    1    3    3  501    0 -0.49882176124E+02  0.15390742916E+03  0.32176819766E+02  0.16502474353E+03  0.47000000000E+01 0. -1.
        -11    1    4    4    0    0  0.19683365994E+02 -0.14555034884E+02  0.42233068439E+01  0.24841905282E+02  0.00000000000E+00 0.  1.
         12    1    4    4    0    0 -0.60455376257E+02  0.21001662543E+02  0.31671149086E+02  0.71407170735E+02  0.00000000000E+00 0. -1.
         -5    1    5    5    0  502  0.23335817654E+01  0.26751527627E+02  0.80882136680E+02  0.85352796487E+02  0.47000000000E+01 0.  1.
         13    1    6    6    0    0  0.99145055809E+02 -0.14319122921E+03  0.23313163675E+03  0.29100486296E+03  0.00000000000E+00 0. -1.
        -14    1    6    6    0    0 -0.10824451188E+02 -0.43914355237E+02  0.48901010825E+02  0.66610421100E+02  0.00000000000E+00 0.  1.
</event>
<event>
12    1  0.8133495E-002  0.1751492E+03  0.7818608E-02  0.1172872E+00
         21   -1    0    0  501  502  0.00000000000E+00  0.00000000000E+00  0.80200276647E+03  0.80200276647E+03  0.00000000000E+00 0.  1.
         21   -1    0    0  502  503 -0.00000000000E+00 -0.00000000000E+00 -0.38790798763E+02  0.38790798763E+02  0.00000000000E+00 0.  1.
         -6    2    1    2    0  503  0.22411889720E+02  0.30916984232E+02  0.32279331538E+03  0.36725025847E+03  0.17093588031E+03 0.  0.
        -24    2    3    3    0    0  0.36414323851E+02  0.26608939646E+02  0.33625402619E+03  0.34680745668E+03  0.71934715046E+02 0.  0.
          6    2    1    2  501    0 -0.22411889720E+02 -0.30916984232E+02  0.44041865233E+03  0.47354330676E+03  0.16975429700E+03 0.  0.
         24    2    5    5    0    0 -0.67533058958E+02 -0.44897818297E+02  0.22043383643E+03  0.24849488339E+03  0.81130158953E+02 0.  0.
          5    1    5    5  501    0  0.45121169238E+02  0.13980834065E+02  0.21998481590E+03  0.22504842337E+03  0.47000000000E+01 0. -1.
        -11    1    6    6    0    0 -0.36352746926E+02 -0.82429884107E+01  0.19874335830E+02  0.42242849000E+02  0.00000000000E+00 0.  1.
         12    1    6    6    0    0 -0.31180312032E+02 -0.36654829886E+02  0.20055950060E+03  0.20625203439E+03  0.00000000000E+00 0. -1.
         -5    1    3    3    0  503 -0.14002434131E+02  0.43080445853E+01 -0.13460710806E+02  0.20442801793E+02  0.47000000000E+01 0.  1.
         11    1    4    4    0    0  0.59068030044E+01 -0.24597779414E+02  0.10095408292E+03  0.10407529933E+03  0.00000000000E+00 0. -1.
        -12    1    4    4    0    0  0.30507520846E+02  0.51206719061E+02  0.23529994327E+03  0.24273215734E+03  0.00000000000E+00 0.  1.
</event>
<event>
12    1  0.8133495E-002  0.3090920E+03  0.7818608E-02  0.1081094E+00
         21   -1    0    0  503  502  0.00000000000E+00  0.00000000000E+00  0.67280981738E+03  0.67280981738E+03  0.00000000000E+00 0. -1.
         21   -1    0    0  501  503 -0.00000000000E+00 -0.00000000000E+00 -0.17430461949E+03  0.17430461949E+03  0.00000000000E+00 0.  1.
          6    2    1    2  501    0  0.12009664444E+03 -0.22532024758E+03  0.64435507063E+02  0.31573688056E+03  0.17419938347E+03 0.  0.
         24    2    3    3    0    0  0.10806139981E+03 -0.17301180656E+03  0.11036764123E+03  0.24493524877E+03  0.78752196923E+02 0.  0.
         -6    2    1    2    0  502 -0.12009664444E+03  0.22532024758E+03  0.43406969082E+03  0.53137755631E+03  0.16956766462E+03 0.  0.
        -24    2    5    5    0    0 -0.15119113644E+02  0.91382368005E+02  0.25484937892E+03  0.28419008139E+03  0.85067453515E+02 0.  0.
          5    1    3    3  501    0  0.12035244635E+02 -0.52308441018E+02 -0.45932134169E+02  0.70801631793E+02  0.47000000000E+01 0. -1.
        -11    1    4    4    0    0  0.10898160133E+03 -0.11106761684E+03  0.67594547716E+02  0.16965266818E+03  0.00000000000E+00 0.  1.
         12    1    4    4    0    0 -0.92020152660E+00 -0.61944189721E+02  0.42773093516E+02  0.75282580588E+02  0.00000000000E+00 0. -1.
         -5    1    5    5    0  502 -0.10497753080E+03  0.13393787958E+03  0.17922031190E+03  0.24718747492E+03  0.47000000000E+01 0.  1.
         11    1    6    6    0    0 -0.14531403049E+02  0.99766959043E+02  0.16098014418E+03  0.18994529373E+03  0.00000000000E+00 0. -1.
        -12    1    6    6    0    0 -0.58771059458E+00 -0.83845910377E+01  0.93869234740E+02  0.94244787661E+02  0.00000000000E+00 0.  1.
</event>
<event>
12    1  0.8133495E-002  0.3084924E+03  0.7818608E-02  0.1081498E+00
         21   -1    0    0  501  502  0.00000000000E+00  0.00000000000E+00  0.13730535794E+04  0.13730535794E+04  0.00000000000E+00 0. -1.
         21   -1    0    0  502  503 -0.00000000000E+00 -0.00000000000E+00 -0.68830537607E+02  0.68830537607E+02  0.00000000000E+00 0.  1.
         -6    2    1    2    0  503  0.21977803605E+03 -0.12297956731E+03  0.60014378501E+03  0.67318707864E+03  0.17199395643E+03 0.  0.
        -24    2    3    3    0    0  0.23831685484E+03 -0.90604267424E+02  0.52042887190E+03  0.58504852171E+03  0.80196667441E+02 0.  0.
          6    2    1    2  501    0 -0.21977803605E+03  0.12297956731E+03  0.70407925677E+03  0.76869703835E+03  0.17816053957E+03 0.  0.
         24    2    5    5    0    0 -0.42236179440E+02  0.16756126339E+02  0.24678132169E+03  0.26675279675E+03  0.90506194328E+02 0.  0.
          5    1    5    5  501    0 -0.17754185661E+03  0.10622344097E+03  0.45729793507E+03  0.50194424161E+03  0.47000000000E+01 0. -1.
        -11    1    6    6    0    0 -0.33378939545E+02  0.45336558184E+02  0.83203098682E+02  0.10046050340E+03  0.00000000000E+00 0.  1.
         12    1    6    6    0    0 -0.88572398954E+01 -0.28580431845E+02  0.16357822301E+03  0.16629229335E+03  0.00000000000E+00 0. -1.
         -5    1    3    3    0  503 -0.18538818791E+02 -0.32375299890E+02  0.79714913109E+02  0.88138556926E+02  0.47000000000E+01 0.  1.
         11    1    4    4    0    0  0.15989143775E+03 -0.52497689351E+02  0.41756411331E+03  0.45020114169E+03  0.00000000000E+00 0. -1.
        -12    1    4    4    0    0  0.78425417093E+02 -0.38106578073E+02  0.10286475859E+03  0.13484738002E+03  0.00000000000E+00 0.  1.
</event>
<event>
12    1  0.8133495E-002  0.2166001E+03  0.7818608E-02  0.1136559E+00
         21   -1    0    0  503  502  0.00000000000E+00  0.00000000000E+00  0.99612804113E+02  0.99612804113E+02  0.00000000000E+00 0. -1.
         21   -1    0    0  501  503 -0.00000000000E+00 -0.00000000000E+00 -0.48682787475E+03  0.48682787475E+03  0.00000000000E+00 0. -1.
          6    2    1    2  501    0  0.12211968305E+03 -0.54518542963E+02 -0.24892767691E+03  0.32997062401E+03  0.17038232262E+03 0.  0.
         24    2    3    3    0    0  0.97394879569E+02  0.29815709232E+02 -0.14300433311E+03  0.19225560391E+03  0.78340531412E+02 0.  0.
         -6    2    1    2    0  502 -0.12211968305E+03  0.54518542963E+02 -0.13828739373E+03  0.25647005486E+03  0.16961131229E+03 0.  0.
        -24    2    5    5    0    0 -0.51068890469E+02  0.24157699650E+02 -0.14922325288E+03  0.17829282704E+03  0.79555810268E+02 0.  0.
          5    1    3    3  501    0  0.24724803486E+02 -0.84334252195E+02 -0.10592334380E+03  0.13771502010E+03  0.47000000000E+01 0. -1.
        -11    1    4    4    0    0  0.45798807008E+01 -0.33844053681E+01  0.92585353179E+01  0.10869681834E+02  0.00000000000E+00 0.  1.
         12    1    4    4    0    0  0.92814998868E+02  0.33200114600E+02 -0.15226286843E+03  0.18138592207E+03  0.00000000000E+00 0. -1.
         -5    1    5    5    0  502 -0.71050792585E+02  0.30360843313E+02  0.10935859150E+02  0.78177227816E+02  0.47000000000E+01 0.  1.
         13    1    6    6    0    0 -0.44423364837E+02  0.46475308086E+02 -0.67087430705E+02  0.92919927700E+02  0.00000000000E+00 0. -1.
        -14    1    6    6    0    0 -0.66455256325E+01 -0.22317608436E+02 -0.82135822177E+02  0.85372899341E+02  0.00000000000E+00 0.  1.
</event>
<event>
12    1  0.8133495E-002  0.1955735E+03  0.7818608E-02  0.1154102E+00
         21   -1    0    0  501  502  0.00000000000E+00  0.00000000000E+00  0.31047557599E+02  0.31047557599E+02  0.00000000000E+00 0.  1.
         21   -1    0    0  502  503 -0.00000000000E+00 -0.00000000000E+00 -0.18275889657E+04  0.18275889657E+04  0.00000000000E+00 0.  1.
         -6    2    1    2    0  503 -0.86574036487E+02 -0.28940671654E+02 -0.14401100940E+04  0.14533293098E+04  0.17296350337E+03 0.  0.
        -24    2    3    3    0    0 -0.66839213108E+02 -0.28442165856E+02 -0.14219326321E+04  0.14260855603E+04  0.80939347339E+02 0.  0.
          6    2    1    2  501    0  0.86574036487E+02  0.28940671654E+02 -0.35643131408E+03  0.40530721352E+03  0.16999420403E+03 0.  0.
         24    2    5    5    0    0  0.63069862301E+02 -0.46277005583E+02 -0.18411147290E+03  0.21576470421E+03  0.80857926947E+02 0.  0.
          5    1    5    5  501    0  0.23504174185E+02  0.75217677237E+02 -0.17231984117E+03  0.18954250931E+03  0.47000000000E+01 0. -1.
        -13    1    6    6    0    0  0.38386973740E+02 -0.29419546898E+02 -0.26111939646E+02  0.54962740877E+02  0.00000000000E+00 0.  1.
         14    1    6    6    0    0  0.24682888561E+02 -0.16857458685E+02 -0.15799953326E+03  0.16080196333E+03  0.00000000000E+00 0. -1.
         -5    1    3    3    0  503 -0.19734823379E+02 -0.49850579755E+00 -0.18177461902E+02  0.27243749430E+02  0.47000000000E+01 0.  1.
         11    1    4    4    0    0 -0.17737050546E+02  0.19523828382E+02 -0.14996689543E+03  0.15226901380E+03  0.00000000000E+00 0. -1.
        -12    1    4    4    0    0 -0.49102162561E+02 -0.47965994238E+02 -0.12719657367E+04  0.12738165465E+04  0.00000000000E+00 0.  1.
</event>
<event>
12    1  0.8133495E-002  0.2290406E+03  0.7818608E-02  0.1127372E+00
         21   -1    0    0  501  502  0.00000000000E+00  0.00000000000E+00  0.14480701346E+03  0.14480701346E+03  0.00000000000E+00 0. -1.
         21   -1    0    0  502  503 -0.00000000000E+00 -0.00000000000E+00 -0.37241019539E+03  0.37241019539E+03  0.00000000000E+00 0. -1.
         -6    2    1    2    0  503  0.12276702983E+02  0.15010953305E+03 -0.15741135471E+03  0.27766245090E+03  0.17214677663E+03 0.  0.
        -24    2    3    3    0    0  0.47920733684E+02  0.16139801420E+03 -0.14926933121E+03  0.23910976905E+03  0.80910028488E+02 0.  0.
          6    2    1    2  501    0 -0.12276702983E+02 -0.15010953305E+03 -0.70191827225E+02  0.23955475794E+03  0.17255723716E+03 0.  0.
         24    2    5    5    0    0  0.59664301384E+02 -0.69271208670E+02 -0.37572657646E+02  0.12643339382E+03  0.78837613227E+02 0.  0.
          5    1    5    5  501    0 -0.71941004367E+02 -0.80838324377E+02 -0.32619169579E+02  0.11312136412E+03  0.47000000000E+01 0. -1.
        -13    1    6    6    0    0 -0.54541770117E+01  0.12625686389E+02  0.32316410990E+01  0.14127968993E+02  0.00000000000E+00 0.  1.
         14    1    6    6    0    0  0.65118478396E+02 -0.81896895059E+02 -0.40804298745E+02  0.11230542482E+03  0.00000000000E+00 0. -1.
         -5    1    3    3    0  503 -0.35644030701E+02 -0.11288481156E+02 -0.81420234951E+01  0.38552681852E+02  0.47000000000E+01 0.  1.
         11    1    4    4    0    0  0.62540357064E+02  0.70959917565E+02 -0.66279536998E+02  0.11549711333E+03  0.00000000000E+00 0. -1.
        -12    1    4    4    0    0 -0.14619623380E+02  0.90438096637E+02 -0.82989794213E+02  0.12361265572E+03  0.00000000000E+00 0.  1.
</event>
<event>
12    1  0.8133495E-002  0.1865568E+03  0.7818608E-02  0.1161654E+00
         21   -1    0    0  501  502  0.00000000000E+00  0.00000000000E+00  0.42921908333E+03  0.42921908333E+03  0.00000000000E+00 0. -1.
         21   -1    0    0  502  503 -0.00000000000E+00 -0.00000000000E+00 -0.81538783403E+02  0.81538783403E+02  0.00000000000E+00 0. -1.
         -6    2    1    2    0  503 -0.70438516037E+02 -0.13725134810E+02  0.19484735378E+03  0.26975717821E+03  0.17220185845E+03 0.  0.
        -24    2    3    3    0    0 -0.92014182193E+01  0.55756435934E+02  0.11601464345E+03  0.14804293484E+03  0.72552510747E+02 0.  0.
          6    2    1    2  501    0  0.70438516037E+02  0.13725134810E+02  0.15283294615E+03  0.24100068852E+03  0.17196935359E+03 0.  0.
         24    2    5    5    0    0  0.63447415489E+02 -0.54742220382E+02  0.11454184424E+03  0.16210231909E+03  0.78326512417E+02 0.  0.
          5    1    5    5  501    0  0.69911005476E+01  0.68467355192E+02  0.38291101908E+02  0.78898369433E+02  0.47000000000E+01 0. -1.
        -11    1    6    6    0    0 -0.62672975491E+01 -0.20657577092E+02 -0.24369272669E+01  0.21724482143E+02  0.00000000000E+00 0.  1.
         12    1    6    6    0    0  0.69714713039E+02 -0.34084643290E+02  0.11697877151E+03  0.14037783695E+03  0.00000000000E+00 0. -1.
         -5    1    3    3    0  503 -0.61237097818E+02 -0.69481570744E+02  0.78832710333E+02  0.12171424338E+03  0.47000000000E+01 0.  1.
         13    1    4    4    0    0 -0.23501676917E+02 -0.92684137575E+01  0.28581120546E+02  0.38145940323E+02  0.00000000000E+00 0. -1.
        -14    1    4    4    0    0  0.14300258698E+02  0.65024849691E+02  0.87433522901E+02  0.10989699451E+03  0.00000000000E+00 0.  1.
</event>
<event>
12    1  0.8133495E-002  0.1762084E+03  0.7818608E-02  0.1171752E+00
         21   -1    0    0  501  502  0.00000000000E+00  0.00000000000E+00  0.16636445464E+03  0.16636445464E+03  0.00000000000E+00 0. -1.
         21   -1    0    0  502  503 -0.00000000000E+00 -0.00000000000E+00 -0.47126171986E+03  0.47126171986E+03  0.00000000000E+00 0. -1.
         -6    2    1    2    0  503 -0.21963642071E+02 -0.26437123791E+02 -0.40047993414E+03  0.43716309416E+03  0.17188970348E+03 0.  0.
        -24    2    3    3    0    0  0.28775690891E+02  0.12578349940E+02 -0.33783182798E+03  0.34747718499E+03  0.74991964989E+02 0.  0.
          6    2    1    2  501    0  0.21963642071E+02  0.26437123791E+02  0.95582668915E+02  0.20046308034E+03  0.17282383197E+03 0.  0.
         24    2    5    5    0    0  0.75351570068E+02  0.30518192365E+02  0.31450180342E+02  0.11678517366E+03  0.77720291853E+02 0.  0.
          5    1    5    5  501    0 -0.53387927997E+02 -0.40810685741E+01  0.64132488573E+02  0.83677906684E+02  0.47000000000E+01 0. -1.
        -13    1    6    6    0    0  0.32705648279E+02  0.54484525646E+02  0.17235543951E+02  0.65842895892E+02  0.00000000000E+00 0.  1.
         14    1    6    6    0    0  0.42645921790E+02 -0.23966333280E+02  0.14214636391E+02  0.50942277765E+02  0.00000000000E+00 0. -1.
         -5    1    3    3    0  503 -0.50739332962E+02 -0.39015473731E+02 -0.62648106154E+02  0.89685909175E+02  0.47000000000E+01 0.  1.
         13    1    4    4    0    0  0.28699586483E+02  0.34991624770E+02 -0.11599130584E+03  0.12450728131E+03  0.00000000000E+00 0. -1.
        -14    1    4    4    0    0  0.76104408009E-01 -0.22413274830E+02 -0.22184052215E+03  0.22296990368E+03  0.00000000000E+00 0.  1.
</event>
<event>
12    1  0.8133495E-002  0.1811320E+03  0.7818608E-02  0.1167513E+00
         21   -1    0    0  503  502  0.00000000000E+00  0.00000000000E+00  0.72312589832E+02  0.72312589832E+02  0.00000000000E+00 0.  1.
         21   -1    0    0  501  503 -0.00000000000E+00 -0.00000000000E+00 -0.73918609058E+03  0.73918609058E+03  0.00000000000E+00 0.  1.
          6    2    1    2  501    0  0.38536090057E+02 -0.24666383708E+02 -0.75826470281E+02  0.19331957317E+03  0.17184104007E+03 0.  0.
         24    2    3    3    0    0  0.61345372973E+02  0.22941168051E+02 -0.91874449782E+02  0.13794475924E+03  0.79361767260E+02 0.  0.
         -6    2    1    2    0  502 -0.38536090057E+02  0.24666383708E+02 -0.59104703047E+03  0.61817910724E+03  0.17525796896E+03 0.  0.
        -24    2    5    5    0    0 -0.22018300844E+02  0.36872703797E+02 -0.14341882556E+03  0.17005531693E+03  0.80656366365E+02 0.  0.
          5    1    3    3  501    0 -0.22809282917E+02 -0.47607551759E+02  0.16047979500E+02  0.55374813929E+02  0.47000000000E+01 0. -1.
        -13    1    4    4    0    0  0.13725368390E+02  0.41202636410E+02 -0.15509892313E+02  0.46115070683E+02  0.00000000000E+00 0.  1.
         14    1    4    4    0    0  0.47620004583E+02 -0.18261468359E+02 -0.76364557469E+02  0.91829688557E+02  0.00000000000E+00 0. -1.
         -5    1    5    5    0  502 -0.16517789212E+02 -0.12206320089E+02 -0.44762820491E+03  0.44812379031E+03  0.47000000000E+01 0.  1.
         13    1    6    6    0    0 -0.35214779624E+01  0.42536649739E+02 -0.14450853280E+03  0.15068006978E+03  0.00000000000E+00 0. -1.
        -14    1    6    6    0    0 -0.18496822882E+02 -0.56639459419E+01  0.10897072380E+01  0.19375247153E+02  0.00000000000E+00 0.  1.
</event>
<event>
12    1  0.8133495E-002  0.1926884E+03  0.7818608E-02  0.1157144E+00
         21   -1    0    0  503  502  0.00000000000E+00  0.00000000000E+00  0.42323439924E+02  0.42323439924E+02  0.00000000000E+00 0. -1.
         21   -1    0    0  501  503 -0.00000000000E+00 -0.00000000000E+00 -0.86683684810E+03  0.86683684810E+03  0.00000000000E+00 0. -1.
          6    2    1    2  501    0 -0.76212674653E+02  0.72627874538E+01 -0.45933324068E+03  0.49626153327E+03  0.17154405717E+03 0.  0.
         24    2    3    3    0    0  0.48118394001E+01  0.97924868863E+01 -0.34614310453E+03  0.35695802226E+03  0.86515514490E+02 0.  0.
         -6    2    1    2    0  502  0.76212674653E+02 -0.72627874538E+01 -0.36518016750E+03  0.41289875475E+03  0.17682677140E+03 0.  0.
        -24    2    5    5    0    0  0.62390888447E+02 -0.68649079713E+02 -0.29242811370E+03  0.31659574346E+03  0.78187876256E+02 0.  0.
          5    1    3    3  501    0 -0.81024514053E+02 -0.25296994325E+01 -0.11319013615E+03  0.13930351101E+03  0.47000000000E+01 0. -1.
        -13    1    4    4    0    0 -0.20331059615E+02  0.23070446386E+02 -0.30722231562E+03  0.30875742695E+03  0.00000000000E+00 0.  1.
         14    1    4    4    0    0  0.25142899015E+02 -0.13277959499E+02 -0.38920788909E+02  0.48200595314E+02  0.00000000000E+00 0. -1.
         -5    1    5    5    0  502  0.13821786206E+02  0.61386292259E+02 -0.72752053800E+02  0.96303011289E+02  0.47000000000E+01 0.  1.
         13    1    6    6    0    0  0.47121804550E+02 -0.64498552227E+02 -0.12448519913E+03  0.14790906837E+03  0.00000000000E+00 0. -1.
        -14    1    6    6    0    0  0.15269083896E+02 -0.41505274854E+01 -0.16794291457E+03  0.16868667510E+03  0.00000000000E+00 0.  1.
</event>
<event>
12    1  0.8133495E-002  0.1751339E+03  0.7818608E-02  0.1172776E+00
         21   -1    0    0  503  502  0.00000000000E+00  0.00000000000E+00  0.25244205704E+03  0.25244205704E+03  0.00000000000E+00 0. -1.
         21   -1    0    0  501  503 -0.00000000000E+00 -0.00000000000E+00 -0.14504888236E+03  0.14504888236E+03  0.00000000000E+00 0. -1.
          6    2    1    2  501    0  0.15492267422E+02 -0.27331873594E+02 -0.27306022853E+02  0.17654807212E+03  0.17157086355E+03 0.  0.
         24    2    3    3    0    0  0.66837501230E+02 -0.13597336973E+02 -0.52143534218E+02  0.11769263480E+03  0.80501360122E+02 0.  0.
         -6    2    1    2    0  502 -0.15492267422E+02  0.27331873594E+02  0.13469919754E+03  0.22094286729E+03  0.17229287601E+03 0.  0.
        -24    2    5    5    0    0  0.28870323664E+02  0.30444022110E+02  0.12311587913E+02  0.90641133051E+02  0.79397139325E+02 0.  0.
          5    1    3    3  501    0 -0.51345233809E+02 -0.13734536621E+02  0.24837511364E+02  0.58855437318E+02  0.47000000000E+01 0. -1.
        -11    1    4    4    0    0  0.25176943892E+02 -0.36445394459E+02  0.36053108024E+01  0.44442587087E+02  0.00000000000E+00 0.  1.
         12    1    4    4    0    0  0.41660557338E+02  0.22848057485E+02 -0.55748845020E+02  0.73250047711E+02  0.00000000000E+00 0. -1.
         -5    1    5    5    0  502 -0.44362591086E+02 -0.31121485159E+01  0.12238760962E+03  0.13030173424E+03  0.47000000000E+01 0.  1.
         11    1    6    6    0    0 -0.20442406438E+01 -0.74453890909E+00 -0.29752179235E+02  0.29831617911E+02  0.00000000000E+00 0. -1.
        -12    1    6    6    0    0  0.30914564308E+02  0.31188561019E+02  0.42063767148E+02  0.60809515139E+02  0.00000000000E+00 0.  1.
</event>
<event>
12    1  0.8133495E-002  0.2121821E+03  0.7818608E-02  0.1139979E+00
         21   -1    0    0  501  502  0.00000000000E+00  0.00000000000E+00  0.39121090567E+02  0.39121090567E+02  0.00000000000E+00 0. -1.
         21   -1    0    0  502  503 -0.00000000000E+00 -0.00000000000E+00 -0.11984537357E+04  0.11984537357E+04  0.00000000000E+00 0.  1.
         -6    2    1    2    0  503  0.12125775247E+03 -0.21241344542E+02 -0.45088232421E+03  0.49803232197E+03  0.17200780851E+03 0.  0.
        -24    2    3    3    0    0  0.14022612395E+03 -0.50135564534E+02 -0.29648932990E+03  0.33974788888E+03  0.73114735758E+02 0.  0.
          6    2    1    2  501    0 -0.12125775247E+03  0.21241344542E+02 -0.70845032090E+03  0.73954250428E+03  0.17281962041E+03 0.  0.
         24    2    5    5    0    0 -0.10381057074E+03  0.74976994166E+01 -0.26817267765E+03  0.29867995758E+03  0.80375879024E+02 0.  0.
          5    1    5    5  501    0 -0.17447181724E+02  0.13743645125E+02 -0.44027764326E+03  0.44086254670E+03  0.47000000000E+01 0. -1.
        -11    1    6    6    0    0 -0.67849375557E+02  0.29754885500E+02 -0.23024941196E+03  0.24187534533E+03  0.00000000000E+00 0.  1.
         12    1    6    6    0    0 -0.35961195187E+02 -0.22257186083E+02 -0.37923265689E+02  0.56804612244E+02  0.00000000000E+00 0. -1.
         -5    1    3    3    0  503 -0.18968371481E+02  0.28894219992E+02 -0.15439299432E+03  0.15828443309E+03  0.47000000000E+01 0.  1.
         11    1    4    4    0    0  0.22099415296E+02 -0.12153298491E+02 -0.92677904055E+01  0.26869662440E+02  0.00000000000E+00 0. -1.
        -12    1    4    4    0    0  0.11812670865E+03 -0.37982266044E+02 -0.28722153949E+03  0.31287822644E+03  0.00000000000E+00 0.  1.
</event>
<event>
12    1  0.8133495E-002  0.2429866E+03  0.7818608E-02  0.1118134E+00
         21   -1    0    0  503  502  0.00000000000E+00  0.00000000000E+00  0.24663690959E+03  0.24663690959E+03  0.00000000000E+00 0. -1.
         21   -1    0    0  501  503 -0.00000000000E+00 -0.00000000000E+00 -0.85516498295E+03  0.85516498295E+03  0.00000000000E+00 0. -1.
          6    2    1    2  501    0  0.16482127766E+03  0.36678095386E+02 -0.77278511787E+03  0.81008600048E+03  0.17473166147E+03 0.  0.
         24    2    3    3    0    0  0.26446885796E+02 -0.36419651444E+00 -0.16788178419E+03  0.18843518466E+03  0.81387683019E+02 0.  0.
         -6    2    1    2    0  502 -0.16482127766E+03 -0.36678095386E+02  0.16425704451E+03  0.29171589206E+03  0.17206524566E+03 0.  0.
        -24    2    5    5    0    0 -0.13574006418E+03  0.15201326820E+02  0.16891878133E+03  0.23187432444E+03  0.81090704081E+02 0.  0.
          5    1    3    3  501    0  0.13837439186E+03  0.37042291900E+02 -0.60490333368E+03  0.62165081582E+03  0.47000000000E+01 0. -1.
        -11    1    4    4    0    0 -0.20903661738E+02  0.20504952215E+02 -0.33827418334E+02  0.44740477987E+02  0.00000000000E+00 0.  1.
         12    1    4    4    0    0  0.47350547534E+02 -0.20869148729E+02 -0.13405436586E+03  0.14369470667E+03  0.00000000000E+00 0. -1.
         -5    1    5    5    0  502 -0.29081213475E+02 -0.51879422206E+02 -0.46617368178E+01  0.59841567625E+02  0.47000000000E+01 0.  1.
         13    1    6    6    0    0 -0.14281688324E+03  0.25318687147E+02  0.14576046362E+03  0.20563027698E+03  0.00000000000E+00 0. -1.
        -14    1    6    6    0    0  0.70768190584E+01 -0.10117360327E+02  0.23158317703E+02  0.26244047455E+02  0.00000000000E+00 0.  1.
</event>
<event>
12    1  0.8133495E-002  0.2004165E+03  0.7818608E-02  0.1149496E+00
         21   -1    0    0  501  502  0.00000000000E+00  0.00000000000E+00  0.97294751061E+03  0.97294751061E+03  0.00000000000E+00 0. -1.
         21   -1    0    0  502  503 -0.00000000000E+00 -0.00000000000E+00 -0.18013456217E+03  0.18013456217E+03  0.00000000000E+00 0. -1.
         -6    2    1    2    0  503 -0.10166309280E+03 -0.66510979903E+01 -0.11008241139E+03  0.22821083876E+03  0.17199543043E+03 0.  0.
        -24    2    3    3    0    0 -0.13402977325E+03  0.39884711743E+01 -0.11505935387E+03  0.19345940150E+03  0.78790843974E+02 0.  0.
          6    2    1    2  501    0  0.10166309280E+03  0.66510979903E+01  0.90289535983E+03  0.92487123402E+03  0.17258953376E+03 0.  0.
         24    2    5    5    0    0  0.26937945529E+02 -0.57825410089E+02  0.45239309947E+03  0.46366038818E+03  0.79069641175E+02 0.  0.
          5    1    5    5  501    0  0.74725147273E+02  0.64476508079E+02  0.45050226037E+03  0.46121084584E+03  0.47000000000E+01 0. -1.
        -13    1    6    6    0    0 -0.27348975547E+02 -0.99346048376E+01  0.12036844919E+03  0.12383548117E+03  0.00000000000E+00 0.  1.
         14    1    6    6    0    0  0.54286921076E+02 -0.47890805251E+02  0.33202465028E+03  0.33982490701E+03  0.00000000000E+00 0. -1.
         -5    1    3    3    0  503  0.32366680451E+02 -0.10639569165E+02  0.49769424846E+01  0.34751437264E+02  0.47000000000E+01 0.  1.
         11    1    4    4    0    0 -0.12300601820E+03  0.14665447682E+00 -0.59415591976E+02  0.13660422611E+03  0.00000000000E+00 0. -1.
        -12    1    4    4    0    0 -0.11023755057E+02  0.38418166975E+01 -0.55643761895E+02  0.56855175393E+02  0.00000000000E+00 0.  1.
</event>
<event>
12    1  0.8133495E-002  0.2095974E+03  0.7818608E-02  0.1142956E+00
         21   -1    0    0  503  502  0.00000000000E+00  0.00000000000E+00  0.27313751921E+03  0.27313751921E+03  0.00000000000E+00 0.  1.
         21   -1    0    0  501  503 -0.00000000000E+00 -0.00000000000E+00 -0.16674527792E+03  0.16674527792E+03  0.00000000000E+00 0.  1.
          6    2    1    2  501    0  0.36728047001E+02 -0.10747949777E+03  0.79956216398E-01  0.20959737603E+03  0.17615408530E+03 0.  0.
         24    2    3    3    0    0 -0.37582311383E+02 -0.47988086483E+02  0.38162712081E+02  0.10696383534E+03  0.79180697804E+02 0.  0.
         -6    2    1    2    0  502 -0.36728047001E+02  0.10747949777E+03  0.10631228507E+03  0.23028542110E+03  0.16978893172E+03 0.  0.
        -24    2    5    5    0    0  0.45736515867E+02  0.65510088545E+02  0.52566207900E+02  0.12317535504E+03  0.77624488994E+02 0.  0.
          5    1    3    3  501    0  0.74310358384E+02 -0.59491411287E+02 -0.38082755865E+02  0.10263354069E+03  0.47000000000E+01 0. -1.
        -13    1    4    4    0    0  0.28867192845E+01 -0.13633801969E+02 -0.22430005225E+02  0.26406795314E+02  0.00000000000E+00 0.  1.
         14    1    4    4    0    0 -0.40469030667E+02 -0.34354284513E+02  0.60592717307E+02  0.80557040029E+02  0.00000000000E+00 0. -1.
         -5    1    5    5    0  502 -0.82464562868E+02  0.41969409225E+02  0.53746077172E+02  0.10711006606E+03  0.47000000000E+01 0.  1.
         13    1    6    6    0    0  0.17958079958E+02  0.51339907107E+02 -0.80747635120E+01  0.54986184659E+02  0.00000000000E+00 0. -1.
        -14    1    6    6    0    0  0.27778435909E+02  0.14170181437E+02  0.60640971412E+02  0.68189170381E+02  0.00000000000E+00 0.  1.
</event>
<event>
12    1  0.8133495E-002  0.1826661E+03  0.7818608E-02  0.1165632E+00
         21   -1    0    0  503  502  0.00000000000E+00  0.00000000000E+00  0.11839595817E+03  0.11839595817E+03  0.00000000000E+00 0.  1.
         21   -1    0    0  501  503 -0.00000000000E+00 -0.00000000000E+00 -0.46833834873E+03  0.46833834873E+03  0.00000000000E+00 0.  1.
          6    2    1    2  501    0  0.17311659272E+02  0.51985966894E+02 -0.36179688931E+03  0.40529483265E+03  0.17425463539E+03 0.  0.
         24    2    3    3    0    0  0.60828626596E+02  0.11878455115E+02 -0.31102204959E+03  0.32717624783E+03  0.80426129452E+02 0.  0.
         -6    2    1    2    0  502 -0.17311659272E+02 -0.51985966894E+02  0.11854498747E+02  0.18143947425E+03  0.17256163935E+03 0.  0.
        -24    2    5    5    0    0 -0.69772203885E+01  0.35264163867E+02 -0.13045806941E+02  0.89998229905E+02  0.81469291452E+02 0.  0.
          5    1    3    3  501    0 -0.43516967324E+02  0.40107511779E+02 -0.50774839718E+02  0.78118584822E+02  0.47000000000E+01 0. -1.
        -11    1    4    4    0    0  0.97849149754E+01 -0.30500919781E+02 -0.14271088415E+03  0.14626157091E+03  0.00000000000E+00 0.  1.
         12    1    4    4    0    0  0.51043711621E+02  0.42379374896E+02 -0.16831116544E+03  0.18091467692E+03  0.00000000000E+00 0. -1.
         -5    1    5    5    0  502 -0.10334438884E+02 -0.87250130761E+02  0.24900305688E+02  0.91441244349E+02  0.47000000000E+01 0.  1.
         13    1    6    6    0    0 -0.16935783058E+02  0.46660689977E+02  0.20105019573E+02  0.53556069207E+02  0.00000000000E+00 0. -1.
        -14    1    6    6    0    0  0.99585626691E+01 -0.11396526110E+02 -0.33150826514E+02  0.36442160698E+02  0.00000000000E+00 0.  1.
</event>
<event>
12    1  0.8133495E-002  0.2321834E+03  0.7818608E-02  0.1125169E+00
         21   -1    0    0  501  502  0.00000000000E+00  0.00000000000E+00  0.15097300555E+03  0.15097300555E+03  0.00000000000E+00 0. -1.
         21   -1    0    0  502  503 -0.00000000000E+00 -0.00000000000E+00 -0.35658384073E+03  0.35658384073E+03  0.00000000000E+00 0.  1.
         -6    2    1    2    0  503  0.42744592136E+02 -0.14942294585E+03 -0.10144053280E+03  0.25307586606E+03  0.17205491967E+03 0.  0.
        -24    2    3    3    0    0  0.41621891119E+02 -0.13254596750E+03 -0.13849035279E+03  0.21207742686E+03  0.80600507741E+02 0.  0.
          6    2    1    2  501    0 -0.42744592136E+02  0.14942294585E+03 -0.10417030237E+03  0.25448098022E+03  0.17249579849E+03 0.  0.
         24    2    5    5    0    0 -0.55912235572E+02  0.36825205581E+02 -0.92634118361E+02  0.14043357127E+03  0.81598003665E+02 0.  0.
          5    1    5    5  501    0  0.13167643436E+02  0.11259774027E+03 -0.11536184012E+02  0.11404740895E+03  0.47000000000E+01 0. -1.
        -11    1    6    6    0    0 -0.29259438178E+02  0.47758116346E+02 -0.96290117698E+02  0.11139452036E+03  0.00000000000E+00 0.  1.
         12    1    6    6    0    0 -0.26652797393E+02 -0.10932910765E+02  0.36559993369E+01  0.29039050912E+02  0.00000000000E+00 0. -1.
         -5    1    3    3    0  503  0.11227010162E+01 -0.16876978346E+02  0.37049819983E+02  0.40998439195E+02  0.47000000000E+01 0.  1.
         11    1    4    4    0    0 -0.62333783112E+01 -0.45260557055E+02 -0.55861029973E+01  0.46028008612E+02  0.00000000000E+00 0. -1.
        -12    1    4    4    0    0  0.47855269431E+02 -0.87285410449E+02 -0.13290424979E+03  0.16604941825E+03  0.00000000000E+00 0.  1.
</event>
<event>
12    1  0.8133495E-002  0.1989146E+03  0.7818608E-02  0.1151299E+00
         21   -1    0    0  501  502  0.00000000000E+00  0.00000000000E+00  0.25715923654E+03  0.25715923654E+03  0.00000000000E+00 0. -1.
         21   -1    0    0  502  503 -0.00000000000E+00 -0.00000000000E+00 -0.23053541965E+03  0.23053541965E+03  0.00000000000E+00 0. -1.
         -6    2    1    2    0  503  0.89469673595E+02 -0.29565754095E+02 -0.12947977787E+03  0.23484025442E+03  0.17177303605E+03 0.  0.
        -24    2    3    3    0    0 -0.12909553599E+01  0.31560013919E+02 -0.54637744410E+02  0.10218554755E+03  0.80367294153E+02 0.  0.
          6    2    1    2  501    0 -0.89469673595E+02  0.29565754095E+02  0.15610359476E+03  0.25285440177E+03  0.17518007846E+03 0.  0.
         24    2    5    5    0    0 -0.52500960710E+02 -0.10460213675E+01  0.78542079977E+01  0.96957842463E+02  0.81127613028E+02 0.  0.
          5    1    5    5  501    0 -0.36968712884E+02  0.30611775462E+02  0.14824938676E+03  0.15589655931E+03  0.47000000000E+01 0. -1.
        -13    1    6    6    0    0 -0.13906631646E+01  0.34359564171E+02  0.46374343372E+01  0.34698982569E+02  0.00000000000E+00 0.  1.
         14    1    6    6    0    0 -0.51110297546E+02 -0.35405585539E+02  0.32167736605E+01  0.62258859894E+02  0.00000000000E+00 0. -1.
         -5    1    3    3    0  503  0.90760628955E+02 -0.61125768014E+02 -0.74842033461E+02  0.13265470687E+03  0.47000000000E+01 0.  1.
         13    1    4    4    0    0  0.21618136727E+02 -0.20106465555E+02 -0.14695400048E+02  0.32978304614E+02  0.00000000000E+00 0. -1.
        -14    1    4    4    0    0 -0.22909092087E+02  0.51666479474E+02 -0.39942344363E+02  0.69207242935E+02  0.00000000000E+00 0.  1.
</event>
<event>
12    1  0.8133495E-002  0.3403581E+03  0.7818608E-02  0.1066662E+00
         21   -1    0    0  501  502  0.00000000000E+00  0.00000000000E+00  0.53120446867E+03  0.53120446867E+03  0.00000000000E+00 0.  1.
         21   -1    0    0  502  503 -0.00000000000E+00 -0.00000000000E+00 -0.32534395963E+03  0.32534395963E+03  0.00000000000E+00 0. -1.
         -6    2    1    2    0  503  0.26094506426E+03 -0.13430695553E+03 -0.14312533483E+03  0.36907044496E+03  0.17203908571E+03 0.  0.
        -24    2    3    3    0    0  0.12223756283E+03 -0.12279772632E+03 -0.12842648124E+03  0.22903337984E+03  0.77081934607E+02 0.  0.
          6    2    1    2  501    0 -0.26094506426E+03  0.13430695553E+03  0.34898584387E+03  0.48747798334E+03  0.17237453455E+03 0.  0.
         24    2    5    5    0    0 -0.20617774229E+03  0.16675861609E+03  0.28233496935E+03  0.39519039532E+03  0.78388240068E+02 0.  0.
          5    1    5    5  501    0 -0.54767321968E+02 -0.32451660564E+02  0.66650874518E+02  0.92287588022E+02  0.47000000000E+01 0. -1.
        -13    1    6    6    0    0 -0.19381571817E+02  0.28038425300E+02  0.79576343572E+02  0.86569007593E+02  0.00000000000E+00 0.  1.
         14    1    6    6    0    0 -0.18679617048E+03  0.13872019079E+03  0.20275862578E+03  0.30862138773E+03  0.00000000000E+00 0. -1.
         -5    1    3    3    0  503  0.13870750143E+03 -0.11509229203E+02 -0.14698853586E+02  0.14003706512E+03  0.47000000000E+01 0.  1.
         13    1    4    4    0    0  0.11603590193E+03 -0.68650311025E+02 -0.97339487384E+02  0.16628942102E+03  0.00000000000E+00 0. -1.
        -14    1    4    4    0    0  0.62016609002E+01 -0.54147415300E+02 -0.31086993855E+02  0.62743958821E+02  0.00000000000E+00 0.  1.
</event>
<event>
12    1  0.8133495E-002  0.1788678E+03  0.7818608E-02  0.1169297E+00
         21   -1    0    0  501  502  0.00000000000E+00  0.00000000000E+00  0.24125190923E+03  0.24125190923E+03  0.00000000000E+00 0. -1.
         21   -1    0    0  502  503 -0.00000000000E+00 -0.00000000000E+00 -0.13879483989E+03  0.13879483989E+03  0.00000000000E+00 0. -1.
         -6    2    1    2    0  503  0.46342712672E+02  0.83133502881E+01  0.95229719365E+02  0.20263859612E+03  0.17255996748E+03 0.  0.
        -24    2    3    3    0    0 -0.41573919176E+02  0.68142679080E+01  0.54197172895E+02  0.10549261692E+03  0.80103268803E+02 0.  0.
          6    2    1    2  501    0 -0.46342712672E+02 -0.83133502881E+01  0.72273499814E+01  0.17740815300E+03  0.17089370776E+03 0.  0.
         24    2    5    5    0    0 -0.52675239734E+02  0.43268859991E+02  0.43237156084E+02  0.11400766837E+03  0.80507277029E+02 0.  0.
          5    1    5    5  501    0  0.63325270624E+01 -0.51582210279E+02 -0.36009806103E+02  0.63400484634E+02  0.47000000000E+01 0. -1.
        -13    1    6    6    0    0  0.20299900211E+02 -0.36626019940E+00  0.10866404389E+02  0.23028218330E+02  0.00000000000E+00 0.  1.
         14    1    6    6    0    0 -0.72975139945E+02  0.43635120190E+02  0.32370751695E+02  0.90979450039E+02  0.00000000000E+00 0. -1.
         -5    1    3    3    0  503  0.87916631848E+02  0.14990823802E+01  0.41032546470E+02  0.97145979193E+02  0.47000000000E+01 0.  1.
         13    1    4    4    0    0 -0.42618446079E+02  0.27865490515E+02  0.64381401865E+02  0.82083996089E+02  0.00000000000E+00 0. -1.
        -14    1    4    4    0    0  0.10445269029E+01 -0.21051222607E+02 -0.10184228970E+02  0.23408620835E+02  0.00000000000E+00 0.  1.
</event>
<event>
12    1  0.8133495E-002  0.2645517E+03  0.7818608E-02  0.1104446E+00
         21   -1    0    0  501  502  0.00000000000E+00  0.00000000000E+00  0.49746059602E+03  0.49746059602E+03  0.00000000000E+00 0. -1.
         21   -1    0    0  502  503 -0.00000000000E+00 -0.00000000000E+00 -0.21630530768E+03  0.21630530768E+03  0.00000000000E+00 0. -1.
         -6    2    1    2    0  503  0.39939386684E+02 -0.19710522641E+03 -0.70472551346E+02  0.27373209491E+03  0.17180586255E+03 0.  0.
        -24    2    3    3    0    0  0.54888640398E+02 -0.18803306224E+03 -0.10397132954E+03  0.23565267147E+03  0.79705387930E+02 0.  0.
          6    2    1    2  501    0 -0.39939386684E+02  0.19710522641E+03  0.35162783968E+03  0.44003380879E+03  0.17187783554E+03 0.  0.
         24    2    5    5    0    0 -0.63444887022E+01  0.20981271341E+03  0.27354259285E+03  0.35395539588E+03  0.79982778924E+02 0.  0.
          5    1    5    5  501    0 -0.33594897982E+02 -0.12707487000E+02  0.78085246826E+02  0.86078412904E+02  0.47000000000E+01 0. -1.
        -13    1    6    6    0    0 -0.23988462257E+01  0.22336168803E+02  0.18825801601E+00  0.22465403203E+02  0.00000000000E+00 0.  1.
         14    1    6    6    0    0 -0.39456424765E+01  0.18747654460E+03  0.27335433484E+03  0.33148999268E+03  0.00000000000E+00 0. -1.
         -5    1    3    3    0  503 -0.14949253714E+02 -0.90721641721E+01  0.33498778196E+02  0.38079423446E+02  0.47000000000E+01 0.  1.
         13    1    4    4    0    0  0.95416985515E+01 -0.86995007180E+02 -0.87377266409E+02  0.12366875907E+03  0.00000000000E+00 0. -1.
        -14    1    4    4    0    0  0.45346941846E+02 -0.10103805505E+03 -0.16594063133E+02  0.11198391240E+03  0.00000000000E+00 0.  1.
</event>
<event>
12    1  0.8133495E-002  0.1657016E+03  0.7818608E-02  0.1183876E+00
         21   -1    0    0  503  502  0.00000000000E+00  0.00000000000E+00  0.53350095057E+03  0.53350095057E+03  0.00000000000E+00 0.  1.
         21   -1    0    0  501  503 -0.00000000000E+00 -0.00000000000E+00 -0.10673079569E+03  0.10673079569E+03  0.00000000000E+00 0.  1.
          6    2    1    2  501    0  0.26061675002E+02  0.11956138649E+02 -0.18728170782E+02  0.16675663863E+03  0.16320193624E+03 0.  0.
         24    2    3    3    0    0 -0.13913951738E+02 -0.48590867441E+02 -0.27396541225E+01  0.92313953668E+02  0.77199027750E+02 0.  0.
         -6    2    1    2    0  502 -0.26061675002E+02 -0.11956138649E+02  0.44549832566E+03  0.47347510764E+03  0.15775854724E+03 0.  0.
        -24    2    5    5    0    0  0.33032133853E+02  0.21919044430E+02  0.29472669389E+03  0.30796443964E+03  0.80041899124E+02 0.  0.
          5    1    3    3  501    0  0.39975626739E+02  0.60547006089E+02 -0.15988516660E+02  0.74442684963E+02  0.47000000000E+01 0. -1.
        -11    1    4    4    0    0  0.19154148402E+02 -0.26941019331E+01  0.23095123173E+02  0.30125143993E+02  0.00000000000E+00 0.  1.
         12    1    4    4    0    0 -0.33068100140E+02 -0.45896765508E+02 -0.25834777295E+02  0.62188809675E+02  0.00000000000E+00 0. -1.
         -5    1    5    5    0  502 -0.59093808854E+02 -0.33875183078E+02  0.15077163178E+03  0.16551066800E+03  0.47000000000E+01 0.  1.
         13    1    6    6    0    0  0.30874106030E+02  0.50601237976E+02  0.17255604976E+03  0.18245351741E+03  0.00000000000E+00 0. -1.
        -14    1    6    6    0    0  0.21580278228E+01 -0.28682193546E+02  0.12217064413E+03  0.12551092223E+03  0.00000000000E+00 0.  1.
</event>
<event>
12    1  0.8133495E-002  0.2035432E+03  0.7818608E-02  0.1151186E+00
         21   -1    0    0  501  502  0.00000000000E+00  0.00000000000E+00  0.26576543500E+03  0.26576543500E+03  0.00000000000E+00 0. -1.
         21   -1    0    0  502  503 -0.00000000000E+00 -0.00000000000E+00 -0.15570505955E+03  0.15570505955E+03  0.00000000000E+00 0. -1.
         -6    2    1    2    0  503  0.64662217352E+02  0.85353075789E+01 -0.12681179805E+02  0.18378300894E+03  0.17135147571E+03 0.  0.
        -24    2    3    3    0    0  0.60283091733E+02  0.15356615591E+01 -0.73098151194E+02  0.12262360887E+03  0.77825447887E+02 0.  0.
          6    2    1    2  501    0 -0.64662217352E+02 -0.85353075789E+01  0.12274155526E+03  0.23768748560E+03  0.19281026321E+03 0.  0.
         24    2    5    5    0    0 -0.16832473517E+02  0.18218274647E+02 -0.19170013514E+02  0.85488859104E+02  0.79533753319E+02 0.  0.
          5    1    5    5  501    0 -0.47829743835E+02 -0.26753582225E+02  0.14191156877E+03  0.15219862650E+03  0.47000000000E+01 0. -1.
        -13    1    6    6    0    0 -0.23451397875E+02 -0.87660323275E+01  0.23652821181E+02  0.34442231852E+02  0.00000000000E+00 0.  1.
         14    1    6    6    0    0  0.66189243580E+01  0.26984306974E+02 -0.42822834695E+02  0.51046627252E+02  0.00000000000E+00 0. -1.
         -5    1    3    3    0  503  0.43791256195E+01  0.69996460198E+01  0.60416971389E+02  0.61159400074E+02  0.47000000000E+01 0.  1.
         11    1    4    4    0    0 -0.17881888654E+02  0.84815365675E+01 -0.11751711246E+02  0.23017409098E+02  0.00000000000E+00 0. -1.
        -12    1    4    4    0    0  0.78164980387E+02 -0.69458750084E+01 -0.61346439949E+02  0.99606199771E+02  0.00000000000E+00 0.  1.
</event>
<event>
12    1  0.8133495E-002  0.1827444E+03  0.7818608E-02  0.1165214E+00
         21   -1    0    0  503  502  0.00000000000E+00  0.00000000000E+00  0.12269233099E+03  0.12269233099E+03  0.00000000000E+00 0. -1.
         21   -1    0    0  501  503 -0.00000000000E+00 -0.00000000000E+00 -0.29945971017E+03  0.29945971017E+03  0.00000000000E+00 0. -1.
          6    2    1    2  501    0 -0.36126913831E+02 -0.47666421037E+02 -0.15241698478E+03  0.23796315754E+03  0.17267971943E+03 0.  0.
         24    2    3    3    0    0 -0.21233951824E+02 -0.20597026963E+02 -0.17812467185E+03  0.19749678153E+03  0.80009135506E+02 0.  0.
         -6    2    1    2    0  502  0.36126913831E+02  0.47666421037E+02 -0.24350394407E+02  0.18418888362E+03  0.17249742474E+03 0.  0.
        -24    2    5    5    0    0  0.36726459261E+02  0.84864295650E+02  0.15753314813E+02  0.12928497826E+03  0.88969979152E+02 0.  0.
          5    1    3    3  501    0 -0.14892962007E+02 -0.27069394074E+02  0.25707687072E+02  0.40466376011E+02  0.47000000000E+01 0. -1.
        -13    1    4    4    0    0 -0.27999517218E+02  0.16250698466E+02 -0.28109040609E+02  0.42873958635E+02  0.00000000000E+00 0.  1.
         14    1    4    4    0    0  0.67655653944E+01 -0.36847725428E+02 -0.15001563124E+03  0.15462282290E+03  0.00000000000E+00 0. -1.
         -5    1    5    5    0  502 -0.59954542962E+00 -0.37197874613E+02 -0.40103709220E+02  0.54903905358E+02  0.47000000000E+01 0.  1.
         11    1    6    6    0    0  0.45586021345E+02  0.18563693287E+02  0.34154514169E+02  0.59910156807E+02  0.00000000000E+00 0. -1.
        -12    1    6    6    0    0 -0.88595620843E+01  0.66300602363E+02 -0.18401199356E+02  0.69374821454E+02  0.00000000000E+00 0.  1.
</event>
<event>
12    1  0.8133495E-002  0.3080603E+03  0.7818608E-02  0.1081348E+00
         21   -1    0    0  501  502  0.00000000000E+00  0.00000000000E+00  0.57799071162E+03  0.57799071162E+03  0.00000000000E+00 0.  1.
         21   -1    0    0  502  503 -0.00000000000E+00 -0.00000000000E+00 -0.44996282786E+03  0.44996282786E+03  0.00000000000E+00 0. -1.
         -6    2    1    2    0  503  0.14611984899E+03 -0.20860583347E+03 -0.34578524376E+03  0.46310750905E+03  0.17330241231E+03 0.  0.
        -24    2    3    3    0    0  0.16835524774E+03 -0.19532755218E+03 -0.26974793205E+03  0.38264330283E+03  0.84590828520E+02 0.  0.
          6    2    1    2  501    0 -0.14611984899E+03  0.20860583347E+03  0.47381312752E+03  0.56484603042E+03  0.17229264130E+03 0.  0.
         24    2    5    5    0    0 -0.13004366203E+03  0.16935515459E+03  0.25654760499E+03  0.34342910049E+03  0.80835332729E+02 0.  0.
          5    1    5    5  501    0 -0.16076186957E+02  0.39250678887E+02  0.21726552253E+03  0.22141692994E+03  0.47000000000E+01 0. -1.
        -13    1    6    6    0    0 -0.10026013448E+03  0.10771018709E+03  0.22303417106E+03  0.26720370587E+03  0.00000000000E+00 0.  1.
         14    1    6    6    0    0 -0.29783527554E+02  0.61644967498E+02  0.33513433923E+02  0.76225394618E+02  0.00000000000E+00 0. -1.
         -5    1    3    3    0  503 -0.22235398755E+02 -0.13278281294E+02 -0.76037311708E+02  0.80464206227E+02  0.47000000000E+01 0.  1.
         11    1    4    4    0    0  0.62262175116E+02 -0.11994886867E+03 -0.17762782401E+03  0.22319487765E+03  0.00000000000E+00 0. -1.
        -12    1    4    4    0    0  0.10609307263E+03 -0.75378683507E+02 -0.92120108044E+02  0.15944842518E+03  0.00000000000E+00 0.  1.
</event>
<event>
12    1  0.8133495E-002  0.1958411E+03  0.7818608E-02  0.1153718E+00
         21   -1    0    0  503  502  0.00000000000E+00  0.00000000000E+00  0.49808073606E+03  0.49808073606E+03  0.00000000000E+00 0. -1.
         21   -1    0    0  501  503 -0.00000000000E+00 -0.00000000000E+00 -0.10993897696E+03  0.10993897696E+03  0.00000000000E+00 0. -1.
          6    2    1    2  501    0 -0.41137811144E+02  0.80320973941E+02  0.26435939064E+02  0.19761728046E+03  0.17381010414E+03 0.  0.
         24    2    3    3    0    0 -0.29556010090E+02  0.11273894019E+03  0.58857058958E+02  0.15009589931E+03  0.74033770901E+02 0.  0.
         -6    2    1    2    0  502  0.41137811144E+02 -0.80320973941E+02  0.36170582004E+03  0.41040243256E+03  0.17162540033E+03 0.  0.
        -24    2    5    5    0    0  0.73516787613E+02 -0.36129176032E+02  0.13422972042E+03  0.17637512856E+03  0.79878236765E+02 0.  0.
          5    1    3    3  501    0 -0.11581801053E+02 -0.32417966247E+02 -0.32421119895E+02  0.47521381150E+02  0.47000000000E+01 0. -1.
        -11    1    4    4    0    0 -0.52796201386E+02  0.66303161387E+02  0.26029657027E+02  0.88662794540E+02  0.00000000000E+00 0.  1.
         12    1    4    4    0    0  0.23240191296E+02  0.46435778802E+02  0.32827401931E+02  0.61433104772E+02  0.00000000000E+00 0. -1.
         -5    1    5    5    0  502 -0.32378976470E+02 -0.44191797909E+02  0.22747609961E+03  0.23402730399E+03  0.47000000000E+01 0.  1.
         11    1    6    6    0    0  0.53732432716E+02 -0.59323584546E+02  0.11573972482E+03  0.14072009775E+03  0.00000000000E+00 0. -1.
        -12    1    6    6    0    0  0.19784354897E+02  0.23194408514E+02  0.18489995609E+02  0.35655030818E+02  0.00000000000E+00 0.  1.
</event>
<event>
12    1  0.8133495E-002  0.2231361E+03  0.7818608E-02  0.1131880E+00
         21   -1    0    0  501  502  0.00000000000E+00  0.00000000000E+00  0.57006439362E+03  0.57006439362E+03  0.00000000000E+00 0.  1.
         21   -1    0    0  502  503 -0.00000000000E+00 -0.00000000000E+00 -0.94512393957E+02  0.94512393957E+02  0.00000000000E+00 0.  1.
         -6    2    1    2    0  503 -0.67114907168E+01 -0.13966406688E+03  0.14291331436E+03  0.26497909927E+03  0.17389252987E+03 0.  0.
        -24    2    3    3    0    0 -0.42593352684E+02 -0.14263221908E+03  0.15280369669E+03  0.22734629963E+03  0.78608056974E+02 0.  0.
          6    2    1    2  501    0  0.67114907168E+01  0.13966406688E+03  0.33263868530E+03  0.39959768831E+03  0.17169368613E+03 0.  0.
         24    2    5    5    0    0  0.58036725019E+02  0.77526101596E+02  0.12485731774E+03  0.17668381904E+03  0.79052288000E+02 0.  0.
          5    1    5    5  501    0 -0.51325234302E+02  0.62137965280E+02  0.20778136757E+03  0.22291386927E+03  0.47000000000E+01 0. -1.
        -11    1    6    6    0    0  0.10111120748E+02  0.68575296223E+02  0.43496736679E+02  0.81833807908E+02  0.00000000000E+00 0.  1.
         12    1    6    6    0    0  0.47925604270E+02  0.89508053721E+01  0.81360581057E+02  0.94850011130E+02  0.00000000000E+00 0. -1.
         -5    1    3    3    0  503  0.35881861967E+02  0.29681522038E+01 -0.98903823322E+01  0.37632799635E+02  0.47000000000E+01 0.  1.
         11    1    4    4    0    0 -0.25899843809E+02 -0.55233010737E+01  0.90379599127E+01  0.27982020718E+02  0.00000000000E+00 0. -1.
        -12    1    4    4    0    0 -0.16693508875E+02 -0.13710891801E+03  0.14376573678E+03  0.19936427891E+03  0.00000000000E+00 0.  1.
</event>
<event>
12    1  0.8133495E-002  0.1854659E+03  0.7818608E-02  0.1162945E+00
         21   -1    0    0  503  502  0.00000000000E+00  0.00000000000E+00  0.41198648485E+03  0.41198648485E+03  0.00000000000E+00 0.  1.
         21   -1    0    0  501  503 -0.00000000000E+00 -0.00000000000E+00 -0.14355628931E+03  0.14355628931E+03  0.00000000000E+00 0.  1.
          6    2    1    2  501    0  0.32260840436E+02  0.58709000048E+02 -0.46699878623E+02  0.18988641701E+03  0.17143063959E+03 0.  0.
         24    2    3    3    0    0  0.19159270087E+02  0.10516464498E+03 -0.20806932536E+02  0.13491085200E+03  0.79632464236E+02 0.  0.
         -6    2    1    2    0  502 -0.32260840436E+02 -0.58709000048E+02  0.31513007416E+03  0.36565635714E+03  0.17294536527E+03 0.  0.
        -24    2    5    5    0    0 -0.78019199479E+02 -0.15380149397E+01  0.19637993940E+03  0.22606397387E+03  0.80314872275E+02 0.  0.
          5    1    3    3  501    0  0.13101570349E+02 -0.46455644935E+02 -0.25892946087E+02  0.54975565017E+02  0.47000000000E+01 0. -1.
        -13    1    4    4    0    0  0.29887008016E+02  0.72767395107E+01 -0.19515213397E+02  0.36428391949E+02  0.00000000000E+00 0.  1.
         14    1    4    4    0    0 -0.10727737929E+02  0.97887905472E+02 -0.12917191385E+01  0.98482460048E+02  0.00000000000E+00 0. -1.
         -5    1    5    5    0  502  0.45758359043E+02 -0.57170985108E+02  0.11875013476E+03  0.13959238327E+03  0.47000000000E+01 0.  1.
         13    1    6    6    0    0 -0.25753136749E+02 -0.20693987198E+02  0.14905996883E+02  0.36244363722E+02  0.00000000000E+00 0. -1.
        -14    1    6    6    0    0 -0.52266062730E+02  0.19155972258E+02  0.18147394251E+03  0.18981961015E+03  0.00000000000E+00 0.  1.
</event>
<event>
12    1  0.8133495E-002  0.2415912E+03  0.7818608E-02  0.1118754E+00
         21   -1    0    0  503  502  0.00000000000E+00  0.00000000000E+00  0.61728249816E+03  0.61728249816E+03  0.00000000000E+00 0. -1.
         21   -1    0    0  501  503 -0.00000000000E+00 -0.00000000000E+00 -0.19562699411E+03  0.19562699411E+03  0.00000000000E+00 0.  1.
          6    2    1    2  501    0 -0.76334835677E+02 -0.15171354928E+03 -0.81408855603E+02  0.25484133527E+03  0.17167613759E+03 0.  0.
         24    2    3    3    0    0 -0.25847733312E+02 -0.60914706060E+02  0.25344636574E+02  0.10580518017E+03  0.78572761283E+02 0.  0.
         -6    2    1    2    0  502  0.76334835677E+02  0.15171354928E+03  0.50306435966E+03  0.55806815700E+03  0.17182057422E+03 0.  0.
        -24    2    5    5    0    0  0.29600155848E+02  0.16850591316E+03  0.43077827495E+03  0.47024172689E+03  0.79290273944E+02 0.  0.
          5    1    3    3  501    0 -0.50487102365E+02 -0.90798843222E+02 -0.10675349218E+03  0.14903615510E+03  0.47000000000E+01 0. -1.
        -13    1    4    4    0    0  0.25822293728E+02 -0.33852144522E+02  0.96625351162E+00  0.42587465151E+02  0.00000000000E+00 0.  1.
         14    1    4    4    0    0 -0.51670027040E+02 -0.27062561538E+02  0.24378383063E+02  0.63217715018E+02  0.00000000000E+00 0. -1.
         -5    1    5    5    0  502  0.46734679829E+02 -0.16792363881E+02  0.72286084708E+02  0.87826430110E+02  0.47000000000E+01 0.  1.
         13    1    6    6    0    0  0.22850405864E+02  0.10159956458E+02  0.10526837075E+03  0.10819794658E+03  0.00000000000E+00 0. -1.
        -14    1    6    6    0    0  0.67497499834E+01  0.15834595670E+03  0.32550990420E+03  0.36204378031E+03  0.00000000000E+00 0.  1.
</event>
<event>
12    1  0.8133495E-002  0.1944498E+03  0.7818608E-02  0.1154937E+00
         21   -1    0    0  503  502  0.00000000000E+00  0.00000000000E+00  0.71023808557E+02  0.71023808557E+02  0.00000000000E+00 0.  1.
         21   -1    0    0  501  503 -0.00000000000E+00 -0.00000000000E+00 -0.67006896847E+03  0.67006896847E+03  0.00000000000E+00 0.  1.
          6    2    1    2  501    0  0.50912283945E+02 -0.69335819777E+02 -0.46952977731E+03  0.50745854005E+03  0.17221045709E+03 0.  0.
         24    2    3    3    0    0  0.85408693710E+02 -0.50978426725E+02 -0.21774309195E+03  0.25261423250E+03  0.80674973925E+02 0.  0.
         -6    2    1    2    0  502 -0.50912283945E+02  0.69335819777E+02 -0.12951538261E+03  0.23363423698E+03  0.17438808961E+03 0.  0.
        -24    2    5    5    0    0 -0.56970534361E+02 -0.11295132852E+02 -0.11548112154E+03  0.15143263478E+03  0.78884292688E+02 0.  0.
          5    1    3    3  501    0 -0.34496409765E+02 -0.18357393052E+02 -0.25178668536E+03  0.25484430755E+03  0.47000000000E+01 0. -1.
        -13    1    4    4    0    0 -0.92790502542E+01  0.10791912450E+01  0.21248896300E+00  0.93440129989E+01  0.00000000000E+00 0.  1.
         14    1    4    4    0    0  0.94687743964E+02 -0.52057617970E+02 -0.21795558091E+03  0.24327021950E+03  0.00000000000E+00 0. -1.
         -5    1    5    5    0  502  0.60582504158E+01  0.80630952629E+02 -0.14034261064E+02  0.82201602196E+02  0.47000000000E+01 0.  1.
         13    1    6    6    0    0 -0.15376142945E+02 -0.16103807688E+02  0.58986968794E+01  0.23033736536E+02  0.00000000000E+00 0. -1.
        -14    1    6    6    0    0 -0.41594391416E+02  0.48086748355E+01 -0.12137981842E+03  0.12839889825E+03  0.00000000000E+00 0.  1.
</event>
<event>
12    1  0.8133495E-002  0.2072774E+03  0.7818608E-02  0.1145125E+00
         21   -1    0    0  501  502  0.00000000000E+00  0.00000000000E+00  0.24396506311E+03  0.24396506311E+03  0.00000000000E+00 0. -1.
         21   -1    0    0  502  503 -0.00000000000E+00 -0.00000000000E+00 -0.23607003508E+03  0.23607003508E+03  0.00000000000E+00 0. -1.
         -6    2    1    2    0  503  0.76867743519E+02 -0.63431272834E+02 -0.12257145352E+03  0.24080635367E+03  0.18174642330E+03 0.  0.
        -24    2    3    3    0    0 -0.34909379732E+01 -0.14794476575E+02  0.58712972850E+01  0.81612491109E+02  0.79969140224E+02 0.  0.
          6    2    1    2  501    0 -0.76867743519E+02  0.63431272834E+02  0.13046648155E+03  0.23922874452E+03  0.17400204892E+03 0.  0.
         24    2    5    5    0    0 -0.55084356173E+02  0.11068805799E+03  0.89459455954E+02  0.17281048004E+03  0.81082274733E+02 0.  0.
          5    1    5    5  501    0 -0.21783387346E+02 -0.47256785159E+02  0.41007025597E+02  0.66418264477E+02  0.47000000000E+01 0. -1.
        -13    1    6    6    0    0 -0.41912857659E+02  0.22262162000E+02  0.16329328108E+01  0.47486397669E+02  0.00000000000E+00 0.  1.
         14    1    6    6    0    0 -0.13171498514E+02  0.88425895994E+02  0.87826523143E+02  0.12532408237E+03  0.00000000000E+00 0. -1.
         -5    1    3    3    0  503  0.80358681492E+02 -0.48636796259E+02 -0.12844275081E+03  0.15919386256E+03  0.47000000000E+01 0.  1.
         11    1    4    4    0    0  0.29757318899E+02 -0.31379696282E+02  0.95116587715E+01  0.44279284315E+02  0.00000000000E+00 0. -1.
        -12    1    4    4    0    0 -0.33248256873E+02  0.16585219707E+02 -0.36403614865E+01  0.37333206795E+02  0.00000000000E+00 0.  1.
</event>
<event>
12    1  0.8133495E-002  0.1842555E+03  0.7818608E-02  0.1165411E+00
         21   -1    0    0  503  502  0.00000000000E+00  0.00000000000E+00  0.25595226747E+03  0.25595226747E+03  0.00000000000E+00 0.  1.
         21   -1    0    0  501  503 -0.00000000000E+00 -0.00000000000E+00 -0.20512711941E+03  0.20512711941E+03  0.00000000000E+00 0.  1.
          6    2    1    2  501    0 -0.32715652893E+02 -0.33688888316E+02 -0.11652281559E+03  0.21217088661E+03  0.17097854670E+03 0.  0.
         24    2    3    3    0    0 -0.80083717736E+02 -0.13759704218E+02 -0.38900606160E+02  0.11896035426E+03  0.77688978747E+02 0.  0.
         -6    2    1    2    0  502  0.32715652893E+02  0.33688888316E+02  0.16734796365E+03  0.24890850026E+03  0.17817083214E+03 0.  0.
        -24    2    5    5    0    0 -0.34639713479E+02  0.50008874945E+02  0.45342134144E+02  0.10851405673E+03  0.77579598192E+02 0.  0.
          5    1    3    3  501    0  0.47368064842E+02 -0.19929184098E+02 -0.77622209427E+02  0.93210532355E+02  0.47000000000E+01 0. -1.
        -11    1    4    4    0    0  0.47959232191E+01 -0.14199227123E+02 -0.30099667607E+02  0.33624528554E+02  0.00000000000E+00 0.  1.
         12    1    4    4    0    0 -0.84879640955E+02  0.43952290485E+00 -0.88009385535E+01  0.85335825703E+02  0.00000000000E+00 0. -1.
         -5    1    5    5    0  502  0.67355366373E+02 -0.16319986628E+02  0.12200582950E+03  0.14039444354E+03  0.47000000000E+01 0.  1.
         11    1    6    6    0    0 -0.19453575341E+02 -0.18170319086E+02  0.28914141301E+01  0.26776152914E+02  0.00000000000E+00 0. -1.
        -12    1    6    6    0    0 -0.15186138138E+02  0.68179194030E+02  0.42450720014E+02  0.81737903814E+02  0.00000000000E+00 0.  1.
</event>
<event>
12    1  0.8133495E-002  0.3115543E+03  0.7818608E-02  0.1079674E+00
         21   -1    0    0  503  502  0.00000000000E+00  0.00000000000E+00  0.13190983155E+03  0.13190983155E+03  0.00000000000E+00 0.  1.
         21   -1    0    0  501  503 -0.00000000000E+00 -0.00000000000E+00 -0.75658672023E+03  0.75658672023E+03  0.00000000000E+00 0. -1.
          6    2    1    2  501    0  0.25909676422E+03 -0.22294233693E+02 -0.23664111901E+03  0.39123534758E+03  0.17157479974E+03 0.  0.
         24    2    3    3    0    0  0.56553494197E+02  0.13712234832E+02 -0.11628073809E+03  0.15284710689E+03  0.80341178373E+02 0.  0.
         -6    2    1    2    0  502 -0.25909676422E+03  0.22294233693E+02 -0.38803576967E+03  0.49726120421E+03  0.17049569081E+03 0.  0.
        -24    2    5    5    0    0 -0.24018420318E+03 -0.24064467405E+02 -0.28317224232E+03  0.38096303784E+03  0.81723725641E+02 0.  0.
          5    1    3    3  501    0  0.20254327002E+03 -0.36006468525E+02 -0.12036038092E+03  0.23838824069E+03  0.47000000000E+01 0. -1.
        -13    1    4    4    0    0  0.72674710127E+02 -0.41963622065E+01 -0.71732226333E+02  0.10219948749E+03  0.00000000000E+00 0.  1.
         14    1    4    4    0    0 -0.16121215930E+02  0.17908597039E+02 -0.44548511760E+02  0.50647619401E+02  0.00000000000E+00 0. -1.
         -5    1    5    5    0  502 -0.18912561036E+02  0.46358701097E+02 -0.10486352735E+03  0.11629816637E+03  0.47000000000E+01 0.  1.
         11    1    6    6    0    0 -0.16873074676E+03  0.20636227092E+02 -0.17706161294E+03  0.24545210032E+03  0.00000000000E+00 0. -1.
        -12    1    6    6    0    0 -0.71453456418E+02 -0.44700694496E+02 -0.10611062938E+03  0.13551093753E+03  0.00000000000E+00 0.  1.
</event>
<event>
12    1  0.8133495E-002  0.2153509E+03  0.7818608E-02  0.1137582E+00
         21   -1    0    0  501  502  0.00000000000E+00  0.00000000000E+00  0.74738383205E+03  0.74738383205E+03  0.00000000000E+00 0.  1.
         21   -1    0    0  502  503 -0.00000000000E+00 -0.00000000000E+00 -0.62059378190E+02  0.62059378190E+02  0.00000000000E+00 0. -1.
         -6    2    1    2    0  503  0.88902068994E+02 -0.93431128935E+02  0.36932270907E+03  0.42703881568E+03  0.17125984042E+03 0.  0.
        -24    2    3    3    0    0  0.19190779726E+02 -0.67131965545E+01  0.25291579573E+03  0.26594156828E+03  0.79656543833E+02 0.  0.
          6    2    1    2  501    0 -0.88902068994E+02  0.93431128935E+02  0.31600174479E+03  0.38240439455E+03  0.17246177704E+03 0.  0.
         24    2    5    5    0    0 -0.56309742611E+02 -0.10900063123E+02  0.19883321804E+03  0.22209902647E+03  0.80645709584E+02 0.  0.
          5    1    5    5  501    0 -0.32592326383E+02  0.10433119206E+03  0.11716852675E+03  0.16030536808E+03  0.47000000000E+01 0. -1.
        -13    1    6    6    0    0 -0.82304663218E+01  0.13938239065E+02  0.14453429425E+03  0.14543788124E+03  0.00000000000E+00 0.  1.
         14    1    6    6    0    0 -0.48079276289E+02 -0.24838302188E+02  0.54298923792E+02  0.76661145236E+02  0.00000000000E+00 0. -1.
         -5    1    3    3    0  503  0.69711289268E+02 -0.86717932380E+02  0.11640691334E+03  0.16109724740E+03  0.47000000000E+01 0.  1.
         13    1    4    4    0    0  0.13025286977E+02  0.11610036401E+02  0.62724494394E+01  0.18541700786E+02  0.00000000000E+00 0. -1.
        -14    1    4    4    0    0  0.61654927487E+01 -0.18323232956E+02  0.24664334629E+03  0.24739986749E+03  0.00000000000E+00 0.  1.
</event>
<event>
12    1  0.8133495E-002  0.3108968E+03  0.7818608E-02  0.1080090E+00
         21   -1    0    0  501  502  0.00000000000E+00  0.00000000000E+00  0.42169429514E+03  0.42169429514E+03  0.00000000000E+00 0. -1.
         21   -1    0    0  502  503 -0.00000000000E+00 -0.00000000000E+00 -0.22820423099E+03  0.22820423099E+03  0.00000000000E+00 0. -1.
         -6    2    1    2    0  503  0.18924797336E+03 -0.17571633792E+03  0.10178597175E+03  0.32575899862E+03  0.17049197724E+03 0.  0.
        -24    2    3    3    0    0  0.18204678220E+03 -0.14200141007E+03  0.30209857346E+02  0.24617392674E+03  0.79897029688E+02 0.  0.
          6    2    1    2  501    0 -0.18924797336E+03  0.17571633792E+03  0.91704092406E+02  0.32413952751E+03  0.17310622721E+03 0.  0.
         24    2    5    5    0    0 -0.17682164649E+02  0.59501984801E+02  0.50873138029E+02  0.11288172428E+03  0.79379231300E+02 0.  0.
          5    1    5    5  501    0 -0.17156580872E+03  0.11621435312E+03  0.40830954377E+02  0.21125780323E+03  0.47000000000E+01 0. -1.
        -13    1    6    6    0    0  0.50965130959E+01  0.14699776451E+02 -0.20408543650E+02  0.25662551069E+02  0.00000000000E+00 0.  1.
         14    1    6    6    0    0 -0.22778677745E+02  0.44802208350E+02  0.71281681679E+02  0.87219173212E+02  0.00000000000E+00 0. -1.
         -5    1    3    3    0  503  0.72011911662E+01 -0.33714927846E+02  0.71576114401E+02  0.79585071883E+02  0.47000000000E+01 0.  1.
         13    1    4    4    0    0  0.13993809071E+03 -0.79516464400E+02  0.49505270212E+02  0.16839331674E+03  0.00000000000E+00 0. -1.
        -14    1    4    4    0    0  0.42108691485E+02 -0.62484945673E+02 -0.19295412866E+02  0.77780610000E+02  0.00000000000E+00 0.  1.
</event>
<event>
12    1  0.8133495E-002  0.1882682E+03  0.7818608E-02  0.1160159E+00
         21   -1    0    0  503  502  0.00000000000E+00  0.00000000000E+00  0.82855876544E+03  0.82855876544E+03  0.00000000000E+00 0.  1.
         21   -1    0    0  501  503 -0.00000000000E+00 -0.00000000000E+00 -0.90001380892E+02  0.90001380892E+02  0.00000000000E+00 0. -1.
          6    2    1    2  501    0 -0.89615368245E+01  0.76123654977E+02  0.35899717032E+02  0.19111756295E+03  0.17135347442E+03 0.  0.
         24    2    3    3    0    0  0.37216167313E+02 -0.83222656063E+01  0.33799292990E+02  0.94732939466E+02  0.79860092656E+02 0.  0.
         -6    2    1    2    0  502  0.89615368245E+01 -0.76123654977E+02  0.70265766752E+03  0.72744258339E+03  0.17195869973E+03 0.  0.
        -24    2    5    5    0    0  0.65267229828E+02 -0.60219482494E+02  0.34981874628E+03  0.36975463544E+03  0.80368761455E+02 0.  0.
          5    1    3    3  501    0 -0.46177704138E+02  0.84445920584E+02  0.21004240427E+01  0.96384623482E+02  0.47000000000E+01 0. -1.
        -11    1    4    4    0    0  0.34621779997E+02  0.46587738843E+01 -0.19367199524E+02  0.39943212711E+02  0.00000000000E+00 0.  1.
         12    1    4    4    0    0  0.25943873165E+01 -0.12981039491E+02  0.53166492514E+02  0.54789726756E+02  0.00000000000E+00 0. -1.
         -5    1    5    5    0  502 -0.56305693003E+02 -0.15904172483E+02  0.35283892124E+03  0.35768794795E+03  0.47000000000E+01 0.  1.
         13    1    6    6    0    0 -0.75271385158E+01 -0.21104860076E+00  0.95794673521E-01  0.75307059674E+01  0.00000000000E+00 0. -1.
        -14    1    6    6    0    0  0.72794368344E+02 -0.60008433893E+02  0.34972295161E+03  0.36222392947E+03  0.00000000000E+00 0.  1.
</event>
<event>
12    1  0.8133495E-002  0.2229636E+03  0.7818608E-02  0.1132599E+00
         21   -1    0    0  501  502  0.00000000000E+00  0.00000000000E+00  0.68512147706E+02  0.68512147706E+02  0.00000000000E+00 0. -1.
         21   -1    0    0  502  503 -0.00000000000E+00 -0.00000000000E+00 -0.22852643744E+04  0.22852643744E+04  0.00000000000E+00 0. -1.
         -6    2    1    2    0  503 -0.46766529644E+01 -0.13387290041E+03 -0.20817202787E+04  0.20931112636E+04  0.17208026814E+03 0.  0.
        -24    2    3    3    0    0  0.49391902346E+02 -0.79442198937E+02 -0.84456561624E+03  0.85357108326E+03  0.80881957512E+02 0.  0.
          6    2    1    2  501    0  0.46766529644E+01  0.13387290041E+03 -0.13503194800E+03  0.26066525847E+03  0.17823839498E+03 0.  0.
         24    2    5    5    0    0 -0.45416244048E+02  0.10189971019E+03 -0.14535925378E+03  0.20016462651E+03  0.80562887758E+02 0.  0.
          5    1    5    5  501    0  0.50092897012E+02  0.31973190219E+02  0.10327305778E+02  0.60500631968E+02  0.47000000000E+01 0. -1.
        -11    1    6    6    0    0  0.44596825324E+01  0.54306487623E+02 -0.10983910231E+03  0.12261203759E+03  0.00000000000E+00 0.  1.
         12    1    6    6    0    0 -0.49875926580E+02  0.47593222569E+02 -0.35520151470E+02  0.77552588914E+02  0.00000000000E+00 0. -1.
         -5    1    3    3    0  503 -0.54068555310E+02 -0.54430701475E+02 -0.12371546624E+04  0.12395401803E+04  0.47000000000E+01 0.  1.
         13    1    4    4    0    0 -0.68504749035E+01 -0.45660026063E+02 -0.54257018866E+03  0.54453115302E+03  0.00000000000E+00 0. -1.
        -14    1    4    4    0    0  0.56242377249E+02 -0.33782172873E+02 -0.30199542758E+03  0.30903993024E+03  0.00000000000E+00 0.  1.
</event>
<event>
12    1  0.8133495E-002  0.2762577E+03  0.7818608E-02  0.1097847E+00
         21   -1    0    0  501  502  0.00000000000E+00  0.00000000000E+00  0.41506857422E+02  0.41506857422E+02  0.00000000000E+00 0.  1.
         21   -1    0    0  502  503 -0.00000000000E+00 -0.00000000000E+00 -0.18866625928E+04  0.18866625928E+04  0.00000000000E+00 0. -1.
         -6    2    1    2    0  503  0.42591908373E+01 -0.21581923280E+03 -0.76274870904E+03  0.81123604846E+03  0.17240142466E+03 0.  0.
        -24    2    3    3    0    0 -0.44307428190E+02 -0.69389857642E+02 -0.42057991680E+03  0.43586709560E+03  0.79464193632E+02 0.  0.
          6    2    1    2  501    0 -0.42591908373E+01  0.21581923280E+03 -0.10824070263E+04  0.11169334017E+04  0.17128681021E+03 0.  0.
         24    2    5    5    0    0 -0.17861149068E+02  0.20389761042E+03 -0.69035111750E+03  0.72443236482E+03  0.79525653605E+02 0.  0.
          5    1    5    5  501    0  0.13601958231E+02  0.11921622376E+02 -0.39205590879E+03  0.39250103690E+03  0.47000000000E+01 0. -1.
        -13    1    6    6    0    0 -0.70987024794E+01 -0.46517801247E+01 -0.12237290388E+02  0.14892344049E+02  0.00000000000E+00 0.  1.
         14    1    6    6    0    0 -0.10762446589E+02  0.20854939055E+03 -0.67811382711E+03  0.70954002077E+03  0.00000000000E+00 0. -1.
         -5    1    3    3    0  503  0.48566619027E+02 -0.14642937516E+03 -0.34216879224E+03  0.37536895287E+03  0.47000000000E+01 0.  1.
         11    1    4    4    0    0 -0.23079622740E+02 -0.52752666158E+02 -0.39334624465E+03  0.39753840186E+03  0.00000000000E+00 0. -1.
        -12    1    4    4    0    0 -0.21227805449E+02 -0.16637191484E+02 -0.27233672153E+02  0.38328693737E+02  0.00000000000E+00 0.  1.
</event>
<event>
12    1  0.8133495E-002  0.2442387E+03  0.7818608E-02  0.1119428E+00
         21   -1    0    0  501  502  0.00000000000E+00  0.00000000000E+00  0.14815841782E+03  0.14815841782E+03  0.00000000000E+00 0. -1.
         21   -1    0    0  502  503 -0.00000000000E+00 -0.00000000000E+00 -0.38661988424E+03  0.38661988424E+03  0.00000000000E+00 0. -1.
         -6    2    1    2    0  503 -0.11333224020E+03  0.10052466751E+03 -0.15272879378E+03  0.27592966564E+03  0.17280535433E+03 0.  0.
        -24    2    3    3    0    0 -0.10797324888E+01  0.83914892379E+02 -0.66932011964E+02  0.13359313524E+03  0.79525823307E+02 0.  0.
          6    2    1    2  501    0  0.11333224020E+03 -0.10052466751E+03 -0.85732672639E+02  0.25884863642E+03  0.19158058350E+03 0.  0.
         24    2    5    5    0    0  0.41612081242E+02  0.45471458187E+01 -0.94850192599E+02  0.13121993148E+03  0.80435499254E+02 0.  0.
          5    1    5    5  501    0  0.71720158956E+02 -0.10507181333E+03  0.91175199604E+01  0.12762870495E+03  0.47000000000E+01 0. -1.
        -11    1    6    6    0    0 -0.10481752290E+02  0.68541927076E+01 -0.74014231291E+02  0.75066327487E+02  0.00000000000E+00 0.  1.
         12    1    6    6    0    0  0.52093833532E+02 -0.23070468889E+01 -0.20835961308E+02  0.56153603990E+02  0.00000000000E+00 0. -1.
         -5    1    3    3    0  503 -0.11225250771E+03  0.16609775128E+02 -0.85796781818E+02  0.14233653040E+03  0.47000000000E+01 0.  1.
         11    1    4    4    0    0 -0.27362925958E+02 -0.81124325436E-01 -0.19621574963E+02  0.33671092975E+02  0.00000000000E+00 0. -1.
        -12    1    4    4    0    0  0.26283193469E+02  0.83996016705E+02 -0.47310437002E+02  0.99922042266E+02  0.00000000000E+00 0.  1.
</event>
<event>
12    1  0.8133495E-002  0.1947372E+03  0.7818608E-02  0.1154724E+00
         21   -1    0    0  503  502  0.00000000000E+00  0.00000000000E+00  0.61863840781E+02  0.61863840781E+02  0.00000000000E+00 0.  1.
         21   -1    0    0  501  503 -0.00000000000E+00 -0.00000000000E+00 -0.60787352073E+03  0.60787352073E+03  0.00000000000E+00 0.  1.
          6    2    1    2  501    0 -0.78310090426E+02  0.31961533371E+02 -0.29139468154E+03  0.35047600152E+03  0.17540968427E+03 0.  0.
         24    2    3    3    0    0 -0.10090784408E+03  0.33932436368E+02 -0.29810978398E+03  0.32635701461E+03  0.79408150971E+02 0.  0.
         -6    2    1    2    0  502  0.78310090426E+02 -0.31961533371E+02 -0.25461499842E+03  0.31926135999E+03  0.17304626170E+03 0.  0.
        -24    2    5    5    0    0  0.10585200700E+03 -0.67692523987E+02 -0.19876481807E+03  0.24731281238E+03  0.76611024516E+02 0.  0.
          5    1    3    3  501    0  0.22597753657E+02 -0.19709029972E+01  0.67151024461E+01  0.24118986915E+02  0.47000000000E+01 0. -1.
        -13    1    4    4    0    0 -0.72872262935E+02 -0.14083069951E+02 -0.20358104621E+03  0.21668858286E+03  0.00000000000E+00 0.  1.
         14    1    4    4    0    0 -0.28035581149E+02  0.48015506318E+02 -0.94528737771E+02  0.10966843175E+03  0.00000000000E+00 0. -1.
         -5    1    5    5    0  502 -0.27541916569E+02  0.35730990616E+02 -0.55850180345E+02  0.71948547611E+02  0.47000000000E+01 0.  1.
         13    1    6    6    0    0  0.39079578538E+02 -0.67905066134E+02 -0.86634929032E+02  0.11680720181E+03  0.00000000000E+00 0. -1.
        -14    1    6    6    0    0  0.66772428458E+02  0.21254214672E+00 -0.11212988904E+03  0.13050561058E+03  0.00000000000E+00 0.  1.
</event>
<event>
12    1  0.8133495E-002  0.1752495E+03  0.7818608E-02  0.1173040E+00
         21   -1    0    0  501  502  0.00000000000E+00  0.00000000000E+00  0.10700125584E+04  0.10700125584E+04  0.00000000000E+00 0. -1.
         21   -1    0    0  502  503 -0.00000000000E+00 -0.00000000000E+00 -0.29632945059E+02  0.29632945059E+02  0.00000000000E+00 0. -1.
         -6    2    1    2    0  503  0.36604107418E+01  0.35622382731E+02  0.40855356072E+03  0.44455417656E+03  0.17155189056E+03 0.  0.
        -24    2    3    3    0    0  0.29255825530E+02  0.37483458071E+02  0.10639724622E+03  0.14127358494E+03  0.79855737684E+02 0.  0.
          6    2    1    2  501    0 -0.36604107418E+01 -0.35622382731E+02  0.63182605260E+03  0.65509132688E+03  0.16928713199E+03 0.  0.
         24    2    5    5    0    0 -0.52138237426E+02 -0.20084308479E+02  0.22273877471E+03  0.24282197032E+03  0.78918770020E+02 0.  0.
          5    1    5    5  501    0  0.48477826684E+02 -0.15538074252E+02  0.40908727789E+03  0.41226935656E+03  0.47000000000E+01 0. -1.
        -13    1    6    6    0    0 -0.97278886688E+01 -0.41957676962E+02  0.14807491932E+03  0.15421173823E+03  0.00000000000E+00 0.  1.
         14    1    6    6    0    0 -0.42410348757E+02  0.21873368483E+02  0.74663855389E+02  0.88610232096E+02  0.00000000000E+00 0. -1.
         -5    1    3    3    0  503 -0.25595414788E+02 -0.18610753403E+01  0.30215631450E+03  0.30328059162E+03  0.47000000000E+01 0.  1.
         11    1    4    4    0    0 -0.20525712829E+02  0.24015832521E+02  0.12166774534E+02  0.33854032277E+02  0.00000000000E+00 0. -1.
        -12    1    4    4    0    0  0.49781538359E+02  0.13467625550E+02  0.94230471686E+02  0.10741955266E+03  0.00000000000E+00 0.  1.
</event>
<event>
12    1  0.8133495E-002  0.2261223E+03  0.7818608E-02  0.1129579E+00
         21   -1    0    0  501  502  0.00000000000E+00  0.00000000000E+00  0.24955982330E+03  0.24955982330E+03  0.00000000000E+00 0. -1.
         21   -1    0    0  502  503 -0.00000000000E+00 -0.00000000000E+00 -0.28937369936E+03  0.28937369936E+03  0.00000000000E+00 0. -1.
         -6    2    1    2    0  503 -0.12358820543E+03 -0.68347348108E+02 -0.16625619902E+03  0.27986028521E+03  0.17531471988E+03 0.  0.
        -24    2    3    3    0    0 -0.57909602859E+01  0.36442067314E+01 -0.24218157873E+02  0.81729343490E+02  0.77758285428E+02 0.  0.
          6    2    1    2  501    0  0.12358820543E+03  0.68347348108E+02  0.12644232296E+03  0.25907323746E+03  0.17659523441E+03 0.  0.
         24    2    5    5    0    0  0.10696442760E+03  0.99358186509E+02  0.49133792877E+02  0.17400431886E+03  0.80931671073E+02 0.  0.
          5    1    5    5  501    0  0.16623777832E+02 -0.31010838401E+02  0.77308530085E+02  0.85068918600E+02  0.47000000000E+01 0. -1.
        -13    1    6    6    0    0  0.19433436643E+02  0.89276881623E+01 -0.20962021936E+02  0.29946092221E+02  0.00000000000E+00 0.  1.
         14    1    6    6    0    0  0.87530990952E+02  0.90430498346E+02  0.70095814813E+02  0.14405822664E+03  0.00000000000E+00 0. -1.
         -5    1    3    3    0  503 -0.11779724514E+03 -0.71991554839E+02 -0.14203804115E+03  0.19813094172E+03  0.47000000000E+01 0.  1.
         11    1    4    4    0    0  0.13616898758E+02  0.97597805979E+01 -0.47759376171E+02  0.50612560312E+02  0.00000000000E+00 0. -1.
        -12    1    4    4    0    0 -0.19407859044E+02 -0.61155738665E+01  0.23541218298E+02  0.31116783178E+02  0.00000000000E+00 0.  1.
</event>
<event>
12    1  0.8133495E-002  0.1922557E+03  0.7818608E-02  0.1157266E+00
         21   -1    0    0  503  502  0.00000000000E+00  0.00000000000E+00  0.10391272976E+04  0.10391272976E+04  0.00000000000E+00 0. -1.
         21   -1    0    0  501  503 -0.00000000000E+00 -0.00000000000E+00 -0.53962521286E+02  0.53962521286E+02  0.00000000000E+00 0. -1.
          6    2    1    2  501    0 -0.81411690701E+02  0.24630688722E+02  0.17077480613E+03  0.25715035888E+03  0.17241733802E+03 0.  0.
         24    2    3    3    0    0 -0.30489761378E+02  0.80346103905E+02  0.11615986636E+03  0.16386514021E+03  0.77288729207E+02 0.  0.
         -6    2    1    2    0  502  0.81411690701E+02 -0.24630688722E+02  0.81438997020E+03  0.83593946003E+03  0.16831287253E+03 0.  0.
        -24    2    5    5    0    0  0.12024706595E+03 -0.31210027861E+02  0.69063767913E+03  0.70598487712E+03  0.77464960981E+02 0.  0.
          5    1    3    3  501    0 -0.50921929323E+02 -0.55715415182E+02  0.54614939774E+02  0.93285218665E+02  0.47000000000E+01 0. -1.
        -11    1    4    4    0    0 -0.43265240568E+01  0.55139505394E+02  0.11489313207E+03  0.12751280588E+03  0.00000000000E+00 0.  1.
         12    1    4    4    0    0 -0.26163237321E+02  0.25206598511E+02  0.12667342842E+01  0.36352334332E+02  0.00000000000E+00 0. -1.
         -5    1    5    5    0  502 -0.38835375244E+02  0.65793391381E+01  0.12375229107E+03  0.12995458291E+03  0.47000000000E+01 0.  1.
         11    1    6    6    0    0  0.57353069822E+02 -0.50550523083E+02  0.45298575813E+03  0.45939180127E+03  0.00000000000E+00 0. -1.
        -12    1    6    6    0    0  0.62893996123E+02  0.19340495222E+02  0.23765192100E+03  0.24659307585E+03  0.00000000000E+00 0.  1.
</event>
<event>
12    1  0.8133495E-002  0.2071591E+03  0.7818608E-02  0.1143875E+00
         21   -1    0    0  501  502  0.00000000000E+00  0.00000000000E+00  0.48733263805E+03  0.48733263805E+03  0.00000000000E+00 0.  1.
         21   -1    0    0  502  503 -0.00000000000E+00 -0.00000000000E+00 -0.11000223605E+03  0.11000223605E+03  0.00000000000E+00 0.  1.
         -6    2    1    2    0  503  0.11171426192E+03 -0.31039209662E+02  0.32237447090E+03  0.38319732319E+03  0.17167230457E+03 0.  0.
        -24    2    3    3    0    0  0.11670900589E+03 -0.18399322771E+02  0.10815350788E+03  0.16849421374E+03  0.52283760979E+02 0.  0.
          6    2    1    2  501    0 -0.11171426192E+03  0.31039209662E+02  0.54955931094E+02  0.21413755091E+03  0.17143869894E+03 0.  0.
         24    2    5    5    0    0 -0.34277439232E+02 -0.45885857697E+02  0.16726388230E+02  0.98389914030E+02  0.78232655220E+02 0.  0.
          5    1    5    5  501    0 -0.77436822685E+02  0.76925067360E+02  0.38229542864E+02  0.11574763688E+03  0.47000000000E+01 0. -1.
        -11    1    6    6    0    0 -0.39710386467E+02  0.76390030781E+01 -0.42160746948E+01  0.40657649307E+02  0.00000000000E+00 0.  1.
         12    1    6    6    0    0  0.54329472347E+01 -0.53524860775E+02  0.20942462925E+02  0.57732264723E+02  0.00000000000E+00 0. -1.
         -5    1    3    3    0  503 -0.49947439741E+01 -0.12639886891E+02  0.21422096303E+03  0.21470310945E+03  0.47000000000E+01 0.  1.
         11    1    4    4    0    0  0.68441283141E+02 -0.33484722214E+02  0.48632517774E+02  0.90391136981E+02  0.00000000000E+00 0. -1.
        -12    1    4    4    0    0  0.48267722750E+02  0.15085399443E+02  0.59520990103E+02  0.78103076755E+02  0.00000000000E+00 0.  1.
</event>
<event>
12    1  0.8133495E-002  0.2013789E+03  0.7818608E-02  0.1149669E+00
         21   -1    0    0  501  502  0.00000000000E+00  0.00000000000E+00  0.21746857644E+03  0.21746857644E+03  0.00000000000E+00 0.  1.
         21   -1    0    0  502  503 -0.00000000000E+00 -0.00000000000E+00 -0.23909387653E+03  0.23909387653E+03  0.00000000000E+00 0.  1.
         -6    2    1    2    0  503 -0.90356556361E+02 -0.42540291735E+02 -0.12270125073E+03  0.23581573115E+03  0.17486989000E+03 0.  0.
        -24    2    3    3    0    0 -0.81285632456E+02 -0.72245055296E+02 -0.14489465412E+03  0.19735416861E+03  0.78278381545E+02 0.  0.
          6    2    1    2  501    0  0.90356556361E+02  0.42540291735E+02  0.10107595064E+03  0.22074672182E+03  0.16893425851E+03 0.  0.
         24    2    5    5    0    0  0.54960107187E+02  0.19524276474E+02  0.13519739393E+03  0.16625811324E+03  0.77211489686E+02 0.  0.
          5    1    5    5  501    0  0.35396449174E+02  0.23016015262E+02 -0.34121443290E+02  0.54488608579E+02  0.47000000000E+01 0. -1.
        -13    1    6    6    0    0  0.31544584429E+02  0.14757399845E+02  0.65828674847E+01  0.35442570467E+02  0.00000000000E+00 0.  1.
         14    1    6    6    0    0  0.23415522758E+02  0.47668766286E+01  0.12861452645E+03  0.13081554278E+03  0.00000000000E+00 0. -1.
         -5    1    3    3    0  503 -0.90709239057E+01  0.29704763561E+02  0.22193403391E+02  0.38461562537E+02  0.47000000000E+01 0.  1.
         13    1    4    4    0    0 -0.50365905648E+02 -0.41503478183E+01 -0.94528513248E+02  0.10718950348E+03  0.00000000000E+00 0. -1.
        -14    1    4    4    0    0 -0.30919726807E+02 -0.68094707478E+02 -0.50366140868E+02  0.90164665131E+02  0.00000000000E+00 0.  1.
</event>
<event>
12    1  0.8133495E-002  0.3060295E+03  0.7818608E-02  0.1082311E+00
         21   -1    0    0  501  502  0.00000000000E+00  0.00000000000E+00  0.82013373663E+03  0.82013373663E+03  0.00000000000E+00 0. -1.
         21   -1    0    0  502  503 -0.00000000000E+00 -0.00000000000E+00 -0.12765030637E+03  0.12765030637E+03  0.00000000000E+00 0.  1.
         -6    2    1    2    0  503 -0.24468337405E+03 -0.66334958691E+02  0.19176485733E+03  0.36114793630E+03  0.17141700939E+03 0.  0.
        -24    2    3    3    0    0 -0.24213336315E+03 -0.70301119240E+02  0.21257374608E+03  0.33929998821E+03  0.79787665474E+02 0.  0.
          6    2    1    2  501    0  0.24468337405E+03  0.66334958691E+02  0.50071857293E+03  0.58663610670E+03  0.17074118461E+03 0.  0.
         24    2    5    5    0    0  0.17210428934E+03  0.11163097401E+03  0.38795509863E+03  0.44501286116E+03  0.73796526181E+02 0.  0.
          5    1    5    5  501    0  0.72579084708E+02 -0.45296015314E+02  0.11276347430E+03  0.14162324554E+03  0.47000000000E+01 0. -1.
        -11    1    6    6    0    0  0.11895407623E+03  0.53416482032E+02  0.17726952271E+03  0.22006334653E+03  0.00000000000E+00 0.  1.
         12    1    6    6    0    0  0.53150213105E+02  0.58214491973E+02  0.21068557593E+03  0.22494951463E+03  0.00000000000E+00 0. -1.
         -5    1    3    3    0  503 -0.25500108986E+01  0.39661605485E+01 -0.20808888745E+02  0.21847948094E+02  0.47000000000E+01 0.  1.
         13    1    4    4    0    0 -0.15480141242E+02 -0.72225965447E+01  0.51285063268E+02  0.54055142106E+02  0.00000000000E+00 0. -1.
        -14    1    4    4    0    0 -0.22665322191E+03 -0.63078522695E+02  0.16128868281E+03  0.28524484610E+03  0.00000000000E+00 0.  1.
</event>
<event>
12    1  0.8133495E-002  0.1832674E+03  0.7818608E-02  0.1165028E+00
         21   -1    0    0  503  502  0.00000000000E+00  0.00000000000E+00  0.13071783759E+03  0.13071783759E+03  0.00000000000E+00 0. -1.
         21   -1    0    0  501  503 -0.00000000000E+00 -0.00000000000E+00 -0.26058955242E+03  0.26058955242E+03  0.00000000000E+00 0. -1.
          6    2    1    2  501    0 -0.52623091980E+02  0.35658597063E+02 -0.35715387702E+02  0.18526769596E+03  0.17031677807E+03 0.  0.
         24    2    3    3    0    0 -0.23256491990E+02 -0.14433786610E+02 -0.76786411499E+02  0.11398962715E+03  0.79676116191E+02 0.  0.
         -6    2    1    2    0  502  0.52623091980E+02 -0.35658597063E+02 -0.94156327129E+02  0.20603969406E+03  0.17189012839E+03 0.  0.
        -24    2    5    5    0    0  0.22528985904E+02  0.76667239697E+01  0.15178174616E+02  0.84553637517E+02  0.79703241907E+02 0.  0.
          5    1    3    3  501    0 -0.29366599990E+02  0.50092383673E+02  0.41071023797E+02  0.71278068806E+02  0.47000000000E+01 0. -1.
        -11    1    4    4    0    0 -0.88300830727E+00 -0.30084012338E+02  0.24347281982E+01  0.30195287769E+02  0.00000000000E+00 0.  1.
         12    1    4    4    0    0 -0.22373483683E+02  0.15650225728E+02 -0.79221139697E+02  0.83794339381E+02  0.00000000000E+00 0. -1.
         -5    1    5    5    0  502  0.30094106076E+02 -0.43325321032E+02 -0.10933450174E+03  0.12148605654E+03  0.47000000000E+01 0.  1.
         11    1    6    6    0    0  0.32804736680E+02 -0.29801300617E+02  0.86924788879E+01  0.45164449032E+02  0.00000000000E+00 0. -1.
        -12    1    6    6    0    0 -0.10275750776E+02  0.37468024587E+02  0.64856957281E+01  0.39389188485E+02  0.00000000000E+00 0.  1.
</event>
<event>
12    1  0.8133495E-002  0.1857590E+03  0.7818608E-02  0.1162739E+00
         21   -1    0    0  501  502  0.00000000000E+00  0.00000000000E+00  0.30140758381E+03  0.30140758381E+03  0.00000000000E+00 0.  1.
         21   -1    0    0  502  503 -0.00000000000E+00 -0.00000000000E+00 -0.16839395352E+03  0.16839395352E+03  0.00000000000E+00 0.  1.
         -6    2    1    2    0  503  0.26402259140E+02  0.76970029118E+02 -0.67888118663E+02  0.19618148122E+03  0.16509667546E+03 0.  0.
        -24    2    3    3    0    0  0.18670998122E+01 -0.17196310758E+02 -0.40383018162E+02  0.94949598090E+02  0.84175048893E+02 0.  0.
          6    2    1    2  501    0 -0.26402259140E+02 -0.76970029118E+02  0.20090174896E+03  0.27362005611E+03  0.16698789687E+03 0.  0.
         24    2    5    5    0    0  0.33004686058E+02  0.36851756609E+01  0.95426106479E+02  0.12808089178E+03  0.78712662393E+02 0.  0.
          5    1    5    5  501    0 -0.59406945198E+02 -0.80655204779E+02  0.10547564248E+03  0.14553916432E+03  0.47000000000E+01 0. -1.
        -11    1    6    6    0    0  0.10572944843E+02 -0.22743281487E+02  0.89456433522E+02  0.92905852959E+02  0.00000000000E+00 0.  1.
         12    1    6    6    0    0  0.22431741215E+02  0.26428457148E+02  0.59696729565E+01  0.35175038825E+02  0.00000000000E+00 0. -1.
         -5    1    3    3    0  503  0.24535159328E+02  0.94166339876E+02 -0.27505100501E+02  0.10123188313E+03  0.47000000000E+01 0.  1.
         11    1    4    4    0    0  0.15355523333E+02  0.25597259100E+02  0.59660471932E+01  0.30440195291E+02  0.00000000000E+00 0. -1.
        -12    1    4    4    0    0 -0.13488423520E+02 -0.42793569857E+02 -0.46349065355E+02  0.64509402799E+02  0.00000000000E+00 0.  1.
</event>
<event>
12    1  0.8133495E-002  0.2218680E+03  0.7818608E-02  0.1132672E+00
         21   -1    0    0  501  502  0.00000000000E+00  0.00000000000E+00  0.33276985763E+03  0.33276985763E+03  0.00000000000E+00 0. -1.
         21   -1    0    0  502  503 -0.00000000000E+00 -0.00000000000E+00 -0.14929019507E+03  0.14929019507E+03  0.00000000000E+00 0. -1.
         -6    2    1    2    0  503 -0.29592527406E+02 -0.13484197932E+03  0.11977400224E+03  0.25213332998E+03  0.17368744172E+03 0.  0.
        -24    2    3    3    0    0 -0.30991519363E+02 -0.10762742766E+03  0.15510257815E+03  0.20726923213E+03  0.79747021155E+02 0.  0.
          6    2    1    2  501    0  0.29592527406E+02  0.13484197932E+03  0.63705660325E+02  0.22992672271E+03  0.17248133115E+03 0.  0.
         24    2    5    5    0    0  0.69261674070E+02  0.56199093237E+02  0.74405851449E+02  0.14107331074E+03  0.80062042809E+02 0.  0.
          5    1    5    5  501    0 -0.39669146664E+02  0.78642886081E+02 -0.10700191123E+02  0.88853411968E+02  0.47000000000E+01 0. -1.
        -11    1    6    6    0    0  0.77661107778E+02  0.16651548164E+02  0.49378231728E+02  0.93523962096E+02  0.00000000000E+00 0.  1.
         12    1    6    6    0    0 -0.83994337078E+01  0.39547545074E+02  0.25027619721E+02  0.47549348648E+02  0.00000000000E+00 0. -1.
         -5    1    3    3    0  503  0.13989919565E+01 -0.27214551657E+02 -0.35328575909E+02  0.44864097853E+02  0.47000000000E+01 0.  1.
         13    1    4    4    0    0 -0.32734492966E+02 -0.71070888788E+02  0.42872480436E+02  0.89222574731E+02  0.00000000000E+00 0. -1.
        -14    1    4    4    0    0  0.17429736033E+01 -0.36556538874E+02  0.11223009771E+03  0.11804665740E+03  0.00000000000E+00 0.  1.
</event>
<event>
12    1  0.8133495E-002  0.1776201E+03  0.7818608E-02  0.1170267E+00
         21   -1    0    0  501  502  0.00000000000E+00  0.00000000000E+00  0.47345486267E+03  0.47345486267E+03  0.00000000000E+00 0. -1.
         21   -1    0    0  502  503 -0.00000000000E+00 -0.00000000000E+00 -0.10730757889E+03  0.10730757889E+03  0.00000000000E+00 0. -1.
         -6    2    1    2    0  503  0.33495893492E+01 -0.39048834385E+02  0.40132101439E+01  0.17766545240E+03  0.17324224630E+03 0.  0.
        -24    2    3    3    0    0  0.59277378412E+02 -0.33199345103E+02  0.37587282173E+02  0.11200387743E+03  0.80722120088E+02 0.  0.
          6    2    1    2  501    0 -0.33495893492E+01  0.39048834385E+02  0.36213407363E+03  0.40309698916E+03  0.17265591264E+03 0.  0.
         24    2    5    5    0    0  0.45335128520E+02  0.62769534951E+02  0.30955362016E+03  0.32746850593E+03  0.73599525969E+02 0.  0.
          5    1    5    5  501    0 -0.48684717869E+02 -0.23720700566E+02  0.52580453474E+02  0.75628483238E+02  0.47000000000E+01 0. -1.
        -11    1    6    6    0    0  0.40342547573E+02  0.27510751364E+02  0.70392054521E+02  0.85670321144E+02  0.00000000000E+00 0.  1.
         12    1    6    6    0    0  0.49925809474E+01  0.35258783587E+02  0.23916156564E+03  0.24179818478E+03  0.00000000000E+00 0. -1.
         -5    1    3    3    0  503 -0.55927789062E+02 -0.58494892824E+01 -0.33574072030E+02  0.65661574965E+02  0.47000000000E+01 0.  1.
         11    1    4    4    0    0  0.76890114649E+01 -0.10125848701E+02 -0.24773481391E+02  0.27845629630E+02  0.00000000000E+00 0. -1.
        -12    1    4    4    0    0  0.51588366947E+02 -0.23073496402E+02  0.62360763565E+02  0.84158247800E+02  0.00000000000E+00 0.  1.
</event>
<event>
12    1  0.8133495E-002  0.1958007E+03  0.7818608E-02  0.1153697E+00
         21   -1    0    0  501  502  0.00000000000E+00  0.00000000000E+00  0.46903976744E+03  0.46903976744E+03  0.00000000000E+00 0.  1.
         21   -1    0    0  502  503 -0.00000000000E+00 -0.00000000000E+00 -0.92831414820E+02  0.92831414820E+02  0.00000000000E+00 0.  1.
         -6    2    1    2    0  503  0.46817604124E+01 -0.92310588116E+02  0.88674590357E+02  0.21494438496E+03  0.17261153522E+03 0.  0.
        -24    2    3    3    0    0 -0.59685488299E+02 -0.46638585348E+02  0.24071879377E+02  0.11284308815E+03  0.80103632942E+02 0.  0.
          6    2    1    2  501    0 -0.46817604124E+01  0.92310588116E+02  0.28753376226E+03  0.34692679730E+03  0.17070259132E+03 0.  0.
         24    2    5    5    0    0 -0.14008632250E+02  0.44139437948E+02  0.49899983917E+02  0.10423490857E+03  0.78932730910E+02 0.  0.
          5    1    5    5  501    0  0.93268718375E+01  0.48171150168E+02  0.23763377834E+03  0.24269188873E+03  0.47000000000E+01 0. -1.
        -13    1    6    6    0    0 -0.15591817938E+02  0.58213068611E+02  0.61368423763E+02  0.86011334014E+02  0.00000000000E+00 0.  1.
         14    1    6    6    0    0  0.15831856882E+01 -0.14073630662E+02 -0.11468439846E+02  0.18223574552E+02  0.00000000000E+00 0. -1.
         -5    1    3    3    0  503  0.64367248711E+02 -0.45672002768E+02  0.64602710980E+02  0.10210129681E+03  0.47000000000E+01 0.  1.
         13    1    4    4    0    0 -0.14184303998E+02 -0.29228168691E+02  0.48474706769E+02  0.58354755772E+02  0.00000000000E+00 0. -1.
        -14    1    4    4    0    0 -0.45501184301E+02 -0.17410416657E+02 -0.24402827392E+02  0.54488332381E+02  0.00000000000E+00 0.  1.
</event>
<event>
12    1  0.8133495E-002  0.1892045E+03  0.7818608E-02  0.1159329E+00
         21   -1    0    0  501  502  0.00000000000E+00  0.00000000000E+00  0.24875588259E+03  0.24875588259E+03  0.00000000000E+00 0. -1.
         21   -1    0    0  502  503 -0.00000000000E+00 -0.00000000000E+00 -0.22168099198E+03  0.22168099198E+03  0.00000000000E+00 0. -1.
         -6    2    1    2    0  503 -0.24906417828E+02 -0.72815148492E+02 -0.12621275149E+03  0.22743794682E+03  0.17284671103E+03 0.  0.
        -24    2    3    3    0    0 -0.54270593418E+02 -0.13117740477E+02 -0.12777720657E+03  0.16072533293E+03  0.79926501874E+02 0.  0.
          6    2    1    2  501    0  0.24906417828E+02  0.72815148492E+02  0.15328764210E+03  0.24299892775E+03  0.17213077054E+03 0.  0.
         24    2    5    5    0    0  0.52527322041E+01  0.18346878075E+02  0.16432363480E+03  0.18386397213E+03  0.80246521207E+02 0.  0.
          5    1    5    5  501    0  0.19653685624E+02  0.54468270417E+02 -0.11035992693E+02  0.59134955615E+02  0.47000000000E+01 0. -1.
        -13    1    6    6    0    0  0.96433299807E+01  0.23531924182E+02  0.69772349858E+01  0.26370951384E+02  0.00000000000E+00 0.  1.
         14    1    6    6    0    0 -0.43905977766E+01 -0.51850461073E+01  0.15734639981E+03  0.15749302075E+03  0.00000000000E+00 0. -1.
         -5    1    3    3    0  503  0.29364175590E+02 -0.59697408014E+02  0.15644550829E+01  0.66712613885E+02  0.47000000000E+01 0.  1.
         13    1    4    4    0    0 -0.31856026261E+02 -0.20631898389E+02 -0.13143353115E+03  0.13680370884E+03  0.00000000000E+00 0. -1.
        -14    1    4    4    0    0 -0.22414567157E+02  0.75141579116E+01  0.36563245802E+01  0.23921624096E+02  0.00000000000E+00 0.  1.
</event>
<event>
12    1  0.8133495E-002  0.2007566E+03  0.7818608E-02  0.1149922E+00
         21   -1    0    0  503  502  0.00000000000E+00  0.00000000000E+00  0.19858946493E+03  0.19858946493E+03  0.00000000000E+00 0.  1.
         21   -1    0    0  501  503 -0.00000000000E+00 -0.00000000000E+00 -0.20042801396E+03  0.20042801396E+03  0.00000000000E+00 0.  1.
          6    2    1    2  501    0  0.66887459358E+02 -0.68350042338E+02  0.15575567130E+02  0.19750698279E+03  0.17210679665E+03 0.  0.
         24    2    3    3    0    0 -0.20790774747E+02 -0.30141027829E+02  0.30610210344E+02  0.10057643022E+03  0.88531889534E+02 0.  0.
         -6    2    1    2    0  502 -0.66887459358E+02  0.68350042338E+02 -0.17414116163E+02  0.20151049611E+03  0.17651506477E+03 0.  0.
        -24    2    5    5    0    0  0.25223827965E+01  0.76729801504E+02 -0.53980661211E+02  0.12247158943E+03  0.78686425635E+02 0.  0.
          5    1    3    3  501    0  0.87678234105E+02 -0.38209014508E+02 -0.15034643214E+02  0.96930552573E+02  0.47000000000E+01 0. -1.
        -11    1    4    4    0    0  0.10882279367E+02 -0.34816533164E+02 -0.19308601815E+02  0.41272716046E+02  0.00000000000E+00 0.  1.
         12    1    4    4    0    0 -0.31673054114E+02  0.46755053344E+01  0.49918812159E+02  0.59303714170E+02  0.00000000000E+00 0. -1.
         -5    1    5    5    0  502 -0.69409842155E+02 -0.83797591667E+01  0.36566545047E+02  0.79038906675E+02  0.47000000000E+01 0.  1.
         13    1    6    6    0    0 -0.25462778134E+01 -0.12715116258E+02 -0.25256468023E+02  0.28390964921E+02  0.00000000000E+00 0. -1.
        -14    1    6    6    0    0  0.50686606100E+01  0.89444917762E+02 -0.28724193188E+02  0.94080624510E+02  0.00000000000E+00 0.  1.
</event>
<event>
12    1  0.8133495E-002  0.1932433E+03  0.7818608E-02  0.1155744E+00
         21   -1    0    0  501  502  0.00000000000E+00  0.00000000000E+00  0.88843674265E+02  0.88843674265E+02  0.00000000000E+00 0. -1.
         21   -1    0    0  502  503 -0.00000000000E+00 -0.00000000000E+00 -0.43021959480E+03  0.43021959480E+03  0.00000000000E+00 0.  1.
         -6    2    1    2    0  503 -0.64873512276E+02  0.57963379476E+02 -0.21300632981E+03  0.28706819945E+03  0.17166283419E+03 0.  0.
        -24    2    3    3    0    0 -0.98548556626E+02  0.38217023404E+02 -0.21132728101E+03  0.24771294066E+03  0.74364792617E+02 0.  0.
          6    2    1    2  501    0  0.64873512276E+02 -0.57963379476E+02 -0.12836959073E+03  0.23199506961E+03  0.17255328031E+03 0.  0.
         24    2    5    5    0    0  0.10905244153E+03 -0.46932565247E+02 -0.11843591112E+03  0.18515251799E+03  0.78481139075E+02 0.  0.
          5    1    5    5  501    0 -0.44178929250E+02 -0.11030814230E+02 -0.99336796054E+01  0.46842551625E+02  0.47000000000E+01 0. -1.
        -13    1    6    6    0    0  0.76106748229E+02 -0.63945229203E+02 -0.10767424298E+03  0.14654341358E+03  0.00000000000E+00 0.  1.
         14    1    6    6    0    0  0.32945693298E+02  0.17012663956E+02 -0.10761668146E+02  0.38609104406E+02  0.00000000000E+00 0. -1.
         -5    1    3    3    0  503  0.33675044349E+02  0.19746356072E+02 -0.16790488036E+01  0.39355258796E+02  0.47000000000E+01 0.  1.
         11    1    4    4    0    0 -0.82053176586E+02 -0.52070670196E+01 -0.14592646721E+03  0.16749439145E+03  0.00000000000E+00 0. -1.
        -12    1    4    4    0    0 -0.16495380040E+02  0.43424090424E+02 -0.65400813793E+02  0.80218549205E+02  0.00000000000E+00 0.  1.
</event>
<event>
12    1  0.8133495E-002  0.1760451E+03  0.7818608E-02  0.1172717E+00
         21   -1    0    0  501  502  0.00000000000E+00  0.00000000000E+00  0.85810498062E+03  0.85810498062E+03  0.00000000000E+00 0.  1.
         21   -1    0    0  502  503 -0.00000000000E+00 -0.00000000000E+00 -0.53392724898E+02  0.53392724898E+02  0.00000000000E+00 0.  1.
         -6    2    1    2    0  503 -0.19949553606E+02 -0.26260614554E+02  0.14006695557E+03  0.22496805986E+03  0.17292851514E+03 0.  0.
        -24    2    3    3    0    0  0.20189324139E+02  0.37790306856E+02  0.11015793730E+03  0.14354147075E+03  0.81447323924E+02 0.  0.
          6    2    1    2  501    0  0.19949553606E+02  0.26260614554E+02  0.66464530014E+03  0.68652964565E+03  0.16876603565E+03 0.  0.
         24    2    5    5    0    0  0.49713219402E+02  0.36478235563E+01  0.62448922993E+03  0.63146773419E+03  0.79246389371E+02 0.  0.
          5    1    5    5  501    0 -0.29763665796E+02  0.22612790997E+02  0.40156070213E+02  0.55061911457E+02  0.47000000000E+01 0. -1.
        -11    1    6    6    0    0 -0.52642198496E+01  0.23619066825E+02  0.73467912928E+02  0.77350543361E+02  0.00000000000E+00 0.  1.
         12    1    6    6    0    0  0.54977439252E+02 -0.19971243269E+02  0.55102131700E+03  0.55411719083E+03  0.00000000000E+00 0. -1.
         -5    1    3    3    0  503 -0.40138877745E+02 -0.64050921410E+02  0.29909018274E+02  0.81426589111E+02  0.47000000000E+01 0.  1.
         11    1    4    4    0    0  0.30217306180E+02  0.28478982248E+02  0.11980625479E+03  0.12679777880E+03  0.00000000000E+00 0. -1.
        -12    1    4    4    0    0 -0.10027982041E+02  0.93113246086E+01 -0.96483174890E+01  0.16743691951E+02  0.00000000000E+00 0.  1.
</event>
<event>
12    1  0.8133495E-002  0.2130753E+03  0.7818608E-02  0.1139300E+00
         21   -1    0    0  501  502  0.00000000000E+00  0.00000000000E+00  0.22198177752E+03  0.22198177752E+03  0.00000000000E+00 0. -1.
         21   -1    0    0  502  503 -0.00000000000E+00 -0.00000000000E+00 -0.20395734394E+03  0.20395734394E+03  0.00000000000E+00 0.  1.
         -6    2    1    2    0  503  0.72528412611E+02 -0.10136653868E+03  0.14897282730E+02  0.21359542982E+03  0.17281647146E+03 0.  0.
        -24    2    3    3    0    0 -0.35352485310E+02 -0.21444764769E+02  0.21176477561E+02  0.79106410310E+02  0.64028937182E+02 0.  0.
          6    2    1    2  501    0 -0.72528412611E+02  0.10136653868E+03  0.31271508527E+01  0.21234369163E+03  0.17188518989E+03 0.  0.
         24    2    5    5    0    0 -0.39007218447E+02  0.72523414240E+02 -0.63956022399E+02  0.13185867179E+03  0.80716341724E+02 0.  0.
          5    1    5    5  501    0 -0.33521194164E+02  0.28843124439E+02  0.67083173251E+02  0.80485019843E+02  0.47000000000E+01 0. -1.
        -13    1    6    6    0    0  0.21404697162E+02  0.35036201463E+02 -0.38662372334E+02  0.56395704695E+02  0.00000000000E+00 0.  1.
         14    1    6    6    0    0 -0.60411915609E+02  0.37487212777E+02 -0.25293650065E+02  0.75462967096E+02  0.00000000000E+00 0. -1.
         -5    1    3    3    0  503  0.10788089792E+03 -0.79921773910E+02 -0.62791948308E+01  0.13448901951E+03  0.47000000000E+01 0.  1.
         13    1    4    4    0    0 -0.18676600163E+02 -0.36307321667E+01  0.42586818299E+02  0.46643699494E+02  0.00000000000E+00 0. -1.
        -14    1    4    4    0    0 -0.16675885148E+02 -0.17814032603E+02 -0.21410340738E+02  0.32462710816E+02  0.00000000000E+00 0.  1.
</event>
<event>
12    1  0.8133495E-002  0.2928532E+03  0.7818608E-02  0.1089070E+00
         21   -1    0    0  503  502  0.00000000000E+00  0.00000000000E+00  0.54079793751E+03  0.54079793751E+03  0.00000000000E+00 0. -1.
         21   -1    0    0  501  503 -0.00000000000E+00 -0.00000000000E+00 -0.17279977748E+03  0.17279977748E+03  0.00000000000E+00 0.  1.
          6    2    1    2  501    0 -0.23703032990E+03 -0.83379667095E+01  0.79132339488E+02  0.30335613258E+03  0.17178508969E+03 0.  0.
         24    2    3    3    0    0 -0.17357727499E+03 -0.64892588220E+02  0.31219832051E+02  0.20567085344E+03  0.83580521909E+02 0.  0.
         -6    2    1    2    0  502  0.23703032990E+03  0.83379667095E+01  0.28886582054E+03  0.41024158242E+03  0.16912065126E+03 0.  0.
        -24    2    5    5    0    0  0.15514626412E+03  0.22763255745E+02  0.95209064818E+02  0.19943807620E+03  0.78244815389E+02 0.  0.
          5    1    3    3  501    0 -0.63453054907E+02  0.56554621510E+02  0.47912507436E+02  0.97685279136E+02  0.47000000000E+01 0. -1.
        -11    1    4    4    0    0 -0.16524302272E+03 -0.30682689257E+02  0.25055911027E+02  0.16992493241E+03  0.00000000000E+00 0.  1.
         12    1    4    4    0    0 -0.83342522732E+01 -0.34209898962E+02  0.61639210242E+01  0.35745921031E+02  0.00000000000E+00 0. -1.
         -5    1    5    5    0  502  0.81884065785E+02 -0.14425289036E+02  0.19365675572E+03  0.21080350621E+03  0.47000000000E+01 0.  1.
         11    1    6    6    0    0  0.53212341740E+02 -0.14911839595E+02  0.67597344194E+02  0.87311609856E+02  0.00000000000E+00 0. -1.
        -12    1    6    6    0    0  0.10193392238E+03  0.37675095340E+02  0.27611720624E+02  0.11212646635E+03  0.00000000000E+00 0.  1.
</event>
<event>
12    1  0.8133495E-002  0.1855137E+03  0.7818608E-02  0.1162707E+00
         21   -1    0    0  501  502  0.00000000000E+00  0.00000000000E+00  0.46276825201E+02  0.46276825201E+02  0.00000000000E+00 0. -1.
         21   -1    0    0  502  503 -0.00000000000E+00 -0.00000000000E+00 -0.10390096318E+04  0.10390096318E+04  0.00000000000E+00 0.  1.
         -6    2    1    2    0  503  0.70599944506E+02 -0.32984657431E+01 -0.78625532796E+03  0.80771074660E+03  0.17089171247E+03 0.  0.
        -24    2    3    3    0    0  0.87765847485E+02 -0.10804665130E+02 -0.32589028454E+03  0.34694065810E+03  0.79647711283E+02 0.  0.
          6    2    1    2  501    0 -0.70599944506E+02  0.32984657431E+01 -0.20647747863E+03  0.27757571039E+03  0.17152286663E+03 0.  0.
         24    2    5    5    0    0  0.27680596564E+01 -0.34579166577E+02 -0.16335604744E+03  0.18430660032E+03  0.77976559118E+02 0.  0.
          5    1    5    5  501    0 -0.73368004163E+02  0.37877632320E+02 -0.43121431191E+02  0.93269110069E+02  0.47000000000E+01 0. -1.
        -11    1    6    6    0    0 -0.51289643995E+01  0.16799437152E+02 -0.10371398708E+03  0.10519086690E+03  0.00000000000E+00 0.  1.
         12    1    6    6    0    0  0.78970240559E+01 -0.51378603729E+02 -0.59642060358E+02  0.79115733415E+02  0.00000000000E+00 0. -1.
         -5    1    3    3    0  503 -0.17165902979E+02  0.75061993874E+01 -0.46036504342E+03  0.46077008850E+03  0.47000000000E+01 0.  1.
         11    1    4    4    0    0  0.33676809568E+02  0.26501415645E+02 -0.20415960046E+03  0.20860871265E+03  0.00000000000E+00 0. -1.
        -12    1    4    4    0    0  0.54089037917E+02 -0.37306080775E+02 -0.12173068409E+03  0.13833194546E+03  0.00000000000E+00 0.  1.
</event>
<event>
12    1  0.8133495E-002  0.1917555E+03  0.7818608E-02  0.1158747E+00
         21   -1    0    0  501  502  0.00000000000E+00  0.00000000000E+00  0.49063041421E+02  0.49063041421E+02  0.00000000000E+00 0. -1.
         21   -1    0    0  502  503 -0.00000000000E+00 -0.00000000000E+00 -0.74348644732E+03  0.74348644732E+03  0.00000000000E+00 0. -1.
         -6    2    1    2    0  503 -0.13391245254E+02  0.64024530474E+02 -0.26645118361E+03  0.32358211955E+03  0.17155374928E+03 0.  0.
        -24    2    3    3    0    0  0.52411688684E+02  0.86161513521E+01 -0.12595240820E+03  0.15877280403E+03  0.80768626284E+02 0.  0.
          6    2    1    2  501    0  0.13391245254E+02 -0.64024530474E+02 -0.42797222229E+03  0.46896736919E+03  0.18025455435E+03 0.  0.
         24    2    5    5    0    0  0.83837672669E+01  0.20030715907E+02 -0.99901598911E+02  0.13023032781E+03  0.80672744366E+02 0.  0.
          5    1    5    5  501    0  0.50074779871E+01 -0.84055246380E+02 -0.32807062338E+03  0.33873704138E+03  0.47000000000E+01 0. -1.
        -13    1    6    6    0    0  0.13693008447E+02 -0.48421508718E+01  0.98639296870E+01  0.17556822442E+02  0.00000000000E+00 0.  1.
         14    1    6    6    0    0 -0.53092411804E+01  0.24872866778E+02 -0.10976552860E+03  0.11267350537E+03  0.00000000000E+00 0. -1.
         -5    1    3    3    0  503 -0.65802933938E+02  0.55408379122E+02 -0.14049877541E+03  0.16480931552E+03  0.47000000000E+01 0.  1.
         13    1    4    4    0    0  0.19883297432E+02  0.36082963489E+02 -0.22588993802E+02  0.46984980706E+02  0.00000000000E+00 0. -1.
        -14    1    4    4    0    0  0.32528391252E+02 -0.27466812137E+02 -0.10336341440E+03  0.11178782332E+03  0.00000000000E+00 0.  1.
</event>
<event>
12    1  0.8133495E-002  0.2078608E+03  0.7818608E-02  0.1143730E+00
         21   -1    0    0  501  502  0.00000000000E+00  0.00000000000E+00  0.40089280934E+03  0.40089280934E+03  0.00000000000E+00 0. -1.
         21   -1    0    0  502  503 -0.00000000000E+00 -0.00000000000E+00 -0.21360547444E+03  0.21360547444E+03  0.00000000000E+00 0. -1.
         -6    2    1    2    0  503 -0.47846867758E+02 -0.10631533524E+03 -0.12356284540E+03  0.24181376923E+03  0.17208674837E+03 0.  0.
        -24    2    3    3    0    0  0.11565510778E+02 -0.55866668829E+02 -0.12995598084E+03  0.16346926816E+03  0.81109795649E+02 0.  0.
          6    2    1    2  501    0  0.47846867758E+02  0.10631533524E+03  0.31085018030E+03  0.37268451456E+03  0.16933292515E+03 0.  0.
         24    2    5    5    0    0  0.92181046041E+02  0.88384944796E+02  0.26982895255E+03  0.30950343043E+03  0.81703525627E+02 0.  0.
          5    1    5    5  501    0 -0.44334178283E+02  0.17930390448E+02  0.41021227747E+02  0.63181084128E+02  0.47000000000E+01 0. -1.
        -11    1    6    6    0    0 -0.12280642817E+02  0.27038784764E+02  0.41546851535E+02  0.51069080097E+02  0.00000000000E+00 0.  1.
         12    1    6    6    0    0  0.10446168886E+03  0.61346160032E+02  0.22828210101E+03  0.25843435034E+03  0.00000000000E+00 0. -1.
         -5    1    3    3    0  503 -0.59412378536E+02 -0.50448666415E+02  0.63931354486E+01  0.78344501066E+02  0.47000000000E+01 0. -1.
         13    1    4    4    0    0 -0.20769983461E+02 -0.55703673079E+02 -0.51662503641E+02  0.78761067095E+02  0.00000000000E+00 0. -1.
        -14    1    4    4    0    0  0.32335494239E+02 -0.16299575035E+00 -0.78293477203E+02  0.84708201066E+02  0.00000000000E+00 0.  1.
</event>
<event>
12    1  0.8133495E-002  0.1972939E+03  0.7818608E-02  0.1152123E+00
         21   -1    0    0  501  502  0.00000000000E+00  0.00000000000E+00  0.44462760797E+02  0.44462760797E+02  0.00000000000E+00 0. -1.
         21   -1    0    0  502  503 -0.00000000000E+00 -0.00000000000E+00 -0.87779478563E+03  0.87779478563E+03  0.00000000000E+00 0. -1.
         -6    2    1    2    0  503  0.56786220550E+02  0.75924606271E+02 -0.38507505403E+03  0.43250334436E+03  0.17258946945E+03 0.  0.
        -24    2    3    3    0    0  0.10575821283E+03  0.49346096793E+02 -0.28547956489E+03  0.31828414873E+03  0.78653547366E+02 0.  0.
          6    2    1    2  501    0 -0.56786220550E+02 -0.75924606271E+02 -0.44825697080E+03  0.48975420207E+03  0.17301920670E+03 0.  0.
         24    2    5    5    0    0  0.35148939873E+02 -0.58202674026E+02 -0.23840569331E+03  0.25991558636E+03  0.78075848973E+02 0.  0.
          5    1    5    5  501    0 -0.91935160424E+02 -0.17721932245E+02 -0.20985127749E+03  0.22983861570E+03  0.47000000000E+01 0. -1.
        -13    1    6    6    0    0  0.33336425176E+02 -0.45329338304E+02 -0.64785057733E+02  0.85808914805E+02  0.00000000000E+00 0.  1.
         14    1    6    6    0    0  0.18125146974E+01 -0.12873335723E+02 -0.17362063558E+03  0.17410667156E+03  0.00000000000E+00 0. -1.
         -5    1    3    3    0  503 -0.48971992276E+02  0.26578509477E+02 -0.99595489138E+02  0.11421919563E+03  0.47000000000E+01 0.  1.
         13    1    4    4    0    0  0.93997143433E+02  0.22589820147E+02 -0.14151890699E+03  0.17138659219E+03  0.00000000000E+00 0. -1.
        -14    1    4    4    0    0  0.11761069394E+02  0.26756276646E+02 -0.14396065790E+03  0.14689755654E+03  0.00000000000E+00 0.  1.
</event>
<event>
12    1  0.8133495E-002  0.1761521E+03  0.7818608E-02  0.1175647E+00
         21   -1    0    0  501  502  0.00000000000E+00  0.00000000000E+00  0.74596664553E+03  0.74596664553E+03  0.00000000000E+00 0. -1.
         21   -1    0    0  502  503 -0.00000000000E+00 -0.00000000000E+00 -0.11568826630E+03  0.11568826630E+03  0.00000000000E+00 0. -1.
         -6    2    1    2    0  503 -0.82052768840E+01  0.33829485176E+02 -0.42557820420E+02  0.16614207256E+03  0.15678092856E+03 0.  0.
        -24    2    3    3    0    0 -0.48925323073E+02  0.75403703911E+01 -0.62254266590E+02  0.11361322611E+03  0.81128459960E+02 0.  0.
          6    2    1    2  501    0  0.82052768840E+01 -0.33829485176E+02  0.67283619965E+03  0.69551283926E+03  0.17267830607E+03 0.  0.
         24    2    5    5    0    0  0.52214836304E+02  0.10621084304E+02  0.24442869651E+03  0.26253735128E+03  0.79632132828E+02 0.  0.
          5    1    5    5  501    0 -0.44009559420E+02 -0.44450569480E+02  0.42840750314E+03  0.43297548798E+03  0.47000000000E+01 0. -1.
        -11    1    6    6    0    0  0.56731858002E+02 -0.23484820916E+02  0.15850208505E+03  0.16997926783E+03  0.00000000000E+00 0.  1.
         12    1    6    6    0    0 -0.45170216978E+01  0.34105905220E+02  0.85926611455E+02  0.92558083451E+02  0.00000000000E+00 0. -1.
         -5    1    3    3    0  503  0.40720046189E+02  0.26289114785E+02  0.19696446170E+02  0.52528846452E+02  0.47000000000E+01 0.  1.
         11    1    4    4    0    0 -0.28675308784E+02  0.35389753490E+02 -0.37180106487E+01  0.45700455021E+02  0.00000000000E+00 0. -1.
        -12    1    4    4    0    0 -0.20250014289E+02 -0.27849383099E+02 -0.58536255941E+02  0.67912771091E+02  0.00000000000E+00 0.  1.
</event>
<event>
12    1  0.8133495E-002  0.2195099E+03  0.7818608E-02  0.1135146E+00
         21   -1    0    0  503  502  0.00000000000E+00  0.00000000000E+00  0.37388992668E+03  0.37388992668E+03  0.00000000000E+00 0. -1.
         21   -1    0    0  501  503 -0.00000000000E+00 -0.00000000000E+00 -0.24800155352E+03  0.24800155352E+03  0.00000000000E+00 0. -1.
          6    2    1    2  501    0 -0.12868537454E+03  0.94854844285E+01 -0.15469874518E+03  0.26854480897E+03  0.17758015832E+03 0.  0.
         24    2    3    3    0    0 -0.10825201777E+03 -0.53491402524E+02 -0.13780676283E+03  0.20005364584E+03  0.80317668274E+02 0.  0.
         -6    2    1    2    0  502  0.12868537454E+03 -0.94854844285E+01  0.28058711833E+03  0.35334667123E+03  0.17168237842E+03 0.  0.
        -24    2    5    5    0    0  0.15480711449E+03 -0.10223657582E+02  0.18963499410E+03  0.25859821953E+03  0.82715429550E+02 0.  0.
          5    1    3    3  501    0 -0.20433356771E+02  0.62976886952E+02 -0.16891982343E+02  0.68491163128E+02  0.47000000000E+01 0. -1.
        -13    1    4    4    0    0 -0.43653670840E+02 -0.59447703677E+02 -0.43619915098E+02  0.85687627132E+02  0.00000000000E+00 0.  1.
         14    1    4    4    0    0 -0.64598346929E+02  0.59563011530E+01 -0.94186847735E+02  0.11436601871E+03  0.00000000000E+00 0. -1.
         -5    1    5    5    0  502 -0.26121739947E+02  0.73817315358E+00  0.90952124228E+02  0.94748451697E+02  0.47000000000E+01 0.  1.
         11    1    6    6    0    0  0.56991065509E+02 -0.23715539718E+01  0.13436978429E+03  0.14597549365E+03  0.00000000000E+00 0. -1.
        -12    1    6    6    0    0  0.97816048978E+02 -0.78521036103E+01  0.55265209810E+02  0.11262272588E+03  0.00000000000E+00 0.  1.
</event>
<event>
12    1  0.8133495E-002  0.2834910E+03  0.7818608E-02  0.1094530E+00
         21   -1    0    0  503  502  0.00000000000E+00  0.00000000000E+00  0.31049308347E+03  0.31049308347E+03  0.00000000000E+00 0.  1.
         21   -1    0    0  501  503 -0.00000000000E+00 -0.00000000000E+00 -0.30455130703E+03  0.30455130703E+03  0.00000000000E+00 0.  1.
          6    2    1    2  501    0  0.20532695683E+03 -0.75519459653E+02 -0.12241612573E+03  0.30384848965E+03  0.17168531922E+03 0.  0.
         24    2    3    3    0    0  0.11350187197E+03 -0.34234834249E+02 -0.14169398231E+03  0.20123273912E+03  0.79766733999E+02 0.  0.
         -6    2    1    2    0  502 -0.20532695683E+03  0.75519459653E+02  0.12835790217E+03  0.31119590084E+03  0.18029084743E+03 0.  0.
        -24    2    5    5    0    0 -0.40554243145E+02  0.43016112009E+02  0.10143791876E+03  0.14103923688E+03  0.78149743758E+02 0.  0.
          5    1    3    3  501    0  0.91825084858E+02 -0.41284625404E+02  0.19277856573E+02  0.10261575054E+03  0.47000000000E+01 0. -1.
        -11    1    4    4    0    0  0.58633852606E+02 -0.54371067513E+02 -0.56469101431E+02  0.97892293212E+02  0.00000000000E+00 0.  1.
         12    1    4    4    0    0  0.54868019366E+02  0.20136233264E+02 -0.85224880877E+02  0.10334044590E+03  0.00000000000E+00 0. -1.
         -5    1    5    5    0  502 -0.16477271369E+03  0.32503347644E+02  0.26919983414E+02  0.17015666396E+03  0.47000000000E+01 0.  1.
         13    1    6    6    0    0 -0.38850242268E+01 -0.18210009381E+02  0.49174683986E+02  0.52581816249E+02  0.00000000000E+00 0. -1.
        -14    1    6    6    0    0 -0.36669218918E+02  0.61226121390E+02  0.52263234771E+02  0.88457420634E+02  0.00000000000E+00 0.  1.
</event>
<event>
12    1  0.8133495E-002  0.1751946E+03  0.7818608E-02  0.1174044E+00
         21   -1    0    0  501  502  0.00000000000E+00  0.00000000000E+00  0.64620763015E+03  0.64620763015E+03  0.00000000000E+00 0.  1.
         21   -1    0    0  502  503 -0.00000000000E+00 -0.00000000000E+00 -0.46744996747E+02  0.46744996747E+02  0.00000000000E+00 0.  1.
         -6    2    1    2    0  503  0.27344514776E+02  0.23901942811E+02  0.35107774751E+03  0.39236301807E+03  0.17138882052E+03 0.  0.
        -24    2    3    3    0    0 -0.10777809293E+02  0.74817645468E+02  0.23078493501E+03  0.25620806551E+03  0.81651977060E+02 0.  0.
          6    2    1    2  501    0 -0.27344514776E+02 -0.23901942811E+02  0.24838488590E+03  0.30058960883E+03  0.16534822658E+03 0.  0.
         24    2    5    5    0    0 -0.31277089741E+02  0.84316859260E+01  0.51101078423E+02  0.10057981060E+03  0.80346925361E+02 0.  0.
          5    1    5    5  501    0  0.39325749652E+01 -0.32333628737E+02  0.19728380748E+03  0.20000979822E+03  0.47000000000E+01 0. -1.
        -11    1    6    6    0    0 -0.27749609276E+02 -0.33615754491E+02  0.32969796701E+02  0.54654069011E+02  0.00000000000E+00 0.  1.
         12    1    6    6    0    0 -0.35274804654E+01  0.42047440417E+02  0.18131281722E+02  0.45925741594E+02  0.00000000000E+00 0. -1.
         -5    1    3    3    0  503  0.38122324068E+02 -0.50915702657E+02  0.12029281250E+03  0.13615495257E+03  0.47000000000E+01 0.  1.
         13    1    4    4    0    0 -0.31506597310E+02  0.64213061523E+02  0.97599501665E+02  0.12100266803E+03  0.00000000000E+00 0. -1.
        -14    1    4    4    0    0  0.20728788017E+02  0.10604583945E+02  0.13318543334E+03  0.13520539748E+03  0.00000000000E+00 0.  1.
</event>
<event>
12    1  0.8133495E-002  0.1971462E+03  0.7818608E-02  0.1152734E+00
         21   -1    0    0  501  502  0.00000000000E+00  0.00000000000E+00  0.75588880133E+02  0.75588880133E+02  0.00000000000E+00 0. -1.
         21   -1    0    0  502  503 -0.00000000000E+00 -0.00000000000E+00 -0.50740890425E+03  0.50740890425E+03  0.00000000000E+00 0. -1.
         -6    2    1    2    0  503 -0.69355759512E+02  0.56050813341E+02 -0.21311987068E+03  0.28855526500E+03  0.17289345455E+03 0.  0.
        -24    2    3    3    0    0 -0.72842752574E+02  0.10264754995E+03 -0.15246738324E+03  0.21184653527E+03  0.76092479544E+02 0.  0.
          6    2    1    2  501    0  0.69355759512E+02 -0.56050813341E+02 -0.21870015343E+03  0.29444251939E+03  0.17582583728E+03 0.  0.
         24    2    5    5    0    0  0.74964341719E+02 -0.99249001921E+02 -0.13777130623E+03  0.20241476270E+03  0.80751386528E+02 0.  0.
          5    1    5    5  501    0 -0.56085822071E+01  0.43198188581E+02 -0.80928847201E+02  0.92027756684E+02  0.47000000000E+01 0. -1.
        -13    1    6    6    0    0  0.18260746795E+02 -0.85410996132E+02 -0.10055863093E+03  0.13319358614E+03  0.00000000000E+00 0.  1.
         14    1    6    6    0    0  0.56703594924E+02 -0.13838005789E+02 -0.37212675304E+02  0.69221176563E+02  0.00000000000E+00 0. -1.
         -5    1    3    3    0  503  0.34869930616E+01 -0.46596736605E+02 -0.60652487443E+02  0.76708729724E+02  0.47000000000E+01 0.  1.
         11    1    4    4    0    0 -0.41413197371E+02  0.61928489471E+01 -0.67905621193E+02  0.79778303342E+02  0.00000000000E+00 0. -1.
        -12    1    4    4    0    0 -0.31429555203E+02  0.96454700999E+02 -0.84561762043E+02  0.13206823193E+03  0.00000000000E+00 0.  1.
</event>
<event>
12    1  0.8133495E-002  0.1988404E+03  0.7818608E-02  0.1150854E+00
         21   -1    0    0  501  502  0.00000000000E+00  0.00000000000E+00  0.49881665262E+03  0.49881665262E+03  0.00000000000E+00 0. -1.
         21   -1    0    0  502  503 -0.00000000000E+00 -0.00000000000E+00 -0.79019769917E+02  0.79019769917E+02  0.00000000000E+00 0. -1.
         -6    2    1    2    0  503 -0.57213076697E+02  0.81063163720E+02  0.21266930033E+03  0.29114557944E+03  0.17231640801E+03 0.  0.
        -24    2    3    3    0    0 -0.69114404746E+02  0.10065400351E+03  0.10379197893E+03  0.17978219350E+03  0.81491305329E+02 0.  0.
          6    2    1    2  501    0  0.57213076697E+02 -0.81063163720E+02  0.20712758238E+03  0.28669084310E+03  0.17159612897E+03 0.  0.
         24    2    5    5    0    0  0.62679066464E+00  0.97434030137E+01  0.12713338350E+03  0.15301585597E+03  0.84590946381E+02 0.  0.
          5    1    5    5  501    0  0.56586286033E+02 -0.90806566734E+02  0.79994198883E+02  0.13367498713E+03  0.47000000000E+01 0. -1.
        -13    1    6    6    0    0 -0.40565050437E+02  0.10544450085E+01  0.44154612268E+02  0.59968866554E+02  0.00000000000E+00 0.  1.
         14    1    6    6    0    0  0.41191841101E+02  0.86889580052E+01  0.82978771229E+02  0.93046989415E+02  0.00000000000E+00 0. -1.
         -5    1    3    3    0  503  0.11901328049E+02 -0.19590839793E+02  0.10887732140E+03  0.11136338594E+03  0.47000000000E+01 0.  1.
         11    1    4    4    0    0 -0.35941612136E+01  0.24540874925E+01 -0.13006866526E+02  0.13715652266E+02  0.00000000000E+00 0. -1.
        -12    1    4    4    0    0 -0.65520243533E+02  0.98199916021E+02  0.11679884546E+03  0.16606654124E+03  0.00000000000E+00 0.  1.
</event>
<event>
12    1  0.8133495E-002  0.1841696E+03  0.7818608E-02  0.1164291E+00
         21   -1    0    0  503  502  0.00000000000E+00  0.00000000000E+00  0.17583725011E+03  0.17583725011E+03  0.00000000000E+00 0.  1.
         21   -1    0    0  501  503 -0.00000000000E+00 -0.00000000000E+00 -0.19787344838E+03  0.19787344838E+03  0.00000000000E+00 0.  1.
          6    2    1    2  501    0 -0.58506350021E+02  0.11308751015E+02  0.24253770564E+02  0.18381282356E+03  0.17218602695E+03 0.  0.
         24    2    3    3    0    0 -0.98039542576E+02  0.33892861458E+02  0.26693313658E+02  0.13797662904E+03  0.86974359441E+02 0.  0.
         -6    2    1    2    0  502  0.58506350021E+02 -0.11308751015E+02 -0.46289968828E+02  0.18989787492E+03  0.17426290725E+03 0.  0.
        -24    2    5    5    0    0 -0.14901585223E+02  0.36909158266E+02  0.36517237525E+01  0.88754637927E+02  0.79244605249E+02 0.  0.
          5    1    3    3  501    0  0.39533192555E+02 -0.22584110443E+02 -0.24395430946E+01  0.45836194526E+02  0.47000000000E+01 0. -1.
        -11    1    4    4    0    0 -0.69071151371E+02  0.62037654353E+02  0.71741093852E+01  0.93118002313E+02  0.00000000000E+00 0.  1.
         12    1    4    4    0    0 -0.28968391205E+02 -0.28144792895E+02  0.19519204273E+02  0.44858626725E+02  0.00000000000E+00 0. -1.
         -5    1    5    5    0  502  0.73407935244E+02 -0.48217909281E+02 -0.49941692580E+02  0.10114323700E+03  0.47000000000E+01 0.  1.
         11    1    6    6    0    0 -0.46990394882E+02  0.21298279585E+02  0.98835178600E+01  0.52529970967E+02  0.00000000000E+00 0. -1.
        -12    1    6    6    0    0  0.32088809660E+02  0.15610878681E+02 -0.62317941074E+01  0.36224666960E+02  0.00000000000E+00 0.  1.
</event>
<event>
12    1  0.8133495E-002  0.2160004E+03  0.7818608E-02  0.1138174E+00
         21   -1    0    0  503  502  0.00000000000E+00  0.00000000000E+00  0.13207671724E+03  0.13207671724E+03  0.00000000000E+00 0. -1.
         21   -1    0    0  501  503 -0.00000000000E+00 -0.00000000000E+00 -0.36224195708E+03  0.36224195708E+03  0.00000000000E+00 0.  1.
          6    2    1    2  501    0 -0.11797318925E+02  0.11790702494E+03 -0.17095431755E+03  0.27034967076E+03  0.17269140838E+03 0.  0.
         24    2    3    3    0    0 -0.12085718289E+02  0.11357816610E+03 -0.19805810017E+03  0.24250138130E+03  0.80832199582E+02 0.  0.
         -6    2    1    2    0  502  0.11797318925E+02 -0.11790702494E+03 -0.59210922292E+02  0.22396900357E+03  0.18059606302E+03 0.  0.
        -24    2    5    5    0    0  0.74675155361E+02 -0.67356449513E+02 -0.62778273985E+01  0.12736162535E+03  0.77899309220E+02 0.  0.
          5    1    3    3  501    0  0.28839936356E+00  0.43288588395E+01  0.27103782624E+02  0.27848289455E+02  0.47000000000E+01 0. -1.
        -13    1    4    4    0    0 -0.12535179936E+02 -0.77104740272E+01 -0.44192587122E+02  0.46578609922E+02  0.00000000000E+00 0.  1.
         14    1    4    4    0    0  0.44946164716E+00  0.12128864013E+03 -0.15386551305E+03  0.19592277138E+03  0.00000000000E+00 0. -1.
         -5    1    5    5    0  502 -0.62877836436E+02 -0.50550575426E+02 -0.52933094894E+02  0.96607378216E+02  0.47000000000E+01 0.  1.
         13    1    6    6    0    0  0.12687901413E+01  0.12478454882E+02  0.12023715340E+02  0.17375022165E+02  0.00000000000E+00 0. -1.
        -14    1    6    6    0    0  0.73406365220E+02 -0.79834904395E+02 -0.18301542739E+02  0.10998660319E+03  0.00000000000E+00 0.  1.
</event>
<event>
12    1  0.8133495E-002  0.1863966E+03  0.7818608E-02  0.1161911E+00
         21   -1    0    0  503  502  0.00000000000E+00  0.00000000000E+00  0.92343810636E+02  0.92343810636E+02  0.00000000000E+00 0. -1.
         21   -1    0    0  501  503 -0.00000000000E+00 -0.00000000000E+00 -0.41129134549E+03  0.41129134549E+03  0.00000000000E+00 0. -1.
          6    2    1    2  501    0 -0.41581054762E+02  0.55243037368E+02 -0.23415048401E+03  0.29885663032E+03  0.17236025944E+03 0.  0.
         24    2    3    3    0    0  0.34018445654E+02  0.62972890181E+02 -0.15899698628E+03  0.19187451355E+03  0.80080882625E+02 0.  0.
         -6    2    1    2    0  502  0.41581054762E+02 -0.55243037368E+02 -0.84797050839E+02  0.20477852580E+03  0.17309802860E+03 0.  0.
        -24    2    5    5    0    0  0.79946384765E+02 -0.76353835784E+02 -0.40138434958E+02  0.14205654936E+03  0.79672056451E+02 0.  0.
          5    1    3    3  501    0 -0.75599500417E+02 -0.77298528135E+01 -0.75153497728E+02  0.10698211677E+03  0.47000000000E+01 0. -1.
        -13    1    4    4    0    0 -0.14271586562E+02  0.56909997824E+02 -0.83615444519E+02  0.10214679925E+03  0.00000000000E+00 0.  1.
         14    1    4    4    0    0  0.48290032216E+02  0.60628923571E+01 -0.75381541765E+02  0.89727714303E+02  0.00000000000E+00 0. -1.
         -5    1    5    5    0  502 -0.38365330002E+02  0.21110798417E+02 -0.44658615880E+02  0.62721976438E+02  0.47000000000E+01 0.  1.
         13    1    6    6    0    0  0.35564760312E+02  0.26822706238E+01 -0.36951183085E+02  0.51355980014E+02  0.00000000000E+00 0. -1.
        -14    1    6    6    0    0  0.44381624453E+02 -0.79036106408E+02 -0.31872518729E+01  0.90700569346E+02  0.00000000000E+00 0.  1.
</event>
<event>
12    1  0.8133495E-002  0.1824985E+03  0.7818608E-02  0.1165928E+00
         21   -1    0    0  501  502  0.00000000000E+00  0.00000000000E+00  0.23890968933E+04  0.23890968933E+04  0.00000000000E+00 0.  1.
         21   -1    0    0  502  503 -0.00000000000E+00 -0.00000000000E+00 -0.63781949477E+02  0.63781949477E+02  0.00000000000E+00 0.  1.
         -6    2    1    2    0  503 -0.39673917573E+02 -0.40044327199E+02  0.75195127239E+02  0.19537028645E+03  0.17128243865E+03 0.  0.
        -24    2    3    3    0    0 -0.95899996583E+01 -0.34941490814E-01  0.10860485357E+03  0.13500396409E+03  0.79618382212E+02 0.  0.
          6    2    1    2  501    0  0.39673917573E+02  0.40044327199E+02  0.22501198166E+04  0.22575085563E+04  0.17357455185E+03 0.  0.
         24    2    5    5    0    0 -0.19719509046E+02  0.24433103494E+02  0.57452022498E+03  0.58077739994E+03  0.79013060860E+02 0.  0.
          5    1    5    5  501    0  0.59393426619E+02  0.15611223705E+02  0.16755995916E+04  0.16767311564E+04  0.47000000000E+01 0. -1.
        -13    1    6    6    0    0  0.45572187196E+01  0.45297751258E+02  0.44653125232E+03  0.44884609145E+03  0.00000000000E+00 0.  1.
         14    1    6    6    0    0 -0.24276727766E+02 -0.20864647763E+02  0.12798897266E+03  0.13193130849E+03  0.00000000000E+00 0. -1.
         -5    1    3    3    0  503 -0.30083917915E+02 -0.40009385708E+02 -0.33409726329E+02  0.60366322360E+02  0.47000000000E+01 0.  1.
         11    1    4    4    0    0 -0.38258000478E+02  0.21851582696E+02  0.62465414360E+02  0.76440135126E+02  0.00000000000E+00 0. -1.
        -12    1    4    4    0    0  0.28668000820E+02 -0.21886524187E+02  0.46139439207E+02  0.58563828959E+02  0.00000000000E+00 0.  1.
</event>
<event>
12    1  0.8133495E-002  0.2769518E+03  0.7818608E-02  0.1097878E+00
         21   -1    0    0  503  502  0.00000000000E+00  0.00000000000E+00  0.24302906678E+03  0.24302906678E+03  0.00000000000E+00 0. -1.
         21   -1    0    0  501  503 -0.00000000000E+00 -0.00000000000E+00 -0.40462817559E+03  0.40462817559E+03  0.00000000000E+00 0. -1.
          6    2    1    2  501    0 -0.35285743532E+02 -0.21123795782E+03  0.74193107283E+02  0.28671749286E+03  0.17560109631E+03 0.  0.
         24    2    3    3    0    0 -0.75680404597E+02 -0.83893764497E+02  0.25771879093E+02  0.14453810774E+03  0.86379323195E+02 0.  0.
         -6    2    1    2    0  502  0.35285743532E+02  0.21123795782E+03 -0.23579221609E+03  0.36093974950E+03  0.16974385138E+03 0.  0.
        -24    2    5    5    0    0  0.11231603247E+02  0.14799957620E+03 -0.71747918042E+02  0.18342829552E+03  0.80424824432E+02 0.  0.
          5    1    3    3  501    0  0.40394661065E+02 -0.12734419332E+03  0.48421228190E+02  0.14217938513E+03  0.47000000000E+01 0. -1.
        -13    1    4    4    0    0 -0.48493264841E+02 -0.71754728793E+02 -0.20980824015E+02  0.89109667352E+02  0.00000000000E+00 0.  1.
         14    1    4    4    0    0 -0.27187139756E+02 -0.12139035704E+02  0.46752703108E+02  0.55428440388E+02  0.00000000000E+00 0. -1.
         -5    1    5    5    0  502  0.24054140285E+02  0.63238381615E+02 -0.16404429805E+03  0.17751145398E+03  0.47000000000E+01 0.  1.
         13    1    6    6    0    0  0.19041874444E+02  0.29153698597E+02 -0.52176216713E+02  0.62728691320E+02  0.00000000000E+00 0. -1.
        -14    1    6    6    0    0 -0.78102711978E+01  0.11884587761E+03 -0.19571701328E+02  0.12069960420E+03  0.00000000000E+00 0.  1.
</event>
<event>
12    1  0.8133495E-002  0.2008264E+03  0.7818608E-02  0.1151201E+00
         21   -1    0    0  503  502  0.00000000000E+00  0.00000000000E+00  0.43401261834E+03  0.43401261834E+03  0.00000000000E+00 0. -1.
         21   -1    0    0  501  503 -0.00000000000E+00 -0.00000000000E+00 -0.11323204869E+03  0.11323204869E+03  0.00000000000E+00 0.  1.
          6    2    1    2  501    0 -0.54845507714E+02 -0.61385207963E+02  0.35364581250E+02  0.20391644450E+03  0.18318048274E+03 0.  0.
         24    2    3    3    0    0 -0.91860993983E+02 -0.38460845440E+01 -0.93423462254E+01  0.12205255556E+03  0.79726484339E+02 0.  0.
         -6    2    1    2    0  502  0.54845507714E+02  0.61385207963E+02  0.28541598840E+03  0.34332822252E+03  0.17215054014E+03 0.  0.
        -24    2    5    5    0    0 -0.23112965200E+02 -0.33278105271E+01  0.14745750878E+03  0.17209758753E+03  0.85607121511E+02 0.  0.
          5    1    3    3  501    0  0.37015486269E+02 -0.57539123419E+02  0.44706927475E+02  0.81863888937E+02  0.47000000000E+01 0. -1.
        -11    1    4    4    0    0 -0.94687129052E+01 -0.46609227472E+01 -0.34358147911E+02  0.35942496475E+02  0.00000000000E+00 0.  1.
         12    1    4    4    0    0 -0.82392281078E+02  0.81483820319E+00  0.25015801686E+02  0.86110059090E+02  0.00000000000E+00 0. -1.
         -5    1    5    5    0  502  0.77958472914E+02  0.64713018490E+02  0.13795847962E+03  0.17123063500E+03  0.47000000000E+01 0.  1.
         13    1    6    6    0    0 -0.33434323913E+02  0.52959967117E+01  0.11911224060E+02  0.35885635780E+02  0.00000000000E+00 0. -1.
        -14    1    6    6    0    0  0.10321358713E+02 -0.86238072387E+01  0.13554628472E+03  0.13621195175E+03  0.00000000000E+00 0.  1.
</event>
<event>
12    1  0.8133495E-002  0.3252118E+03  0.7818608E-02  0.1073465E+00
         21   -1    0    0  501  502  0.00000000000E+00  0.00000000000E+00  0.36105567228E+03  0.36105567228E+03  0.00000000000E+00 0.  1.
         21   -1    0    0  502  503 -0.00000000000E+00 -0.00000000000E+00 -0.54380354047E+03  0.54380354047E+03  0.00000000000E+00 0. -1.
         -6    2    1    2    0  503 -0.47408855111E+02 -0.27277967416E+03 -0.39946967528E+03  0.51405101734E+03  0.16738003701E+03 0.  0.
        -24    2    3    3    0    0 -0.26134740749E+02 -0.14672562328E+03 -0.32435035274E+03  0.36570273018E+03  0.79522967383E+02 0.  0.
          6    2    1    2  501    0  0.47408855111E+02  0.27277967416E+03  0.21672180709E+03  0.39080819540E+03  0.17060584324E+03 0.  0.
         24    2    5    5    0    0  0.60222989896E+01  0.26953779309E+03  0.17306724803E+03  0.33038330527E+03  0.80709144908E+02 0.  0.
          5    1    5    5  501    0  0.41386556122E+02  0.32418810688E+01  0.43654559062E+02  0.60424890131E+02  0.47000000000E+01 0. -1.
        -13    1    6    6    0    0 -0.77904812916E+01  0.19464507859E+03  0.16213549430E+03  0.25344687161E+03  0.00000000000E+00 0.  1.
         14    1    6    6    0    0  0.13812780281E+02  0.74892714504E+02  0.10931753729E+02  0.76936433661E+02  0.00000000000E+00 0. -1.
         -5    1    3    3    0  503 -0.21274114362E+02 -0.12605405088E+03 -0.75119322540E+02  0.14834828716E+03  0.47000000000E+01 0.  1.
         13    1    4    4    0    0 -0.17266008017E+02 -0.11195305508E+03 -0.15149815991E+03  0.18916472724E+03  0.00000000000E+00 0. -1.
        -14    1    4    4    0    0 -0.88687327323E+01 -0.34772568204E+02 -0.17285219282E+03  0.17653800294E+03  0.00000000000E+00 0.  1.
</event>
<event>
12    1  0.8133495E-002  0.2154469E+03  0.7818608E-02  0.1137359E+00
         21   -1    0    0  501  502  0.00000000000E+00  0.00000000000E+00  0.60517716315E+03  0.60517716315E+03  0.00000000000E+00 0. -1.
         21   -1    0    0  502  503 -0.00000000000E+00 -0.00000000000E+00 -0.22442543098E+03  0.22442543098E+03  0.00000000000E+00 0. -1.
         -6    2    1    2    0  503  0.35917869364E+01  0.12929014065E+03 -0.14626113698E+03  0.26025215737E+03  0.17207563402E+03 0.  0.
        -24    2    3    3    0    0  0.34865090952E+02  0.11251410454E+02 -0.87200034987E+02  0.12452645921E+03  0.80998914428E+02 0.  0.
          6    2    1    2  501    0 -0.35917869364E+01 -0.12929014065E+03  0.52701286915E+03  0.56935043675E+03  0.17230355242E+03 0.  0.
         24    2    5    5    0    0 -0.28250369505E+02 -0.15419701996E+01  0.16298963696E+03  0.18274644774E+03  0.77654242349E+02 0.  0.
          5    1    5    5  501    0  0.24658582568E+02 -0.12774817045E+03  0.36402323219E+03  0.38660398901E+03  0.47000000000E+01 0. -1.
        -11    1    6    6    0    0  0.24197449265E+02  0.13016739637E+02  0.66689958030E+02  0.72128375579E+02  0.00000000000E+00 0.  1.
         12    1    6    6    0    0 -0.52447818770E+02 -0.14558709836E+02  0.96299678935E+02  0.11061807216E+03  0.00000000000E+00 0. -1.
         -5    1    3    3    0  503 -0.31273304016E+02  0.11803873020E+03 -0.59061101992E+02  0.13572569816E+03  0.47000000000E+01 0.  1.
         11    1    4    4    0    0  0.53477036007E+02  0.15765468502E+02 -0.28165449909E+02  0.62463076660E+02  0.00000000000E+00 0. -1.
        -12    1    4    4    0    0 -0.18611945055E+02 -0.45140580480E+01 -0.59034585078E+02  0.62063382555E+02  0.00000000000E+00 0.  1.
</event>
<event>
12    1  0.8133495E-002  0.2202730E+03  0.7818608E-02  0.1133777E+00
         21   -1    0    0  503  502  0.00000000000E+00  0.00000000000E+00  0.89259530553E+03  0.89259530553E+03  0.00000000000E+00 0.  1.
         21   -1    0    0  501  503 -0.00000000000E+00 -0.00000000000E+00 -0.58648955565E+02  0.58648955565E+02  0.00000000000E+00 0. -1.
          6    2    1    2  501    0  0.13231158547E+03  0.35735018171E+02  0.54799159719E+03  0.59060561003E+03  0.17244375555E+03 0.  0.
         24    2    3    3    0    0  0.48848598946E+02 -0.28860439912E+02  0.16615732667E+03  0.19442617660E+03  0.83511498196E+02 0.  0.
         -6    2    1    2    0  502 -0.13231158547E+03 -0.35735018171E+02  0.28595475277E+03  0.36063865107E+03  0.17177534409E+03 0.  0.
        -24    2    5    5    0    0 -0.15053348095E+03 -0.55482651144E+02  0.19174364037E+03  0.26255791808E+03  0.80202140004E+02 0.  0.
          5    1    3    3  501    0  0.83462986528E+02  0.64595458083E+02  0.38183427052E+03  0.39617943343E+03  0.47000000000E+01 0. -1.
        -11    1    4    4    0    0  0.54922111379E+02  0.14467942898E+02  0.10248913217E+03  0.11717415203E+03  0.00000000000E+00 0.  1.
         12    1    4    4    0    0 -0.60735124323E+01 -0.43328382810E+02  0.63668194498E+02  0.77252024574E+02  0.00000000000E+00 0. -1.
         -5    1    5    5    0  502  0.18221895472E+02  0.19747632973E+02  0.94211112407E+02  0.98080732989E+02  0.47000000000E+01 0.  1.
         11    1    6    6    0    0 -0.14472473987E+03 -0.71075662061E+02  0.18250154357E+03  0.24352374314E+03  0.00000000000E+00 0. -1.
        -12    1    6    6    0    0 -0.58087410736E+01  0.15593010918E+02  0.92420967991E+01  0.19034174938E+02  0.00000000000E+00 0.  1.
</event>
<event>
12    1  0.8133495E-002  0.1741634E+03  0.7818608E-02  0.1174151E+00
         21   -1    0    0  501  502  0.00000000000E+00  0.00000000000E+00  0.11824136051E+04  0.11824136051E+04  0.00000000000E+00 0.  1.
         21   -1    0    0  502  503 -0.00000000000E+00 -0.00000000000E+00 -0.29633458558E+02  0.29633458558E+02  0.00000000000E+00 0.  1.
         -6    2    1    2    0  503  0.12998150416E+02 -0.31306030289E+01  0.34841915712E+03  0.38952378822E+03  0.17364941679E+03 0.  0.
        -24    2    3    3    0    0  0.61037367372E+02  0.39258742521E+02  0.19537945595E+03  0.22354829871E+03  0.80832548959E+02 0.  0.
          6    2    1    2  501    0 -0.12998150416E+02  0.31306030289E+01  0.80436098947E+03  0.82252327549E+03  0.17137439933E+03 0.  0.
         24    2    5    5    0    0  0.16607138081E+02 -0.20002764743E+02  0.75694930310E+03  0.76184721912E+03  0.82237644603E+02 0.  0.
          5    1    5    5  501    0 -0.29605288497E+02  0.23133367772E+02  0.47411686373E+02  0.60676056366E+02  0.47000000000E+01 0. -1.
        -11    1    6    6    0    0  0.11231253163E+02  0.25582660434E+02  0.11846592877E+03  0.12171602131E+03  0.00000000000E+00 0.  1.
         12    1    6    6    0    0  0.53758849187E+01 -0.45585425177E+02  0.63848337433E+03  0.64013119782E+03  0.00000000000E+00 0. -1.
         -5    1    3    3    0  503 -0.48039216957E+02 -0.42389345550E+02  0.15303970117E+03  0.16597548951E+03  0.47000000000E+01 0.  1.
         11    1    4    4    0    0  0.38623832541E+02  0.16636262734E+02  0.18549725302E+03  0.19020461760E+03  0.00000000000E+00 0. -1.
        -12    1    4    4    0    0  0.22413534832E+02  0.22622479787E+02  0.98822029230E+01  0.33343681110E+02  0.00000000000E+00 0.  1.
</event>
<event>
12    1  0.8133495E-002  0.2128054E+03  0.7818608E-02  0.1139511E+00
         21   -1    0    0  503  502  0.00000000000E+00  0.00000000000E+00  0.58040351496E+03  0.58040351496E+03  0.00000000000E+00 0. -1.
         21   -1    0    0  501  503 -0.00000000000E+00 -0.00000000000E+00 -0.15344085686E+03  0.15344085686E+03  0.00000000000E+00 0. -1.
          6    2    1    2  501    0  0.50422124705E+02 -0.11278366427E+03 -0.44034594508E+02  0.21731360683E+03  0.17327323110E+03 0.  0.
         24    2    3    3    0    0  0.32620584783E+02 -0.18338492530E+02 -0.72694149690E+02  0.11691318157E+03  0.83569430817E+02 0.  0.
         -6    2    1    2    0  502 -0.50422124705E+02  0.11278366427E+03  0.47099725261E+03  0.51653076499E+03  0.17234579666E+03 0.  0.
        -24    2    5    5    0    0  0.10784511114E+02  0.98158706065E+02  0.19079901454E+03  0.22931432345E+03  0.80183275902E+02 0.  0.
          5    1    3    3  501    0  0.17801539922E+02 -0.94445171737E+02  0.28659555182E+02  0.10040042525E+03  0.47000000000E+01 0. -1.
        -11    1    4    4    0    0 -0.26988572359E+02 -0.17307999077E+01 -0.35811007391E+02  0.44875460517E+02  0.00000000000E+00 0.  1.
         12    1    4    4    0    0  0.59609157141E+02 -0.16607692622E+02 -0.36883142299E+02  0.72037721057E+02  0.00000000000E+00 0. -1.
         -5    1    5    5    0  502 -0.61206635818E+02  0.14624958201E+02  0.28019823807E+03  0.28721644154E+03  0.47000000000E+01 0.  1.
         13    1    6    6    0    0  0.14310501570E+02  0.19884851707E+02  0.12386302522E+03  0.12626261046E+03  0.00000000000E+00 0. -1.
        -14    1    6    6    0    0 -0.35259904563E+01  0.78273854358E+02  0.66935989316E+02  0.10305171299E+03  0.00000000000E+00 0.  1.
</event>
<event>
12    1  0.8133495E-002  0.1922804E+03  0.7818608E-02  0.1156785E+00
         21   -1    0    0  501  502  0.00000000000E+00  0.00000000000E+00  0.32896277656E+02  0.32896277656E+02  0.00000000000E+00 0. -1.
         21   -1    0    0  502  503 -0.00000000000E+00 -0.00000000000E+00 -0.14792947931E+04  0.14792947931E+04  0.00000000000E+00 0.  1.
         -6    2    1    2    0  503  0.54426402428E+02 -0.60712688900E+02 -0.10964128969E+04  0.11128645141E+04  0.17233085196E+03 0.  0.
        -24    2    3    3    0    0  0.32919167654E+02 -0.38150337093E+02 -0.10621282177E+04  0.10662903787E+04  0.79496547295E+02 0.  0.
          6    2    1    2  501    0 -0.54426402428E+02  0.60712688900E+02 -0.34998561855E+03  0.39932655660E+03  0.17413644574E+03 0.  0.
         24    2    5    5    0    0 -0.63312350885E+02 -0.19000217775E+02 -0.25536096619E+03  0.27519347315E+03  0.78439547174E+02 0.  0.
          5    1    5    5  501    0  0.88859484577E+01  0.79712906675E+02 -0.94624652361E+02  0.12413308344E+03  0.47000000000E+01 0. -1.
        -13    1    6    6    0    0  0.13626803778E+01 -0.21614028412E+02 -0.14987538030E+03  0.15143200699E+03  0.00000000000E+00 0.  1.
         14    1    6    6    0    0 -0.64675031263E+02  0.26138106371E+01 -0.10548558590E+03  0.12376146616E+03  0.00000000000E+00 0. -1.
         -5    1    3    3    0  503  0.21507234774E+02 -0.22562351807E+02 -0.34284679147E+02  0.46574135428E+02  0.47000000000E+01 0.  1.
         13    1    4    4    0    0 -0.12390553320E+02 -0.40284296827E+02 -0.31798660310E+03  0.32076756403E+03  0.00000000000E+00 0. -1.
        -14    1    4    4    0    0  0.45309720974E+02  0.21339597337E+01 -0.74414161462E+03  0.74552281468E+03  0.00000000000E+00 0.  1.
</event>
<event>
12    1  0.8133495E-002  0.2205803E+03  0.7818608E-02  0.1133817E+00
         21   -1    0    0  501  502  0.00000000000E+00  0.00000000000E+00  0.14380524239E+03  0.14380524239E+03  0.00000000000E+00 0.  1.
         21   -1    0    0  502  503 -0.00000000000E+00 -0.00000000000E+00 -0.53698556619E+03  0.53698556619E+03  0.00000000000E+00 0. -1.
         -6    2    1    2    0  503 -0.79570557994E+02 -0.11262790814E+03 -0.40572742064E+03  0.46181210133E+03  0.17216026744E+03 0.  0.
        -24    2    3    3    0    0 -0.54715784593E+01 -0.84113724380E+02 -0.34051566379E+03  0.35896084623E+03  0.76137474617E+02 0.  0.
          6    2    1    2  501    0  0.79570557994E+02  0.11262790814E+03  0.12547096837E+02  0.21897870726E+03  0.16963998704E+03 0.  0.
         24    2    5    5    0    0  0.83426423787E+02  0.81907434307E+01  0.15941838795E+02  0.11430968917E+03  0.76062516072E+02 0.  0.
          5    1    5    5  501    0 -0.38558657924E+01  0.10443716471E+03 -0.33947419573E+01  0.10466901808E+03  0.47000000000E+01 0. -1.
        -13    1    6    6    0    0  0.25423933893E+02  0.12836967777E+02  0.41843717898E+02  0.50616804362E+02  0.00000000000E+00 0.  1.
         14    1    6    6    0    0  0.58002489894E+02 -0.46462243467E+01 -0.25901879104E+02  0.63692884812E+02  0.00000000000E+00 0. -1.
         -5    1    3    3    0  503 -0.74098979535E+02 -0.28514183761E+02 -0.65211756842E+02  0.10285125509E+03  0.47000000000E+01 0.  1.
         11    1    4    4    0    0 -0.33938707133E+02 -0.13250466944E+02 -0.91084494093E+02  0.98100946888E+02  0.00000000000E+00 0. -1.
        -12    1    4    4    0    0  0.28467128673E+02 -0.70863257436E+02 -0.24943116970E+03  0.26085989935E+03  0.00000000000E+00 0.  1.
</event>
<event>
12    1  0.8133495E-002  0.2027339E+03  0.7818608E-02  0.1149445E+00
         21   -1    0    0  501  502  0.00000000000E+00  0.00000000000E+00  0.10926851087E+03  0.10926851087E+03  0.00000000000E+00 0. -1.
         21   -1    0    0  502  503 -0.00000000000E+00 -0.00000000000E+00 -0.43169400184E+03  0.43169400184E+03  0.00000000000E+00 0. -1.
         -6    2    1    2    0  503 -0.68729357819E+02  0.61806129026E+02 -0.27538231344E+03  0.34195969537E+03  0.18043639459E+03 0.  0.
        -24    2    3    3    0    0 -0.11038675144E+03  0.15657302930E+02 -0.17342182064E+03  0.22244783535E+03  0.83531584158E+02 0.  0.
          6    2    1    2  501    0  0.68729357819E+02 -0.61806129026E+02 -0.47043177541E+02  0.19900281734E+03  0.16983915492E+03 0.  0.
         24    2    5    5    0    0  0.17171878514E+02  0.18958267874E+02 -0.58685670289E+02  0.10236587246E+03  0.79877873120E+02 0.  0.
          5    1    5    5  501    0  0.51557479306E+02 -0.80764396900E+02  0.11642492747E+02  0.96636944883E+02  0.47000000000E+01 0. -1.
        -11    1    6    6    0    0  0.41626896964E+02 -0.80116866689E+01 -0.48800874680E+02  0.64641403479E+02  0.00000000000E+00 0.  1.
         12    1    6    6    0    0 -0.24455018451E+02  0.26969954543E+02 -0.98847956089E+01  0.37724468979E+02  0.00000000000E+00 0. -1.
         -5    1    3    3    0  503  0.41657393617E+02  0.46148826095E+02 -0.10196049280E+03  0.11951186002E+03  0.47000000000E+01 0.  1.
         13    1    4    4    0    0 -0.76491880592E+02 -0.19449456871E+02 -0.60542994333E+02  0.99472324452E+02  0.00000000000E+00 0. -1.
        -14    1    4    4    0    0 -0.33894870845E+02  0.35106759801E+02 -0.11287882631E+03  0.12297551090E+03  0.00000000000E+00 0.  1.
</event>
<event>
12    1  0.8133495E-002  0.4053659E+03  0.7818608E-02  0.1041960E+00
         21   -1    0    0  501  502  0.00000000000E+00  0.00000000000E+00  0.38440929408E+03  0.38440929408E+03  0.00000000000E+00 0.  1.
         21   -1    0    0  502  503 -0.00000000000E+00 -0.00000000000E+00 -0.43689602897E+03  0.43689602897E+03  0.00000000000E+00 0.  1.
         -6    2    1    2    0  503  0.40357428913E+02  0.36449147303E+03 -0.87478939594E+02  0.41469755660E+03  0.17273894348E+03 0.  0.
        -24    2    3    3    0    0  0.48948695248E+02  0.10118491292E+03 -0.49907050360E+02  0.14854367007E+03  0.83307543912E+02 0.  0.
          6    2    1    2  501    0 -0.40357428913E+02 -0.36449147303E+03  0.34992204701E+02  0.40660776645E+03  0.17211236262E+03 0.  0.
         24    2    5    5    0    0  0.42227235261E+02 -0.22712030205E+03  0.43328175852E+01  0.24334983129E+03  0.76377981644E+02 0.  0.
          5    1    5    5  501    0 -0.82584664174E+02 -0.13737117098E+03  0.30659387115E+02  0.16325793516E+03  0.47000000000E+01 0. -1.
        -11    1    6    6    0    0 -0.44476995865E+01 -0.13711058774E+03  0.26110884917E+02  0.13964552844E+03  0.00000000000E+00 0.  1.
         12    1    6    6    0    0  0.46674934848E+02 -0.90009714312E+02 -0.21778067331E+02  0.10370430285E+03  0.00000000000E+00 0. -1.
         -5    1    3    3    0  503 -0.85912663348E+01  0.26330656011E+03 -0.37571889234E+02  0.26615388653E+03  0.47000000000E+01 0.  1.
         11    1    4    4    0    0 -0.16960575342E+02 -0.49207315416E+00  0.12569810015E+01  0.17014207392E+02  0.00000000000E+00 0. -1.
        -12    1    4    4    0    0  0.65909270590E+02  0.10167698607E+03 -0.51164031362E+02  0.13152946268E+03  0.00000000000E+00 0.  1.
</event>
<event>
12    1  0.8133495E-002  0.2187818E+03  0.7818608E-02  0.1135143E+00
         21   -1    0    0  503  502  0.00000000000E+00  0.00000000000E+00  0.19127564204E+03  0.19127564204E+03  0.00000000000E+00 0. -1.
         21   -1    0    0  501  503 -0.00000000000E+00 -0.00000000000E+00 -0.26216845410E+03  0.26216845410E+03  0.00000000000E+00 0. -1.
          6    2    1    2  501    0 -0.54432164269E+02  0.12390533775E+03 -0.88041868685E+02  0.23583225240E+03  0.17190138859E+03 0.  0.
         24    2    3    3    0    0  0.26842337166E+02  0.10438754733E+03 -0.66139306125E+02  0.14929728274E+03  0.79359937741E+02 0.  0.
         -6    2    1    2    0  502  0.54432164269E+02 -0.12390533775E+03  0.17149056622E+02  0.21761184374E+03  0.16954477627E+03 0.  0.
        -24    2    5    5    0    0  0.67794846453E+02 -0.11231677414E+03 -0.38974704634E+02  0.15857945721E+03  0.80107538275E+02 0.  0.
          5    1    3    3  501    0 -0.81274501435E+02  0.19517790421E+02 -0.21902562560E+02  0.86534969655E+02  0.47000000000E+01 0. -1.
        -11    1    4    4    0    0  0.19769606096E+02  0.43862993758E+02  0.12597816861E+02  0.49734339608E+02  0.00000000000E+00 0.  1.
         12    1    4    4    0    0  0.70727310699E+01  0.60524553569E+02 -0.78737122986E+02  0.99562943135E+02  0.00000000000E+00 0. -1.
         -5    1    5    5    0  502 -0.13362682184E+02 -0.11588563607E+02  0.56123761256E+02  0.59032386528E+02  0.47000000000E+01 0.  1.
         13    1    6    6    0    0 -0.13053383331E+02 -0.45597877683E+02 -0.22404461739E+02  0.52454906076E+02  0.00000000000E+00 0. -1.
        -14    1    6    6    0    0  0.80848229784E+02 -0.66718896458E+02 -0.16570242894E+02  0.10612455113E+03  0.00000000000E+00 0.  1.
</event>
<event>
12    1  0.8133495E-002  0.1955397E+03  0.7818608E-02  0.1153627E+00
         21   -1    0    0  501  502  0.00000000000E+00  0.00000000000E+00  0.91324957569E+03  0.91324957569E+03  0.00000000000E+00 0. -1.
         21   -1    0    0  502  503 -0.00000000000E+00 -0.00000000000E+00 -0.87921884697E+02  0.87921884697E+02  0.00000000000E+00 0. -1.
         -6    2    1    2    0  503  0.54569997590E+02  0.75170429869E+02  0.49936920023E+02  0.20150488125E+03  0.17170335764E+03 0.  0.
        -24    2    3    3    0    0  0.36116905557E+02  0.11326015523E+03  0.97398287688E+01  0.14294516875E+03  0.78779206492E+02 0.  0.
          6    2    1    2  501    0 -0.54569997590E+02 -0.75170429869E+02  0.77539077097E+03  0.79966657913E+03  0.17206775384E+03 0.  0.
         24    2    5    5    0    0 -0.41080065410E+02 -0.10993024919E+03  0.43961789722E+03  0.46179717232E+03  0.78870155001E+02 0.  0.
          5    1    5    5  501    0 -0.13489932180E+02  0.34759819325E+02  0.33577287375E+03  0.33786940681E+03  0.47000000000E+01 0. -1.
        -11    1    6    6    0    0 -0.12419593302E+02  0.11167659268E+02  0.43722946109E+02  0.46804475509E+02  0.00000000000E+00 0.  1.
         12    1    6    6    0    0 -0.28660472108E+02 -0.12109790846E+03  0.39589495111E+03  0.41499269681E+03  0.00000000000E+00 0. -1.
         -5    1    3    3    0  503  0.18453092033E+02 -0.38089725357E+02  0.40197091255E+02  0.58559712505E+02  0.47000000000E+01 0.  1.
         11    1    4    4    0    0  0.58874983282E+02  0.62665326318E+02  0.14757899306E+02  0.87241058975E+02  0.00000000000E+00 0. -1.
        -12    1    4    4    0    0 -0.22758077725E+02  0.50594828907E+02 -0.50180705376E+01  0.55704109775E+02  0.00000000000E+00 0.  1.
</event>
<event>
12    1  0.8133495E-002  0.1865910E+03  0.7818608E-02  0.1163385E+00
         21   -1    0    0  503  502  0.00000000000E+00  0.00000000000E+00  0.26267096588E+03  0.26267096588E+03  0.00000000000E+00 0.  1.
         21   -1    0    0  501  503 -0.00000000000E+00 -0.00000000000E+00 -0.12862506404E+03  0.12862506404E+03  0.00000000000E+00 0. -1.
          6    2    1    2  501    0  0.54852706060E+02  0.47549075868E+02  0.44684957359E+02  0.18441062788E+03  0.16352614557E+03 0.  0.
         24    2    3    3    0    0  0.43554161076E+02 -0.16681656433E+02  0.75017422170E+02  0.11233155663E+03  0.69393964999E+02 0.  0.
         -6    2    1    2    0  502 -0.54852706060E+02 -0.47549075868E+02  0.89360944480E+02  0.20688540204E+03  0.17189082931E+03 0.  0.
        -24    2    5    5    0    0 -0.77458301789E+02 -0.35247151694E+01  0.11209873836E+02  0.11426338989E+03  0.83176011350E+02 0.  0.
          5    1    3    3  501    0  0.11298544984E+02  0.64230732301E+02 -0.30332464812E+02  0.72079071250E+02  0.47000000000E+01 0. -1.
        -13    1    4    4    0    0  0.58584612407E+02 -0.13534566933E+02  0.76041003896E+02  0.96941093383E+02  0.00000000000E+00 0.  1.
         14    1    4    4    0    0 -0.15030451330E+02 -0.31470895002E+01 -0.10235817253E+01  0.15390463251E+02  0.00000000000E+00 0. -1.
         -5    1    5    5    0  502  0.22605595729E+02 -0.44024360699E+02  0.78151070643E+02  0.92622012156E+02  0.47000000000E+01 0.  1.
         13    1    6    6    0    0 -0.44439575122E+02 -0.42380272746E+02  0.14736005420E+02  0.63151509964E+02  0.00000000000E+00 0. -1.
        -14    1    6    6    0    0 -0.33018726667E+02  0.38855557577E+02 -0.35261315836E+01  0.51111879923E+02  0.00000000000E+00 0.  1.
</event>
<event>
12    1  0.8133495E-002  0.3122191E+03  0.7818608E-02  0.1079321E+00
         21   -1    0    0  501  502  0.00000000000E+00  0.00000000000E+00  0.20637975050E+03  0.20637975050E+03  0.00000000000E+00 0.  1.
         21   -1    0    0  502  503 -0.00000000000E+00 -0.00000000000E+00 -0.47258185529E+03  0.47258185529E+03  0.00000000000E+00 0. -1.
         -6    2    1    2    0  503  0.58379897761E+02 -0.25518887029E+03 -0.14603166898E+03  0.34468250517E+03  0.17015054817E+03 0.  0.
        -24    2    3    3    0    0  0.27747381383E+02 -0.43141662348E+02 -0.67933365951E+02  0.11659523154E+03  0.79676756993E+02 0.  0.
          6    2    1    2  501    0 -0.58379897761E+02  0.25518887029E+03 -0.12017043580E+03  0.33427910062E+03  0.16962314549E+03 0.  0.
         24    2    5    5    0    0  0.42678791159E+01  0.91430834143E+02 -0.13634072217E+02  0.12906329929E+03  0.89964632347E+02 0.  0.
          5    1    5    5  501    0 -0.62647776877E+02  0.16375803615E+03 -0.10653636358E+03  0.20521580133E+03  0.47000000000E+01 0. -1.
        -11    1    6    6    0    0 -0.28538190644E+01  0.87260563175E+02  0.23991231765E+02  0.90543521969E+02  0.00000000000E+00 0.  1.
         12    1    6    6    0    0  0.71216981803E+01  0.41702709677E+01 -0.37625303982E+02  0.38519777318E+02  0.00000000000E+00 0. -1.
         -5    1    3    3    0  503  0.30632516378E+02 -0.21204720794E+03 -0.78098303031E+02  0.22808727363E+03  0.47000000000E+01 0.  1.
         11    1    4    4    0    0  0.23776259690E+02 -0.57978557262E+02 -0.76594522834E+02  0.98962339075E+02  0.00000000000E+00 0. -1.
        -12    1    4    4    0    0  0.39711216926E+01  0.14836894914E+02  0.86611568823E+01  0.17632892466E+02  0.00000000000E+00 0.  1.
</event>
<event>
12    1  0.8133495E-002  0.1869162E+03  0.7818608E-02  0.1164138E+00
         21   -1    0    0  503  502  0.00000000000E+00  0.00000000000E+00  0.14710160100E+04  0.14710160100E+04  0.00000000000E+00 0. -1.
         21   -1    0    0  501  503 -0.00000000000E+00 -0.00000000000E+00 -0.26649582490E+02  0.26649582490E+02  0.00000000000E+00 0. -1.
          6    2    1    2  501    0 -0.17354320478E+02 -0.37972577012E+02  0.43805446446E+03  0.47626606159E+03  0.18219373905E+03 0.  0.
         24    2    3    3    0    0 -0.22814831855E+02  0.52293172935E+01  0.80287572146E+02  0.11582818887E+03  0.80138709649E+02 0.  0.
         -6    2    1    2    0  502  0.17354320478E+02  0.37972577012E+02  0.10063119630E+04  0.10213995309E+04  0.16985330640E+03 0.  0.
        -24    2    5    5    0    0  0.72654548231E+02  0.72368615314E+01  0.67405619584E+03  0.68314107314E+03  0.83659519034E+02 0.  0.
          5    1    3    3  501    0  0.54605113772E+01 -0.43201894306E+02  0.35776689231E+03  0.36043787272E+03  0.47000000000E+01 0. -1.
        -13    1    4    4    0    0 -0.68728898265E+01  0.42322762280E+02  0.36997388542E+02  0.56632672377E+02  0.00000000000E+00 0.  1.
         14    1    4    4    0    0 -0.15941942028E+02 -0.37093444986E+02  0.43290183604E+02  0.59195516494E+02  0.00000000000E+00 0. -1.
         -5    1    5    5    0  502 -0.55300227753E+02  0.30735715481E+02  0.33225576720E+03  0.33825845775E+03  0.47000000000E+01 0.  1.
         13    1    6    6    0    0  0.34490408868E+02  0.71256205300E+01  0.58737892505E+03  0.58843382327E+03  0.00000000000E+00 0. -1.
        -14    1    6    6    0    0  0.38164139363E+02  0.11124100147E+00  0.86677270784E+02  0.94707249873E+02  0.00000000000E+00 0.  1.
</event>
<event>
12    1  0.8133495E-002  0.1998762E+03  0.7818608E-02  0.1150075E+00
         21   -1    0    0  503  502  0.00000000000E+00  0.00000000000E+00  0.11868423172E+03  0.11868423172E+03  0.00000000000E+00 0. -1.
         21   -1    0    0  501  503 -0.00000000000E+00 -0.00000000000E+00 -0.36462841719E+03  0.36462841719E+03  0.00000000000E+00 0. -1.
          6    2    1    2  501    0  0.57646982710E+02  0.83635306309E+02 -0.19180827139E+03  0.27623494691E+03  0.17087215643E+03 0.  0.
         24    2    3    3    0    0  0.33240081147E+02  0.12032347896E+03 -0.16729127313E+03  0.22559018350E+03  0.85568208128E+02 0.  0.
         -6    2    1    2    0  502 -0.57646982710E+02 -0.83635306309E+02 -0.54135914076E+02  0.20707770201E+03  0.17214075171E+03 0.  0.
        -24    2    5    5    0    0 -0.49228473064E+02  0.45957511596E+00 -0.74996179008E+02  0.11989937305E+03  0.79547338249E+02 0.  0.
          5    1    3    3  501    0  0.24406901564E+02 -0.36688172655E+02 -0.24516998262E+02  0.50644763406E+02  0.47000000000E+01 0. -1.
        -13    1    4    4    0    0  0.43720057158E+02  0.27102292697E+02 -0.30750615058E+02  0.59929775519E+02  0.00000000000E+00 0.  1.
         14    1    4    4    0    0 -0.10479976011E+02  0.93221186267E+02 -0.13654065807E+03  0.16566040798E+03  0.00000000000E+00 0. -1.
         -5    1    5    5    0  502 -0.84185096457E+01 -0.84094881425E+02  0.20860264932E+02  0.87178328956E+02  0.47000000000E+01 0.  1.
         13    1    6    6    0    0 -0.18666712001E+02 -0.39195330978E+02 -0.32513567251E+02  0.54238843671E+02  0.00000000000E+00 0. -1.
        -14    1    6    6    0    0 -0.30561761063E+02  0.39654906094E+02 -0.42482611757E+02  0.65660529378E+02  0.00000000000E+00 0.  1.
</event>
<event>
12    1  0.8133495E-002  0.2213767E+03  0.7818608E-02  0.1132923E+00
         21   -1    0    0  501  502  0.00000000000E+00  0.00000000000E+00  0.33237014619E+02  0.33237014619E+02  0.00000000000E+00 0.  1.
         21   -1    0    0  502  503 -0.00000000000E+00 -0.00000000000E+00 -0.15776691028E+04  0.15776691028E+04  0.00000000000E+00 0.  1.
         -6    2    1    2    0  503 -0.13818508646E+03 -0.10040238282E+02 -0.56347070817E+03  0.60527553568E+03  0.17223039983E+03 0.  0.
        -24    2    3    3    0    0 -0.23046481595E+02 -0.11744646690E+01 -0.11697193568E+03  0.14406111255E+03  0.80861923862E+02 0.  0.
          6    2    1    2  501    0  0.13818508646E+03  0.10040238282E+02 -0.98096138003E+03  0.10056305818E+04  0.17266068850E+03 0.  0.
         24    2    5    5    0    0  0.10904453282E+03 -0.58294892023E+02 -0.61048066093E+03  0.62774579095E+03  0.78032916838E+02 0.  0.
          5    1    5    5  501    0  0.29140553641E+02  0.68335130305E+02 -0.37048071910E+03  0.37788479081E+03  0.47000000000E+01 0. -1.
        -11    1    6    6    0    0  0.80367969536E+02 -0.10371437117E+01 -0.38772542121E+03  0.39596854477E+03  0.00000000000E+00 0.  1.
         12    1    6    6    0    0  0.28676563280E+02 -0.57257748312E+02 -0.22275523972E+03  0.23177724617E+03  0.00000000000E+00 0. -1.
         -5    1    3    3    0  503 -0.11513860486E+03 -0.88657736130E+01 -0.44649877249E+03  0.46121442314E+03  0.47000000000E+01 0.  1.
         11    1    4    4    0    0 -0.27853027423E+02 -0.11259702898E+02 -0.37346904012E+01  0.30274080636E+02  0.00000000000E+00 0. -1.
        -12    1    4    4    0    0  0.48065458273E+01  0.10085238229E+02 -0.11323724528E+03  0.11378703191E+03  0.00000000000E+00 0.  1.
</event>
<event>
12    1  0.8133495E-002  0.1944000E+03  0.7818608E-02  0.1154945E+00
         21   -1    0    0  503  502  0.00000000000E+00  0.00000000000E+00  0.24682783608E+03  0.24682783608E+03  0.00000000000E+00 0. -1.
         21   -1    0    0  501  503 -0.00000000000E+00 -0.00000000000E+00 -0.15585735250E+03  0.15585735250E+03  0.00000000000E+00 0.  1.
          6    2    1    2  501    0 -0.13877835491E+02  0.89937174813E+02  0.12403302983E+02  0.19300883963E+03  0.16975653307E+03 0.  0.
         24    2    3    3    0    0 -0.40884853990E+02 -0.25567948001E+01 -0.21176176030E+02  0.90860981728E+02  0.78289073847E+02 0.  0.
         -6    2    1    2    0  502  0.13877835491E+02 -0.89937174813E+02  0.78567180590E+02  0.20967634895E+03  0.17178498105E+03 0.  0.
        -24    2    5    5    0    0  0.10747564972E+02 -0.48554407836E+02  0.12113758447E+03  0.15003859847E+03  0.73240876455E+02 0.  0.
          5    1    3    3  501    0  0.27007018499E+02  0.92493969613E+02  0.33579479013E+02  0.10214785790E+03  0.47000000000E+01 0. -1.
        -11    1    4    4    0    0 -0.31234831077E+02  0.18887855288E+02 -0.44624911280E+02  0.57651959694E+02  0.00000000000E+00 0.  1.
         12    1    4    4    0    0 -0.96500229125E+01 -0.21444650088E+02  0.23448735250E+02  0.33209022034E+02  0.00000000000E+00 0. -1.
         -5    1    5    5    0  502  0.31302705184E+01 -0.41382766977E+02 -0.42570403885E+02  0.59637750487E+02  0.47000000000E+01 0.  1.
         13    1    6    6    0    0 -0.35982397577E+01  0.18140234618E+02  0.39746824547E+02  0.43838630259E+02  0.00000000000E+00 0. -1.
        -14    1    6    6    0    0  0.14345804730E+02 -0.66694642455E+02  0.81390759927E+02  0.10619996821E+03  0.00000000000E+00 0.  1.
</event>
<event>
12    1  0.8133495E-002  0.1934913E+03  0.7818608E-02  0.1155491E+00
         21   -1    0    0  503  502  0.00000000000E+00  0.00000000000E+00  0.63388061555E+03  0.63388061555E+03  0.00000000000E+00 0. -1.
         21   -1    0    0  501  503 -0.00000000000E+00 -0.00000000000E+00 -0.59120022681E+02  0.59120022681E+02  0.00000000000E+00 0. -1.
          6    2    1    2  501    0  0.80793677106E+02 -0.38451840987E+02  0.31053292653E+03  0.36588190864E+03  0.17155964057E+03 0.  0.
         24    2    3    3    0    0  0.10129756268E+03 -0.45140822180E+02  0.14805853645E+03  0.20191493262E+03  0.80928485509E+02 0.  0.
         -6    2    1    2    0  502 -0.80793677106E+02  0.38451840987E+02  0.26422766633E+03  0.32711872959E+03  0.17083395815E+03 0.  0.
        -24    2    5    5    0    0 -0.96107043198E+02 -0.27815648600E+02  0.18299901115E+03  0.22107126955E+03  0.73304802574E+02 0.  0.
          5    1    3    3  501    0 -0.20503885572E+02  0.66889811928E+01  0.16247439008E+03  0.16396697602E+03  0.47000000000E+01 0. -1.
        -13    1    4    4    0    0  0.74104581146E+02  0.35180485972E+01  0.11575736420E+03  0.13749048324E+03  0.00000000000E+00 0.  1.
         14    1    4    4    0    0  0.27192981533E+02 -0.48658870777E+02  0.32301172249E+02  0.64424449386E+02  0.00000000000E+00 0. -1.
         -5    1    5    5    0  502  0.15313366092E+02  0.66267489587E+02  0.81228655183E+02  0.10604746004E+03  0.47000000000E+01 0.  1.
         13    1    6    6    0    0 -0.52422109447E+01  0.15088287459E+02  0.51223599370E+01  0.16774259010E+02  0.00000000000E+00 0. -1.
        -14    1    6    6    0    0 -0.90864832253E+02 -0.42903936058E+02  0.17787665121E+03  0.20429701054E+03  0.00000000000E+00 0.  1.
</event>
<event>
12    1  0.8133495E-002  0.2750075E+03  0.7818608E-02  0.1098450E+00
         21   -1    0    0  503  502  0.00000000000E+00  0.00000000000E+00  0.41871407964E+03  0.41871407964E+03  0.00000000000E+00 0.  1.
         21   -1    0    0  501  503 -0.00000000000E+00 -0.00000000000E+00 -0.18877452607E+03  0.18877452607E+03  0.00000000000E+00 0. -1.
          6    2    1    2  501    0  0.14711954182E+03 -0.15628953953E+03  0.17814353737E+03  0.32766485882E+03  0.17192603075E+03 0.  0.
         24    2    3    3    0    0  0.89163990843E+02 -0.74391071792E+02  0.17681019567E+03  0.22721550488E+03  0.82950536718E+02 0.  0.
         -6    2    1    2    0  502 -0.14711954182E+03  0.15628953953E+03  0.51796016198E+02  0.27982374688E+03  0.17189509089E+03 0.  0.
        -24    2    5    5    0    0 -0.97173322877E+01  0.83851549765E+02 -0.34990288877E+01  0.11488053982E+03  0.77844629107E+02 0.  0.
          5    1    3    3  501    0  0.57955550978E+02 -0.81898467739E+02  0.13333416988E+01  0.10044935394E+03  0.47000000000E+01 0. -1.
        -13    1    4    4    0    0  0.10403925117E+03 -0.74133363212E+02  0.15597381654E+03  0.20161287849E+03  0.00000000000E+00 0.  1.
         14    1    4    4    0    0 -0.14875260323E+02 -0.25770858046E+00  0.20836379125E+02  0.25602626397E+02  0.00000000000E+00 0. -1.
         -5    1    5    5    0  502 -0.13740220953E+03  0.72437989766E+02  0.55295045085E+02  0.16494320707E+03  0.47000000000E+01 0.  1.
         11    1    6    6    0    0  0.33569771337E+02  0.31825477622E+02  0.55871089783E+01  0.46594059281E+02  0.00000000000E+00 0. -1.
        -12    1    6    6    0    0 -0.43287103625E+02  0.52026072143E+02 -0.90861378659E+01  0.68286480537E+02  0.00000000000E+00 0.  1.
</event>
<event>
12    1  0.8133495E-002  0.1740952E+03  0.7818608E-02  0.1173645E+00
         21   -1    0    0  501  502  0.00000000000E+00  0.00000000000E+00  0.71742122837E+03  0.71742122837E+03  0.00000000000E+00 0.  1.
         21   -1    0    0  502  503 -0.00000000000E+00 -0.00000000000E+00 -0.43862244019E+02  0.43862244019E+02  0.00000000000E+00 0.  1.
         -6    2    1    2    0  503 -0.88877487612E+01 -0.30605922022E+02  0.26371970700E+03  0.31600194855E+03  0.17115324445E+03 0.  0.
        -24    2    3    3    0    0  0.59425528956E+02 -0.62347307326E+01  0.13674899126E+03  0.16969982439E+03  0.80792811737E+02 0.  0.
          6    2    1    2  501    0  0.88877487612E+01  0.30605922022E+02  0.40983927735E+03  0.44528152384E+03  0.17114814540E+03 0.  0.
         24    2    5    5    0    0  0.25104949051E+01  0.68041679706E+02  0.38755212171E+03  0.40099933073E+03  0.77251818386E+02 0.  0.
          5    1    5    5  501    0  0.63772538560E+01 -0.37435757684E+02  0.22287155644E+02  0.44282193112E+02  0.47000000000E+01 0. -1.
        -11    1    6    6    0    0 -0.24151106014E+01  0.84338631609E+02  0.29213112689E+03  0.30407142720E+03  0.00000000000E+00 0.  1.
         12    1    6    6    0    0  0.49256055066E+01 -0.16296951903E+02  0.95420994818E+02  0.96927903531E+02  0.00000000000E+00 0. -1.
         -5    1    3    3    0  503 -0.68313277717E+02 -0.24371191289E+02  0.12697071574E+03  0.14630212416E+03  0.47000000000E+01 0.  1.
         13    1    4    4    0    0  0.34868717796E+02 -0.34599176313E+02  0.11787820732E+03  0.12770357177E+03  0.00000000000E+00 0. -1.
        -14    1    4    4    0    0  0.24556811160E+02  0.28364445581E+02  0.18870783940E+02  0.41996252618E+02  0.00000000000E+00 0.  1.
</event>
<event>
12    1  0.8133495E-002  0.1804542E+03  0.7818608E-02  0.1167788E+00
         21   -1    0    0  503  502  0.00000000000E+00  0.00000000000E+00  0.55963554571E+02  0.55963554571E+02  0.00000000000E+00 0.  1.
         21   -1    0    0  501  503 -0.00000000000E+00 -0.00000000000E+00 -0.57689273039E+03  0.57689273039E+03  0.00000000000E+00 0.  1.
          6    2    1    2  501    0 -0.48285645091E+02 -0.27462006535E+02 -0.26974539515E+03  0.32357158531E+03  0.16985384098E+03 0.  0.
         24    2    3    3    0    0  0.25608088131E+02 -0.45269079672E+02 -0.10341106840E+03  0.14063286903E+03  0.79866707898E+02 0.  0.
         -6    2    1    2    0  502  0.48285645091E+02  0.27462006535E+02 -0.25118378067E+03  0.30928469965E+03  0.17169178326E+03 0.  0.
        -24    2    5    5    0    0  0.76583943223E+02 -0.32105214136E+02 -0.17207771376E+03  0.20618810767E+03  0.77504522684E+02 0.  0.
          5    1    3    3  501    0 -0.73893733221E+02  0.17807073137E+02 -0.16633432674E+03  0.18293871629E+03  0.47000000000E+01 0. -1.
        -13    1    4    4    0    0  0.10465983608E+02 -0.64950642932E+02 -0.53163762987E+02  0.84584327893E+02  0.00000000000E+00 0.  1.
         14    1    4    4    0    0  0.15142104523E+02  0.19681563259E+02 -0.50247305417E+02  0.56048541135E+02  0.00000000000E+00 0. -1.
         -5    1    5    5    0  502 -0.28298298132E+02  0.59567220672E+02 -0.79106066913E+02  0.10309659198E+03  0.47000000000E+01 0.  1.
         11    1    6    6    0    0 -0.87544385471E+01 -0.21904736378E+02 -0.17673868191E+02  0.29475808503E+02  0.00000000000E+00 0. -1.
        -12    1    6    6    0    0  0.85338381770E+02 -0.10200477758E+02 -0.15440384557E+03  0.17671229916E+03  0.00000000000E+00 0.  1.
</event>
<event>
12    1  0.8133495E-002  0.1834251E+03  0.7818608E-02  0.1164987E+00
         21   -1    0    0  503  502  0.00000000000E+00  0.00000000000E+00  0.19158163289E+02  0.19158163289E+02  0.00000000000E+00 0. -1.
         21   -1    0    0  501  503 -0.00000000000E+00 -0.00000000000E+00 -0.22734146175E+04  0.22734146175E+04  0.00000000000E+00 0.  1.
          6    2    1    2  501    0 -0.86089075611E+01 -0.61749355701E+02 -0.16789895625E+04  0.16887708560E+04  0.17045221278E+03 0.  0.
         24    2    3    3    0    0  0.13646197933E+02 -0.61107435850E+02 -0.51042952936E+03  0.51998929263E+03  0.77007938426E+02 0.  0.
         -6    2    1    2    0  502  0.86089075611E+01  0.61749355701E+02 -0.57526689172E+03  0.60380192480E+03  0.17250412016E+03 0.  0.
        -24    2    5    5    0    0 -0.26140600325E+02  0.34464400041E+02 -0.14520522908E+03  0.17145123292E+03  0.80248619065E+02 0.  0.
          5    1    3    3  501    0 -0.22255105494E+02 -0.64191985164E+00 -0.11685600332E+04  0.11687815634E+04  0.47000000000E+01 0. -1.
        -13    1    4    4    0    0 -0.24088326482E+01 -0.26898997865E+02 -0.43289162184E+03  0.43373323002E+03  0.00000000000E+00 0.  1.
         14    1    4    4    0    0  0.16055030581E+02 -0.34208437984E+02 -0.77537907515E+02  0.86256062616E+02  0.00000000000E+00 0. -1.
         -5    1    5    5    0  502  0.34749507886E+02  0.27284955660E+02 -0.43006166263E+03  0.43235069188E+03  0.47000000000E+01 0.  1.
         11    1    6    6    0    0 -0.30666968799E+02  0.26617964721E+02 -0.15373576554E+03  0.15900837911E+03  0.00000000000E+00 0. -1.
        -12    1    6    6    0    0  0.45263684743E+01  0.78464353195E+01  0.85305364554E+01  0.12442853813E+02  0.00000000000E+00 0.  1.
</event>
<event>
12    1  0.8133495E-002  0.1873453E+03  0.7818608E-02  0.1161003E+00
         21   -1    0    0  501  502  0.00000000000E+00  0.00000000000E+00  0.22918358956E+03  0.22918358956E+03  0.00000000000E+00 0. -1.
         21   -1    0    0  502  503 -0.00000000000E+00 -0.00000000000E+00 -0.16002556968E+03  0.16002556968E+03  0.00000000000E+00 0. -1.
         -6    2    1    2    0  503  0.14354613852E+02 -0.72623452979E+02 -0.71102955655E+01  0.18693425993E+03  0.17150405352E+03 0.  0.
        -24    2    3    3    0    0  0.90914646419E+01 -0.54170136020E+02  0.61974133098E+02  0.11508042267E+03  0.79910275572E+02 0.  0.
          6    2    1    2  501    0 -0.14354613852E+02  0.72623452979E+02  0.76268315441E+02  0.20227489931E+03  0.17209897759E+03 0.  0.
         24    2    5    5    0    0 -0.46332556733E+02  0.54227148055E+02 -0.10155973098E+02  0.10818844696E+03  0.80711256135E+02 0.  0.
          5    1    5    5  501    0  0.31977942882E+02  0.18396304923E+02  0.86424288539E+02  0.94086452347E+02  0.47000000000E+01 0. -1.
        -13    1    6    6    0    0 -0.23281057857E+02  0.21282485909E+02 -0.45019557905E+02  0.54970105106E+02  0.00000000000E+00 0.  1.
         14    1    6    6    0    0 -0.23051498877E+02  0.32944662146E+02  0.34863584807E+02  0.53218341857E+02  0.00000000000E+00 0. -1.
         -5    1    3    3    0  503  0.52631492099E+01 -0.18453316959E+02 -0.69084428663E+02  0.71853837268E+02  0.47000000000E+01 0.  1.
         11    1    4    4    0    0  0.43014764277E+02 -0.26945633507E+02  0.46720788646E+02  0.68986732077E+02  0.00000000000E+00 0. -1.
        -12    1    4    4    0    0 -0.33923299635E+02 -0.27224502513E+02  0.15253344451E+02  0.46093690589E+02  0.00000000000E+00 0.  1.
</event>
<event>
12    1  0.8133495E-002  0.1984170E+03  0.7818608E-02  0.1151313E+00
         21   -1    0    0  501  502  0.00000000000E+00  0.00000000000E+00  0.74496407116E+02  0.74496407116E+02  0.00000000000E+00 0. -1.
         21   -1    0    0  502  503 -0.00000000000E+00 -0.00000000000E+00 -0.66368881213E+03  0.66368881213E+03  0.00000000000E+00 0.  1.
         -6    2    1    2    0  503 -0.83576277812E+02 -0.55366909019E+02 -0.46232205169E+03  0.50267425980E+03  0.16996835931E+03 0.  0.
        -24    2    3    3    0    0 -0.61825491558E+02 -0.16494205012E+01 -0.17409450271E+03  0.20864046028E+03  0.96937267324E+02 0.  0.
          6    2    1    2  501    0  0.83576277812E+02  0.55366909019E+02 -0.12687035333E+03  0.23551095944E+03  0.17122744125E+03 0.  0.
         24    2    5    5    0    0  0.72764849146E+02  0.10029448085E+03 -0.76285390788E+02  0.16683562082E+03  0.81614688419E+02 0.  0.
          5    1    5    5  501    0  0.10811428666E+02 -0.44927571828E+02 -0.50584962541E+02  0.68675338627E+02  0.47000000000E+01 0. -1.
        -11    1    6    6    0    0  0.85605650689E+01 -0.14488307323E+02 -0.76753254348E+01  0.18496079150E+02  0.00000000000E+00 0.  1.
         12    1    6    6    0    0  0.64204284077E+02  0.11478278817E+03 -0.68610065353E+02  0.14833954167E+03  0.00000000000E+00 0. -1.
         -5    1    3    3    0  503 -0.21750786253E+02 -0.53717488518E+02 -0.28822754898E+03  0.29403379953E+03  0.47000000000E+01 0.  1.
         13    1    4    4    0    0 -0.16486402637E+02 -0.47611641726E+02 -0.73581346400E+02  0.89178946158E+02  0.00000000000E+00 0. -1.
        -14    1    4    4    0    0 -0.45339088921E+02  0.45962221225E+02 -0.10051315631E+03  0.11946151412E+03  0.00000000000E+00 0.  1.
</event>
<event>
12    1  0.8133495E-002  0.1849616E+03  0.7818608E-02  0.1163317E+00
         21   -1    0    0  501  502  0.00000000000E+00  0.00000000000E+00  0.33252894461E+03  0.33252894461E+03  0.00000000000E+00 0. -1.
         21   -1    0    0  502  503 -0.00000000000E+00 -0.00000000000E+00 -0.27088027242E+03  0.27088027242E+03  0.00000000000E+00 0. -1.
         -6    2    1    2    0  503  0.65210526524E+02  0.78200131586E+01 -0.20713219164E+03  0.27769502108E+03  0.17290811011E+03 0.  0.
        -24    2    3    3    0    0  0.39943975800E+02 -0.61547103552E+02 -0.10104453032E+03  0.14836259146E+03  0.80111761179E+02 0.  0.
          6    2    1    2  501    0 -0.65210526524E+02 -0.78200131586E+01  0.26878086383E+03  0.32571419596E+03  0.17185173642E+03 0.  0.
         24    2    5    5    0    0 -0.76376928910E+02 -0.56803402193E+02  0.23483104182E+03  0.26489691750E+03  0.77231450410E+02 0.  0.
          5    1    5    5  501    0  0.11166402386E+02  0.48983389034E+02  0.33949822015E+02  0.60817278452E+02  0.47000000000E+01 0. -1.
        -13    1    6    6    0    0 -0.55408947067E+02 -0.45985332149E+02  0.77426766890E+02  0.10573413081E+03  0.00000000000E+00 0.  1.
         14    1    6    6    0    0 -0.20967981843E+02 -0.10818070044E+02  0.15740427493E+03  0.15916278669E+03  0.00000000000E+00 0. -1.
         -5    1    3    3    0  503  0.25266550725E+02  0.69367116711E+02 -0.10608766132E+03  0.12933242962E+03  0.47000000000E+01 0.  1.
         13    1    4    4    0    0 -0.65217957309E+01 -0.40202097027E+02 -0.85846798707E+02  0.95017973422E+02  0.00000000000E+00 0. -1.
        -14    1    4    4    0    0  0.46465771531E+02 -0.21345006526E+02 -0.15197731610E+02  0.53344618038E+02  0.00000000000E+00 0.  1.
</event>
<event>
12    1  0.8133495E-002  0.2111035E+03  0.7818608E-02  0.1140753E+00
         21   -1    0    0  501  502  0.00000000000E+00  0.00000000000E+00  0.35327236658E+03  0.35327236658E+03  0.00000000000E+00 0. -1.
         21   -1    0    0  502  503 -0.00000000000E+00 -0.00000000000E+00 -0.14382611130E+03  0.14382611130E+03  0.00000000000E+00 0.  1.
         -6    2    1    2    0  503 -0.92430527906E+02  0.79567390075E+02  0.17087095301E+02  0.21149960785E+03  0.17194691985E+03 0.  0.
        -24    2    3    3    0    0 -0.12432601606E+03  0.88424497605E+02 -0.34595909666E+01  0.17225643220E+03  0.79902813584E+02 0.  0.
          6    2    1    2  501    0  0.92430527906E+02 -0.79567390075E+02  0.19235915998E+03  0.28559887002E+03  0.17230872315E+03 0.  0.
         24    2    5    5    0    0  0.90828189406E+02  0.98639412368E+01  0.12002800429E+03  0.17047104283E+03  0.79414087559E+02 0.  0.
          5    1    5    5  501    0  0.16023385006E+01 -0.89431331312E+02  0.72331155688E+02  0.11512782718E+03  0.47000000000E+01 0. -1.
        -13    1    6    6    0    0  0.62682695600E+02  0.20920492248E+02  0.24841442046E+02  0.70596632827E+02  0.00000000000E+00 0.  1.
         14    1    6    6    0    0  0.28145493806E+02 -0.11056551011E+02  0.95186562246E+02  0.99874410006E+02  0.00000000000E+00 0. -1.
         -5    1    3    3    0  503  0.31895488158E+02 -0.88571075296E+01  0.20546686268E+02  0.39243175652E+02  0.47000000000E+01 0.  1.
         11    1    4    4    0    0 -0.50374149038E+02  0.76254361039E+02  0.20330097880E+02  0.93624758203E+02  0.00000000000E+00 0. -1.
        -12    1    4    4    0    0 -0.73951867026E+02  0.12170136566E+02 -0.23789688846E+02  0.78631674000E+02  0.00000000000E+00 0.  1.
</event>
<event>
12    1  0.8133495E-002  0.1799221E+03  0.7818608E-02  0.1168932E+00
         21   -1    0    0  503  502  0.00000000000E+00  0.00000000000E+00  0.32473338834E+02  0.32473338834E+02  0.00000000000E+00 0.  1.
         21   -1    0    0  501  503 -0.00000000000E+00 -0.00000000000E+00 -0.98383011507E+03  0.98383011507E+03  0.00000000000E+00 0.  1.
          6    2    1    2  501    0 -0.13034917982E+02  0.36526390386E+02 -0.52278019649E+03  0.55149184598E+03  0.17128933434E+03 0.  0.
         24    2    3    3    0    0  0.39522646360E+02  0.61887983335E+02 -0.24960196999E+03  0.27211049119E+03  0.79691994203E+02 0.  0.
         -6    2    1    2    0  502  0.13034917982E+02 -0.36526390386E+02 -0.42857657975E+03  0.46481160793E+03  0.17569251513E+03 0.  0.
        -24    2    5    5    0    0  0.71567509188E+02 -0.12357061161E+02 -0.19889563748E+03  0.22651421820E+03  0.80464968199E+02 0.  0.
          5    1    3    3  501    0 -0.52557564342E+02 -0.25361592949E+02 -0.27317822650E+03  0.27938135479E+03  0.47000000000E+01 0. -1.
        -13    1    4    4    0    0  0.15414848509E+02  0.71629595137E+02 -0.22376334057E+03  0.23545370890E+03  0.00000000000E+00 0.  1.
         14    1    4    4    0    0  0.24107797850E+02 -0.97416118023E+01 -0.25838629420E+02  0.36656782292E+02  0.00000000000E+00 0. -1.
         -5    1    5    5    0  502 -0.58532591206E+02 -0.24169329226E+02 -0.22968094227E+03  0.23829738973E+03  0.47000000000E+01 0.  1.
         11    1    6    6    0    0  0.61673237899E+02  0.24037411984E+02 -0.15560665245E+03  0.16910001695E+03  0.00000000000E+00 0. -1.
        -12    1    6    6    0    0  0.98942712888E+01 -0.36394473144E+02 -0.43288985029E+02  0.57414201246E+02  0.00000000000E+00 0.  1.
</event>
<event>
12    1  0.8133495E-002  0.2627944E+03  0.7818608E-02  0.1105734E+00
         21   -1    0    0  501  502  0.00000000000E+00  0.00000000000E+00  0.27391108400E+03  0.27391108400E+03  0.00000000000E+00 0.  1.
         21   -1    0    0  502  503 -0.00000000000E+00 -0.00000000000E+00 -0.29630461428E+03  0.29630461428E+03  0.00000000000E+00 0. -1.
         -6    2    1    2    0  503  0.11417816202E+03  0.16311733599E+03 -0.12330248608E+03  0.28871344479E+03  0.16884321765E+03 0.  0.
        -24    2    3    3    0    0  0.87246791544E+02  0.13358157609E+03 -0.21158923364E+02  0.17892702836E+03  0.78173789304E+02 0.  0.
          6    2    1    2  501    0 -0.11417816202E+03 -0.16311733599E+03  0.10090895581E+03  0.28150225349E+03  0.17151379937E+03 0.  0.
         24    2    5    5    0    0 -0.12302266191E+03 -0.93201568614E+02  0.24103586745E+02  0.17715861725E+03  0.83564855264E+02 0.  0.
          5    1    5    5  501    0  0.88444998965E+01 -0.69915767378E+02  0.76805369060E+02  0.10434363624E+03  0.47000000000E+01 0. -1.
        -11    1    6    6    0    0 -0.51259590071E+02 -0.43413640543E+02  0.52564728160E+02  0.85295606018E+02  0.00000000000E+00 0.  1.
         12    1    6    6    0    0 -0.71763071843E+02 -0.49787928072E+02 -0.28461141415E+02  0.91863011232E+02  0.00000000000E+00 0. -1.
         -5    1    3    3    0  503  0.26931370474E+02  0.29535759902E+02 -0.10214356272E+03  0.10978641643E+03  0.47000000000E+01 0.  1.
         11    1    4    4    0    0  0.13927283845E+02  0.81117500453E+02 -0.31611676395E+02  0.88166411969E+02  0.00000000000E+00 0. -1.
        -12    1    4    4    0    0  0.73319507699E+02  0.52464075638E+02  0.10452753031E+02  0.90760616391E+02  0.00000000000E+00 0.  1.
</event>
<event>
12    1  0.8133495E-002  0.1795097E+03  0.7818608E-02  0.1168820E+00
         21   -1    0    0  503  502  0.00000000000E+00  0.00000000000E+00  0.33485026776E+03  0.33485026776E+03  0.00000000000E+00 0.  1.
         21   -1    0    0  501  503 -0.00000000000E+00 -0.00000000000E+00 -0.15957022624E+03  0.15957022624E+03  0.00000000000E+00 0.  1.
          6    2    1    2  501    0  0.53884887050E+02  0.12967523730E+01  0.24515700649E+03  0.30385142436E+03  0.17122636374E+03 0.  0.
         24    2    3    3    0    0  0.83356513981E+02 -0.40026339995E+02  0.21004527230E+03  0.24195555508E+03  0.76635878679E+02 0.  0.
         -6    2    1    2    0  502 -0.53884887050E+02 -0.12967523730E+01 -0.69876964964E+02  0.19056906964E+03  0.16890387044E+03 0.  0.
        -24    2    5    5    0    0 -0.79278145527E+02  0.33165878271E+02 -0.10388077901E+02  0.11712856194E+03  0.78906197601E+02 0.  0.
          5    1    3    3  501    0 -0.29471626931E+02  0.41323092368E+02  0.35111734183E+02  0.61895869282E+02  0.47000000000E+01 0.  1.
        -11    1    4    4    0    0  0.96406757453E+02 -0.25922867906E+02  0.16306150016E+03  0.19119443192E+03  0.00000000000E+00 0.  1.
         12    1    4    4    0    0 -0.13050243472E+02 -0.14103472090E+02  0.46983772142E+02  0.50761123159E+02  0.00000000000E+00 0. -1.
         -5    1    5    5    0  502  0.25393258477E+02 -0.34462630644E+02 -0.59488887063E+02  0.73440507698E+02  0.47000000000E+01 0.  1.
         13    1    6    6    0    0 -0.30892812506E+02  0.12934605626E+02  0.34510505636E+02  0.48089966589E+02  0.00000000000E+00 0. -1.
        -14    1    6    6    0    0 -0.48385333021E+02  0.20231272645E+02 -0.44898583537E+02  0.69038595351E+02  0.00000000000E+00 0.  1.
</event>
<event>
12    1  0.8133495E-002  0.1852568E+03  0.7818608E-02  0.1162892E+00
         21   -1    0    0  503  502  0.00000000000E+00  0.00000000000E+00  0.14473667897E+03  0.14473667897E+03  0.00000000000E+00 0.  1.
         21   -1    0    0  501  503 -0.00000000000E+00 -0.00000000000E+00 -0.28278590058E+03  0.28278590058E+03  0.00000000000E+00 0.  1.
          6    2    1    2  501    0 -0.22892224220E+01  0.68308712945E+02  0.17349798274E+02  0.18571904499E+03  0.17181160429E+03 0.  0.
         24    2    3    3    0    0 -0.15635492814E+02  0.10931597806E+03 -0.42339542021E+01  0.13726631445E+03  0.81422742640E+02 0.  0.
         -6    2    1    2    0  502  0.22892224220E+01 -0.68308712945E+02 -0.15539901989E+03  0.24180353456E+03  0.17218819106E+03 0.  0.
        -24    2    5    5    0    0 -0.11410496141E+02  0.20065699302E+02 -0.11870566963E+03  0.14502434784E+03  0.80051194578E+02 0.  0.
          5    1    3    3  501    0  0.13346270392E+02 -0.41007265118E+02  0.21583752476E+02  0.48452730540E+02  0.47000000000E+01 0. -1.
        -11    1    4    4    0    0  0.37479199298E+01  0.79540318947E+01  0.27842199842E+02  0.29197630370E+02  0.00000000000E+00 0.  1.
         12    1    4    4    0    0 -0.19383412743E+02  0.10136194617E+03 -0.32076154044E+02  0.10806868408E+03  0.00000000000E+00 0. -1.
         -5    1    5    5    0  502  0.13699718563E+02 -0.88374412247E+02 -0.36693350260E+02  0.96779186720E+02  0.47000000000E+01 0.  1.
         13    1    6    6    0    0 -0.92967960103E+01 -0.30463471940E+02 -0.56451140319E+02  0.64816547131E+02  0.00000000000E+00 0. -1.
        -14    1    6    6    0    0 -0.21137001309E+01  0.50529171243E+02 -0.62254529311E+02  0.80207800708E+02  0.00000000000E+00 0.  1.
</event>
<event>
12    1  0.8133495E-002  0.2190970E+03  0.7818608E-02  0.1134845E+00
         21   -1    0    0  501  502  0.00000000000E+00  0.00000000000E+00  0.25450912504E+03  0.25450912504E+03  0.00000000000E+00 0. -1.
         21   -1    0    0  502  503 -0.00000000000E+00 -0.00000000000E+00 -0.19218241247E+03  0.19218241247E+03  0.00000000000E+00 0.  1.
         -6    2    1    2    0  503 -0.64227716956E+02  0.12154828984E+03 -0.43312479230E+01  0.21913980707E+03  0.17059985037E+03 0.  0.
        -24    2    3    3    0    0  0.17016566914E+02  0.88379077513E+01  0.23631353010E+02  0.77336207179E+02  0.71096947423E+02 0.  0.
          6    2    1    2  501    0  0.64227716956E+02 -0.12154828984E+03  0.66657960490E+02  0.22755173044E+03  0.16863368567E+03 0.  0.
         24    2    5    5    0    0  0.38570625202E+02 -0.13120953226E+03  0.90820112680E+02  0.19070711672E+03  0.97042655647E+02 0.  0.
          5    1    5    5  501    0  0.25657091754E+02  0.96612424216E+01 -0.24162152189E+02  0.36844613728E+02  0.47000000000E+01 0. -1.
        -13    1    6    6    0    0  0.61875912410E+01  0.15283763053E+02  0.26878275395E+01  0.16706409408E+02  0.00000000000E+00 0.  1.
         14    1    6    6    0    0  0.32383033961E+02 -0.14649329531E+03  0.88132285140E+02  0.17400070731E+03  0.00000000000E+00 0. -1.
         -5    1    3    3    0  503 -0.81244283869E+02  0.11271038209E+03 -0.27962600933E+02  0.14180359989E+03  0.47000000000E+01 0.  1.
         13    1    4    4    0    0  0.31785291956E+02  0.32037565853E+02  0.20789428011E+02  0.49688134676E+02  0.00000000000E+00 0. -1.
        -14    1    4    4    0    0 -0.14768725043E+02 -0.23199658102E+02  0.28419249988E+01  0.27648072503E+02  0.00000000000E+00 0.  1.
</event>
<event>
12    1  0.8133495E-002  0.1842183E+03  0.7818608E-02  0.1164714E+00
         21   -1    0    0  501  502  0.00000000000E+00  0.00000000000E+00  0.29462675085E+02  0.29462675085E+02  0.00000000000E+00 0.  1.
         21   -1    0    0  502  503 -0.00000000000E+00 -0.00000000000E+00 -0.20205509343E+04  0.20205509343E+04  0.00000000000E+00 0.  1.
         -6    2    1    2    0  503  0.36857217187E+02  0.36428018662E+02 -0.16829672542E+04  0.16930195370E+04  0.17677929520E+03 0.  0.
        -24    2    3    3    0    0  0.92445437035E+02  0.37906762863E+02 -0.11864909318E+04  0.11934166292E+04  0.80619092472E+02 0.  0.
          6    2    1    2  501    0 -0.36857217187E+02 -0.36428018662E+02 -0.30812100508E+03  0.35699407238E+03  0.17268688119E+03 0.  0.
         24    2    5    5    0    0 -0.59134166794E+02 -0.83956481981E+02 -0.18990086669E+03  0.22755950037E+03  0.71940576093E+02 0.  0.
          5    1    5    5  501    0  0.22276949607E+02  0.47528463319E+02 -0.11822013839E+03  0.12943457201E+03  0.47000000000E+01 0. -1.
        -11    1    6    6    0    0 -0.59100959683E+02 -0.33114763290E+02 -0.70445456646E+02  0.97734709010E+02  0.00000000000E+00 0.  1.
         12    1    6    6    0    0 -0.33207111366E-01 -0.50841718692E+02 -0.11945541004E+03  0.12982479136E+03  0.00000000000E+00 0. -1.
         -5    1    3    3    0  503 -0.55588219848E+02 -0.14787442009E+01 -0.49647632231E+03  0.49960290780E+03  0.47000000000E+01 0.  1.
         13    1    4    4    0    0 -0.18784977767E+01  0.33618975931E+02 -0.34857035232E+03  0.35019288230E+03  0.00000000000E+00 0. -1.
        -14    1    4    4    0    0  0.94323934812E+02  0.42877869320E+01 -0.83792057953E+03  0.84322374694E+03  0.00000000000E+00 0.  1.
</event>
<event>
12    1  0.8133495E-002  0.3140296E+03  0.7818608E-02  0.1078567E+00
         21   -1    0    0  501  502  0.00000000000E+00  0.00000000000E+00  0.26170896883E+03  0.26170896883E+03  0.00000000000E+00 0. -1.
         21   -1    0    0  502  503 -0.00000000000E+00 -0.00000000000E+00 -0.42904225532E+03  0.42904225532E+03  0.00000000000E+00 0. -1.
         -6    2    1    2    0  503  0.25694049140E+03  0.30753203020E+02 -0.20562391192E+03  0.37439578009E+03  0.17586026095E+03 0.  0.
        -24    2    3    3    0    0  0.26537749279E+03  0.31500459302E+02 -0.21657930691E+03  0.35977209847E+03  0.10541287417E+03 0.  0.
          6    2    1    2  501    0 -0.25694049140E+03 -0.30753203020E+02  0.38290625424E+02  0.31635544406E+03  0.17790564739E+03 0.  0.
         24    2    5    5    0    0 -0.15350452132E+03  0.33284845316E+02 -0.26693339494E+02  0.17835226570E+03  0.80159075055E+02 0.  0.
          5    1    5    5  501    0 -0.10343597008E+03 -0.64038048336E+02  0.64983964918E+02  0.13800317836E+03  0.47000000000E+01 0. -1.
        -13    1    6    6    0    0 -0.19487541819E+02 -0.21775055905E+02 -0.15386297526E+02  0.33025073768E+02  0.00000000000E+00 0.  1.
         14    1    6    6    0    0 -0.13401697950E+03  0.55059901221E+02 -0.11307041968E+02  0.14532719193E+03  0.00000000000E+00 0. -1.
         -5    1    3    3    0  503 -0.84370013943E+01 -0.74725628205E+00  0.10955394998E+02  0.14623681617E+02  0.47000000000E+01 0.  1.
         11    1    4    4    0    0  0.18239892901E+03  0.44017705877E+02 -0.90502857691E+02  0.20832113427E+03  0.00000000000E+00 0. -1.
        -12    1    4    4    0    0  0.82978563786E+02 -0.12517246575E+02 -0.12607644922E+03  0.15145096420E+03  0.00000000000E+00 0.  1.
</event>
<event>
12    1  0.8133495E-002  0.1765433E+03  0.7818608E-02  0.1171544E+00
         21   -1    0    0  501  502  0.00000000000E+00  0.00000000000E+00  0.73247381969E+03  0.73247381969E+03  0.00000000000E+00 0.  1.
         21   -1    0    0  502  503 -0.00000000000E+00 -0.00000000000E+00 -0.63204802864E+02  0.63204802864E+02  0.00000000000E+00 0.  1.
         -6    2    1    2    0  503 -0.32091725650E+01  0.33264698020E+02  0.10444753981E+03  0.20390937811E+03  0.17190958957E+03 0.  0.
        -24    2    3    3    0    0 -0.21909924596E+02  0.49179071003E+02 -0.22687073689E+00  0.96290571127E+02  0.79832304220E+02 0.  0.
          6    2    1    2  501    0  0.32091725650E+01 -0.33264698020E+02  0.56482147702E+03  0.59176924444E+03  0.17335137393E+03 0.  0.
         24    2    5    5    0    0  0.23161685378E+01 -0.88289292582E+02  0.34093594982E+03  0.36117149347E+03  0.80044749964E+02 0.  0.
          5    1    5    5  501    0  0.89300402720E+00  0.55024594562E+02  0.22388552720E+03  0.23059775097E+03  0.47000000000E+01 0. -1.
        -11    1    6    6    0    0 -0.30304634103E+01 -0.51618966569E+02  0.30567789333E+03  0.31002044431E+03  0.00000000000E+00 0.  1.
         12    1    6    6    0    0  0.53466319481E+01 -0.36670326013E+02  0.35258056483E+02  0.51151049159E+02  0.00000000000E+00 0. -1.
         -5    1    3    3    0  503  0.18700752031E+02 -0.15914372983E+02  0.10467441055E+03  0.10761880699E+03  0.47000000000E+01 0.  1.
         11    1    4    4    0    0 -0.26172402924E+02  0.52763136036E+02  0.29621542392E+02  0.65927073140E+02  0.00000000000E+00 0. -1.
        -12    1    4    4    0    0  0.42624783280E+01 -0.35840650324E+01 -0.29848413129E+02  0.30363497987E+02  0.00000000000E+00 0.  1.
</event>
<event>
12    1  0.8133495E-002  0.1761341E+03  0.7818608E-02  0.1173202E+00
         21   -1    0    0  501  502  0.00000000000E+00  0.00000000000E+00  0.49754575696E+02  0.49754575696E+02  0.00000000000E+00 0.  1.
         21   -1    0    0  502  503 -0.00000000000E+00 -0.00000000000E+00 -0.60311819263E+03  0.60311819263E+03  0.00000000000E+00 0.  1.
         -6    2    1    2    0  503 -0.28831263682E+02  0.18490130390E+02 -0.26408966288E+03  0.31743752216E+03  0.17277182566E+03 0.  0.
        -24    2    3    3    0    0 -0.56592913023E+02  0.61936536340E+02 -0.12948995605E+03  0.17322424106E+03  0.78740692373E+02 0.  0.
          6    2    1    2  501    0  0.28831263682E+02 -0.18490130390E+02 -0.28927395405E+03  0.33543524617E+03  0.16632575625E+03 0.  0.
         24    2    5    5    0    0 -0.13216359421E+02 -0.26026891207E+02 -0.27864376754E+03  0.29116453082E+03  0.79261362567E+02 0.  0.
          5    1    5    5  501    0  0.42047623103E+02  0.75367608168E+01 -0.10630186509E+02  0.44270715348E+02  0.47000000000E+01 0. -1.
        -11    1    6    6    0    0  0.26394367495E+01  0.18460096228E+02 -0.18829840629E+03  0.18921953279E+03  0.00000000000E+00 0.  1.
         12    1    6    6    0    0 -0.15855796170E+02 -0.44486987434E+02 -0.90345361252E+02  0.10194499803E+03  0.00000000000E+00 0. -1.
         -5    1    3    3    0  503  0.27761649341E+02 -0.43446405950E+02 -0.13459970684E+03  0.14421328110E+03  0.47000000000E+01 0.  1.
         13    1    4    4    0    0 -0.60939327870E+02  0.90086450524E+01 -0.76272978966E+02  0.98042463694E+02  0.00000000000E+00 0. -1.
        -14    1    4    4    0    0  0.43464148464E+01  0.52927891288E+02 -0.53216977079E+02  0.75181777364E+02  0.00000000000E+00 0.  1.
</event>
<event>
12    1  0.8133495E-002  0.2736210E+03  0.7818608E-02  0.1099255E+00
         21   -1    0    0  501  502  0.00000000000E+00  0.00000000000E+00  0.44465868490E+03  0.44465868490E+03  0.00000000000E+00 0.  1.
         21   -1    0    0  502  503 -0.00000000000E+00 -0.00000000000E+00 -0.17164977993E+03  0.17164977993E+03  0.00000000000E+00 0. -1.
         -6    2    1    2    0  503 -0.16288769739E+03  0.13714551526E+03  0.17988534704E+03  0.32727478650E+03  0.17148980577E+03 0.  0.
        -24    2    3    3    0    0 -0.99143780527E+02  0.15970251432E+03  0.13525312479E+03  0.24611919269E+03  0.83347867103E+02 0.  0.
          6    2    1    2  501    0  0.16288769739E+03 -0.13714551526E+03  0.93123557926E+02  0.28903367833E+03  0.17183473413E+03 0.  0.
         24    2    5    5    0    0  0.17818947997E+03 -0.11565440004E+03  0.11507491192E+03  0.25439317421E+03  0.79663170339E+02 0.  0.
          5    1    5    5  501    0 -0.15301782584E+02 -0.21491115224E+02 -0.21951353997E+02  0.34640504126E+02  0.47000000000E+01 0. -1.
        -13    1    6    6    0    0  0.71692071741E+02 -0.80150510241E+02  0.24848956343E+02  0.11036905397E+03  0.00000000000E+00 0.  1.
         14    1    6    6    0    0  0.10649740823E+03 -0.35503889798E+02  0.90225955580E+02  0.14402412024E+03  0.00000000000E+00 0. -1.
         -5    1    3    3    0  503 -0.63743916859E+02 -0.22556999053E+02  0.44632222248E+02  0.81155593804E+02  0.47000000000E+01 0.  1.
         11    1    4    4    0    0 -0.10757536827E+03  0.10719404337E+03  0.91903328053E+02  0.17750843501E+03  0.00000000000E+00 0. -1.
        -12    1    4    4    0    0  0.84315877409E+01  0.52508470949E+02  0.43349796735E+02  0.68610757686E+02  0.00000000000E+00 0.  1.
</event>
<event>
12    1  0.8133495E-002  0.2631117E+03  0.7818608E-02  0.1105440E+00
         21   -1    0    0  501  502  0.00000000000E+00  0.00000000000E+00  0.35279260123E+03  0.35279260123E+03  0.00000000000E+00 0. -1.
         21   -1    0    0  502  503 -0.00000000000E+00 -0.00000000000E+00 -0.19546800404E+03  0.19546800404E+03  0.00000000000E+00 0. -1.
         -6    2    1    2    0  503  0.19942556345E+03  0.61546804224E+01  0.77294774840E+02  0.27324691335E+03  0.16994398485E+03 0.  0.
        -24    2    3    3    0    0  0.17213511494E+03 -0.23623773418E+02  0.55218239615E+01  0.19075466298E+03  0.78538337394E+02 0.  0.
          6    2    1    2  501    0 -0.19942556345E+03 -0.61546804224E+01  0.80029822348E+02  0.27501369193E+03  0.17152061927E+03 0.  0.
         24    2    5    5    0    0 -0.74885154494E+02 -0.61522374708E+02  0.21949450355E+02  0.12678645204E+03  0.78741584291E+02 0.  0.
          5    1    5    5  501    0 -0.12454040896E+03  0.55367694285E+02  0.58080371994E+02  0.14822723989E+03  0.47000000000E+01 0. -1.
        -11    1    6    6    0    0  0.44041134967E+01  0.13123462388E+02 -0.47997118236E+01  0.14651235932E+02  0.00000000000E+00 0.  1.
         12    1    6    6    0    0 -0.79289267991E+02 -0.74645837096E+02  0.26749162178E+02  0.11213521611E+03  0.00000000000E+00 0. -1.
         -5    1    3    3    0  503  0.27290448508E+02  0.29778453840E+02  0.71772950879E+02  0.82492250368E+02  0.47000000000E+01 0.  1.
         13    1    4    4    0    0  0.17080006507E+03 -0.68751374207E+01  0.14770923972E+02  0.17157537683E+03  0.00000000000E+00 0. -1.
        -14    1    4    4    0    0  0.13350498781E+01 -0.16748635997E+02 -0.92491000110E+01  0.19179286143E+02  0.00000000000E+00 0.  1.
</event>
<event>
12    1  0.8133495E-002  0.1759970E+03  0.7818608E-02  0.1172211E+00
         21   -1    0    0  503  502  0.00000000000E+00  0.00000000000E+00  0.22732117240E+02  0.22732117240E+02  0.00000000000E+00 0.  1.
         21   -1    0    0  501  503 -0.00000000000E+00 -0.00000000000E+00 -0.22304754510E+04  0.22304754510E+04  0.00000000000E+00 0.  1.
          6    2    1    2  501    0 -0.23417240154E+01  0.35669919563E+02 -0.18161537388E+04  0.18246614295E+04  0.17232847300E+03 0.  0.
         24    2    3    3    0    0 -0.32714287871E+02 -0.10020063866E+02 -0.47245519460E+03  0.47983507088E+03  0.76532071911E+02 0.  0.
         -6    2    1    2    0  502  0.23417240154E+01 -0.35669919563E+02 -0.39158959494E+03  0.42854613870E+03  0.17038648800E+03 0.  0.
        -24    2    5    5    0    0  0.46697215786E+01 -0.65380072049E+02 -0.38335175321E+03  0.39727211162E+03  0.81056794037E+02 0.  0.
          5    1    3    3  501    0  0.30372563855E+02  0.45689983429E+02 -0.13436985442E+04  0.13448263587E+04  0.47000000000E+01 0. -1.
        -13    1    4    4    0    0 -0.19071558933E+02 -0.42260414432E+02 -0.32444415688E+03  0.32774025984E+03  0.00000000000E+00 0.  1.
         14    1    4    4    0    0 -0.13642728938E+02  0.32240350567E+02 -0.14801103772E+03  0.15209481104E+03  0.00000000000E+00 0. -1.
         -5    1    5    5    0  502 -0.23279975632E+01  0.29710152486E+02 -0.82378417325E+01  0.31274027080E+02  0.47000000000E+01 0.  1.
         13    1    6    6    0    0  0.15365230162E+02 -0.74215039485E+02 -0.20808661380E+03  0.22145880255E+03  0.00000000000E+00 0. -1.
        -14    1    6    6    0    0 -0.10695508584E+02  0.88349674359E+01 -0.17526513941E+03  0.17581330907E+03  0.00000000000E+00 0.  1.
</event>
<event>
12    1  0.8133495E-002  0.2223001E+03  0.7818608E-02  0.1132647E+00
         21   -1    0    0  503  502  0.00000000000E+00  0.00000000000E+00  0.36008093319E+03  0.36008093319E+03  0.00000000000E+00 0. -1.
         21   -1    0    0  501  503 -0.00000000000E+00 -0.00000000000E+00 -0.23359688316E+03  0.23359688316E+03  0.00000000000E+00 0.  1.
          6    2    1    2  501    0  0.13594126655E+03  0.18859003775E+02 -0.12914327872E+03  0.25491140387E+03  0.17165706339E+03 0.  0.
         24    2    3    3    0    0  0.84590090693E+01 -0.88732833954E+01 -0.85719891470E+02  0.11733056842E+03  0.79172422592E+02 0.  0.
         -6    2    1    2    0  502 -0.13594126655E+03 -0.18859003775E+02  0.25562732874E+03  0.33876641248E+03  0.17487613058E+03 0.  0.
        -24    2    5    5    0    0 -0.15923510884E+03  0.13079436329E+02  0.18106155425E+03  0.25423942406E+03  0.79545627003E+02 0.  0.
          5    1    3    3  501    0  0.12748225748E+03  0.27732287171E+02 -0.43423387250E+02  0.13758083545E+03  0.47000000000E+01 0. -1.
        -11    1    4    4    0    0  0.34619888390E+02 -0.29454784534E+02 -0.59953951708E+02  0.75236941255E+02  0.00000000000E+00 0.  1.
         12    1    4    4    0    0 -0.26160879321E+02  0.20581501138E+02 -0.25765939762E+02  0.42093627163E+02  0.00000000000E+00 0. -1.
         -5    1    5    5    0  502  0.23293842292E+02 -0.31938440105E+02  0.74565774493E+02  0.84526988417E+02  0.47000000000E+01 0.  1.
         13    1    6    6    0    0 -0.64605450118E+02 -0.21677814889E+02  0.11511946568E+03  0.13377699063E+03  0.00000000000E+00 0. -1.
        -14    1    6    6    0    0 -0.94629658723E+02  0.34757251219E+02  0.65942088568E+02  0.12046243343E+03  0.00000000000E+00 0.  1.
</event>
<event>
12    1  0.8133495E-002  0.4179556E+03  0.7818608E-02  0.1037832E+00
         21   -1    0    0  501  502  0.00000000000E+00  0.00000000000E+00  0.98520224986E+03  0.98520224986E+03  0.00000000000E+00 0. -1.
         21   -1    0    0  502  503 -0.00000000000E+00 -0.00000000000E+00 -0.22049941426E+03  0.22049941426E+03  0.00000000000E+00 0. -1.
         -6    2    1    2    0  503 -0.28628251933E+03  0.25154949277E+03  0.11441886793E+03  0.43333419584E+03  0.17161590766E+03 0.  0.
        -24    2    3    3    0    0 -0.11462554271E+03  0.15934258029E+03  0.11121968115E+03  0.23839687995E+03  0.77033641749E+02 0.  0.
          6    2    1    2  501    0  0.28628251933E+03 -0.25154949277E+03  0.65028396767E+03  0.77236746827E+03  0.16866368681E+03 0.  0.
         24    2    5    5    0    0  0.16340256078E+03 -0.80754461108E+02  0.24451604551E+03  0.31526778143E+03  0.79899922647E+02 0.  0.
          5    1    5    5  501    0  0.12287995855E+03 -0.17079503166E+03  0.40576792216E+03  0.45709968684E+03  0.47000000000E+01 0. -1.
        -13    1    6    6    0    0  0.35754213107E+02 -0.18893892371E+01  0.10287807881E+03  0.10893040276E+03  0.00000000000E+00 0.  1.
         14    1    6    6    0    0  0.12764834767E+03 -0.78865071871E+02  0.14163796670E+03  0.20633737867E+03  0.00000000000E+00 0. -1.
         -5    1    3    3    0  503 -0.17165697661E+03  0.92206912484E+02  0.31991867757E+01  0.19493731589E+03  0.47000000000E+01 0.  1.
         11    1    4    4    0    0 -0.36368132187E+02  0.28163296860E+02 -0.52684585215E+01  0.46298693113E+02  0.00000000000E+00 0. -1.
        -12    1    4    4    0    0 -0.78257410528E+02  0.13117928343E+03  0.11648813967E+03  0.19209818684E+03  0.00000000000E+00 0.  1.
</event>
<event>
12    1  0.8133495E-002  0.1786436E+03  0.7818608E-02  0.1170119E+00
         21   -1    0    0  503  502  0.00000000000E+00  0.00000000000E+00  0.32403121234E+02  0.32403121234E+02  0.00000000000E+00 0.  1.
         21   -1    0    0  501  503 -0.00000000000E+00 -0.00000000000E+00 -0.10904921553E+04  0.10904921553E+04  0.00000000000E+00 0.  1.
          6    2    1    2  501    0  0.38717623412E+02 -0.22487568466E+02 -0.71582264838E+03  0.73681263162E+03  0.16877809421E+03 0.  0.
         24    2    3    3    0    0 -0.41636980911E+02 -0.29968417187E+02 -0.43206313044E+03  0.44176283997E+03  0.76446804270E+02 0.  0.
         -6    2    1    2    0  502 -0.38717623412E+02  0.22487568466E+02 -0.34226638568E+03  0.38608264491E+03  0.17294156479E+03 0.  0.
        -24    2    5    5    0    0  0.12751571585E+02 -0.21025150497E+02 -0.80995999594E+02  0.11621834680E+03  0.79634745255E+02 0.  0.
          5    1    3    3  501    0  0.80354604323E+02  0.74808487206E+01 -0.28375951793E+03  0.29504979165E+03  0.47000000000E+01 0. -1.
        -11    1    4    4    0    0  0.20082431555E+02 -0.89904386218E+00 -0.54580218216E+02  0.58164530063E+02  0.00000000000E+00 0.  1.
         12    1    4    4    0    0 -0.61719412466E+02 -0.29069373325E+02 -0.37748291223E+03  0.38359830991E+03  0.00000000000E+00 0. -1.
         -5    1    5    5    0  502 -0.51469194997E+02  0.43512718963E+02 -0.26127038609E+03  0.26986429811E+03  0.47000000000E+01 0.  1.
         11    1    6    6    0    0  0.29792295634E+00 -0.36279257407E+02 -0.88104784011E+02  0.95282350106E+02  0.00000000000E+00 0. -1.
        -12    1    6    6    0    0  0.12453648629E+02  0.15254106910E+02  0.71087844163E+01  0.20935996696E+02  0.00000000000E+00 0.  1.
</event>
<event>
12    1  0.8133495E-002  0.2346034E+03  0.7818608E-02  0.1123575E+00
         21   -1    0    0  501  502  0.00000000000E+00  0.00000000000E+00  0.20495302043E+03  0.20495302043E+03  0.00000000000E+00 0. -1.
         21   -1    0    0  502  503 -0.00000000000E+00 -0.00000000000E+00 -0.33094404643E+03  0.33094404643E+03  0.00000000000E+00 0. -1.
         -6    2    1    2    0  503 -0.14319253656E+03 -0.70500920494E+02  0.54099563991E+02  0.24076031449E+03  0.17194267618E+03 0.  0.
        -24    2    3    3    0    0 -0.58888743463E+02 -0.99474134956E+02  0.57531613394E+02  0.15142697441E+03  0.79102809100E+02 0.  0.
          6    2    1    2  501    0  0.14319253656E+03  0.70500920494E+02 -0.18009059000E+03  0.29513675237E+03  0.17087597747E+03 0.  0.
         24    2    5    5    0    0  0.16878572403E+03  0.48729687331E+02 -0.17160421325E+03  0.26016381385E+03  0.85872003383E+02 0.  0.
          5    1    5    5  501    0 -0.25593187476E+02  0.21771233163E+02 -0.84863767470E+01  0.34972938523E+02  0.47000000000E+01 0. -1.
        -11    1    6    6    0    0  0.48256685210E+02 -0.20772211128E+02 -0.71657863491E+02  0.88854047869E+02  0.00000000000E+00 0.  1.
         12    1    6    6    0    0  0.12052903883E+03  0.69501898458E+02 -0.99946349758E+02  0.17130976598E+03  0.00000000000E+00 0. -1.
         -5    1    3    3    0  503 -0.84303793096E+02  0.28973214462E+02 -0.34320494037E+01  0.89333340079E+02  0.47000000000E+01 0.  1.
         13    1    4    4    0    0 -0.69604913564E+02 -0.10609870306E+03  0.56122947171E+02  0.13875000534E+03  0.00000000000E+00 0. -1.
        -14    1    4    4    0    0  0.10716170101E+02  0.66245681049E+01  0.14086662233E+01  0.12676969068E+02  0.00000000000E+00 0.  1.
</event>
<event>
12    1  0.8133495E-002  0.1847702E+03  0.7818608E-02  0.1163499E+00
         21   -1    0    0  503  502  0.00000000000E+00  0.00000000000E+00  0.31529236118E+03  0.31529236118E+03  0.00000000000E+00 0.  1.
         21   -1    0    0  501  503 -0.00000000000E+00 -0.00000000000E+00 -0.13497727789E+03  0.13497727789E+03  0.00000000000E+00 0. -1.
          6    2    1    2  501    0  0.28090889480E+02 -0.62267442513E+02 -0.11251920528E+02  0.18411564718E+03  0.17060373194E+03 0.  0.
         24    2    3    3    0    0 -0.18091391579E+02 -0.92976268057E+02  0.58352488227E+01  0.12589283029E+03  0.82722848825E+02 0.  0.
         -6    2    1    2    0  502 -0.28090889480E+02  0.62267442513E+02  0.19156700382E+03  0.26615399189E+03  0.17167905516E+03 0.  0.
        -24    2    5    5    0    0 -0.49284175772E+02 -0.20243755217E+02  0.12802399261E+03  0.15977233273E+03  0.79361930504E+02 0.  0.
          5    1    3    3  501    0  0.46182281059E+02  0.30708825544E+02 -0.17087169351E+02  0.58222816889E+02  0.47000000000E+01 0. -1.
        -11    1    4    4    0    0  0.10019981167E+02  0.78911919851E+01  0.16258090566E+02  0.20663892237E+02  0.00000000000E+00 0.  1.
         12    1    4    4    0    0 -0.28111372746E+02 -0.10086746004E+03 -0.10422841744E+02  0.10522893805E+03  0.00000000000E+00 0. -1.
         -5    1    5    5    0  502  0.21193286292E+02  0.82511197730E+02  0.63543011203E+02  0.10638165917E+03  0.47000000000E+01 0.  1.
         13    1    6    6    0    0  0.20840665571E+02  0.26206573310E+01  0.37723070905E+02  0.43176744491E+02  0.00000000000E+00 0. -1.
        -14    1    6    6    0    0 -0.70124841344E+02 -0.22864412548E+02  0.90300921708E+02  0.11659558824E+03  0.00000000000E+00 0.  1.
</event>
<event>
12    1  0.8133495E-002  0.1777065E+03  0.7818608E-02  0.1172494E+00
         21   -1    0    0  503  502  0.00000000000E+00  0.00000000000E+00  0.18239342370E+03  0.18239342370E+03  0.00000000000E+00 0.  1.
         21   -1    0    0  501  503 -0.00000000000E+00 -0.00000000000E+00 -0.50883036646E+03  0.50883036646E+03  0.00000000000E+00 0.  1.
          6    2    1    2  501    0  0.19860838465E+02  0.56024771781E+02 -0.44923197113E+03  0.48310347287E+03  0.16747051578E+03 0.  0.
         24    2    3    3    0    0  0.45556111863E+02  0.22010361613E+02 -0.42147368026E+03  0.43201688083E+03  0.80241552972E+02 0.  0.
         -6    2    1    2    0  502 -0.19860838465E+02 -0.56024771781E+02  0.12279502837E+03  0.20812031728E+03  0.15716939751E+03 0.  0.
        -24    2    5    5    0    0  0.40651500627E+02 -0.29269519636E+02  0.44329678159E+02  0.10537554669E+03  0.81422577900E+02 0.  0.
          5    1    3    3  501    0 -0.25695273398E+02  0.34014410168E+02 -0.27758290866E+02  0.51086592036E+02  0.47000000000E+01 0. -1.
        -13    1    4    4    0    0 -0.17504333778E+02  0.26012789051E+02 -0.12357388352E+03  0.12748949597E+03  0.00000000000E+00 0.  1.
         14    1    4    4    0    0  0.63060445641E+02 -0.40024274377E+01 -0.29789979675E+03  0.30452738486E+03  0.00000000000E+00 0. -1.
         -5    1    5    5    0  502 -0.60512339092E+02 -0.26755252145E+02  0.78465350214E+02  0.10274477059E+03  0.47000000000E+01 0.  1.
         11    1    6    6    0    0  0.34004727918E+01 -0.50349511990E+02  0.12370315672E+02  0.51958264815E+02  0.00000000000E+00 0. -1.
        -12    1    6    6    0    0  0.37251027835E+02  0.21079992354E+02  0.31959362487E+02  0.53417281876E+02  0.00000000000E+00 0.  1.
</event>
<event>
12    1  0.8133495E-002  0.1897786E+03  0.7818608E-02  0.1161795E+00
         21   -1    0    0  501  502  0.00000000000E+00  0.00000000000E+00  0.27167452923E+03  0.27167452923E+03  0.00000000000E+00 0.  1.
         21   -1    0    0  502  503 -0.00000000000E+00 -0.00000000000E+00 -0.16818637690E+03  0.16818637690E+03  0.00000000000E+00 0.  1.
         -6    2    1    2    0  503  0.57540430200E+02  0.51974313466E+02 -0.63060199033E+02  0.18736485231E+03  0.15848270824E+03 0.  0.
        -24    2    3    3    0    0  0.28946064004E+02 -0.21481999648E+02 -0.69057232020E+01  0.90468604341E+02  0.82689348941E+02 0.  0.
          6    2    1    2  501    0 -0.57540430200E+02 -0.51974313466E+02  0.16654835137E+03  0.25249605382E+03  0.17321568486E+03 0.  0.
         24    2    5    5    0    0  0.24422891448E+02  0.69702150724E+01  0.96799801015E+02  0.12969787054E+03  0.82500149221E+02 0.  0.
          5    1    5    5  501    0 -0.81963321648E+02 -0.58944528538E+02  0.69748550352E+02  0.12279818328E+03  0.47000000000E+01 0. -1.
        -13    1    6    6    0    0  0.14567138222E+02  0.44380923152E+02  0.43430951450E+02  0.63781779527E+02  0.00000000000E+00 0.  1.
         14    1    6    6    0    0  0.98557532263E+01 -0.37410708080E+02  0.53368849565E+02  0.65916091014E+02  0.00000000000E+00 0. -1.
         -5    1    3    3    0  503  0.28594366196E+02  0.73456313114E+02 -0.56154475831E+02  0.96896247968E+02  0.47000000000E+01 0.  1.
         11    1    4    4    0    0  0.23407863442E+01 -0.36506906489E+02 -0.33768125250E+02  0.49784734457E+02  0.00000000000E+00 0. -1.
        -12    1    4    4    0    0  0.26605277659E+02  0.15024906841E+02  0.26862402048E+02  0.40683869884E+02  0.00000000000E+00 0.  1.
</event>
<event>
12    1  0.8133495E-002  0.2705989E+03  0.7818608E-02  0.1101265E+00
         21   -1    0    0  503  502  0.00000000000E+00  0.00000000000E+00  0.14475293497E+04  0.14475293497E+04  0.00000000000E+00 0.  1.
         21   -1    0    0  501  503 -0.00000000000E+00 -0.00000000000E+00 -0.50950899938E+02  0.50950899938E+02  0.00000000000E+00 0. -1.
          6    2    1    2  501    0  0.19729354710E+03  0.61582760100E+02  0.78877232585E+03  0.83315925375E+03  0.17110049682E+03 0.  0.
         24    2    3    3    0    0  0.91901727637E+02  0.37323878059E+02  0.22812875490E+03  0.26216080138E+03  0.82743927564E+02 0.  0.
         -6    2    1    2    0  502 -0.19729354710E+03 -0.61582760100E+02  0.60780612386E+03  0.66532099584E+03  0.17466128143E+03 0.  0.
        -24    2    5    5    0    0 -0.19042734241E+03 -0.93599057995E+02  0.44287634014E+03  0.49710651472E+03  0.77149711154E+02 0.  0.
          5    1    3    3  501    0  0.10539181946E+03  0.24258882041E+02  0.56064357095E+03  0.57099845238E+03  0.47000000000E+01 0. -1.
        -13    1    4    4    0    0 -0.46297109170E+00  0.24975409680E+02  0.10393055042E+03  0.10689033980E+03  0.00000000000E+00 0.  1.
         14    1    4    4    0    0  0.92364698729E+02  0.12348468379E+02  0.12419820448E+03  0.15527046158E+03  0.00000000000E+00 0. -1.
         -5    1    5    5    0  502 -0.68662046884E+01  0.32016297895E+02  0.16492978372E+03  0.16821448111E+03  0.47000000000E+01 0.  1.
         13    1    6    6    0    0 -0.10607500456E+03 -0.41769803834E+02  0.15308795504E+03  0.19087311252E+03  0.00000000000E+00 0. -1.
        -14    1    6    6    0    0 -0.84352337854E+02 -0.51829254161E+02  0.28978838510E+03  0.30623340221E+03  0.00000000000E+00 0.  1.
</event>
<event>
12    1  0.8133495E-002  0.2168663E+03  0.7818608E-02  0.1136336E+00
         21   -1    0    0  501  502  0.00000000000E+00  0.00000000000E+00  0.10595360127E+04  0.10595360127E+04  0.00000000000E+00 0. -1.
         21   -1    0    0  502  503 -0.00000000000E+00 -0.00000000000E+00 -0.44956029662E+02  0.44956029662E+02  0.00000000000E+00 0. -1.
         -6    2    1    2    0  503 -0.68125901567E+02  0.11199246807E+03  0.57530159278E+03  0.61481940724E+03  0.17276437568E+03 0.  0.
        -24    2    3    3    0    0 -0.69340940599E+01  0.53666917759E+02  0.46932457606E+03  0.47917455774E+03  0.80090444923E+02 0.  0.
          6    2    1    2  501    0  0.68125901567E+02 -0.11199246807E+03  0.43927839023E+03  0.48967263508E+03  0.17213463934E+03 0.  0.
         24    2    5    5    0    0  0.26821833045E+02 -0.46774935809E+02  0.38021049303E+03  0.39235635140E+03  0.80474729742E+02 0.  0.
          5    1    5    5  501    0  0.41304068522E+02 -0.65217532260E+02  0.59067897202E+02  0.97316283686E+02  0.47000000000E+01 0. -1.
        -11    1    6    6    0    0  0.31160481268E+02  0.14614446115E+02  0.11163861763E+03  0.11682353604E+03  0.00000000000E+00 0.  1.
         12    1    6    6    0    0 -0.43386482226E+01 -0.61389381925E+02  0.26857187540E+03  0.27553281535E+03  0.00000000000E+00 0. -1.
         -5    1    3    3    0  503 -0.61191807507E+02  0.58325550311E+02  0.10597701671E+03  0.13564484950E+03  0.47000000000E+01 0.  1.
         13    1    4    4    0    0 -0.39754701281E+02  0.89775528952E+01  0.22211941830E+03  0.22582751983E+03  0.00000000000E+00 0. -1.
        -14    1    4    4    0    0  0.32820607221E+02  0.44689364863E+02  0.24720515777E+03  0.25334703791E+03  0.00000000000E+00 0.  1.
</event>
<event>
12    1  0.8133495E-002  0.1883506E+03  0.7818608E-02  0.1164386E+00
         21   -1    0    0  503  502  0.00000000000E+00  0.00000000000E+00  0.42255202053E+02  0.42255202053E+02  0.00000000000E+00 0.  1.
         21   -1    0    0  501  503 -0.00000000000E+00 -0.00000000000E+00 -0.79479328741E+03  0.79479328741E+03  0.00000000000E+00 0. -1.
          6    2    1    2  501    0 -0.16129367081E+01  0.74741015306E+02 -0.44574428132E+03  0.47705074226E+03  0.15264542388E+03 0.  0.
         24    2    3    3    0    0  0.44937766964E+02  0.27615763048E+02 -0.18625797401E+03  0.20920192093E+03  0.79318204511E+02 0.  0.
         -6    2    1    2    0  502  0.16129367081E+01 -0.74741015306E+02 -0.30679380404E+03  0.35999774721E+03  0.17287891387E+03 0.  0.
        -24    2    5    5    0    0 -0.30630937088E+02  0.13956519229E+02 -0.16900570368E+03  0.19292120597E+03  0.86733068086E+02 0.  0.
          5    1    3    3  501    0 -0.46550703672E+02  0.47125252258E+02 -0.25948630730E+03  0.26784882133E+03  0.47000000000E+01 0. -1.
        -11    1    4    4    0    0  0.37551775787E+02  0.53205461582E+02 -0.15506657578E+03  0.16818620613E+03  0.00000000000E+00 0.  1.
         12    1    4    4    0    0  0.73859911768E+01 -0.25589698534E+02 -0.31191398231E+02  0.41015714797E+02  0.00000000000E+00 0. -1.
         -5    1    5    5    0  502  0.32243873796E+02 -0.88697534536E+02 -0.13778810036E+03  0.16707654124E+03  0.47000000000E+01 0.  1.
         13    1    6    6    0    0  0.23810302312E+02  0.17844849838E+02 -0.10331733873E+03  0.10751670403E+03  0.00000000000E+00 0. -1.
        -14    1    6    6    0    0 -0.54441239400E+02 -0.38883306083E+01 -0.65688364949E+02  0.85404501943E+02  0.00000000000E+00 0.  1.
</event>
<event>
12    1  0.8133495E-002  0.2197099E+03  0.7818608E-02  0.1134193E+00
         21   -1    0    0  501  502  0.00000000000E+00  0.00000000000E+00  0.84099242054E+02  0.84099242054E+02  0.00000000000E+00 0.  1.
         21   -1    0    0  502  503 -0.00000000000E+00 -0.00000000000E+00 -0.65483476926E+03  0.65483476926E+03  0.00000000000E+00 0.  1.
         -6    2    1    2    0  503 -0.84792363316E+02 -0.10677339700E+03 -0.41594614322E+03  0.47017355385E+03  0.17164403134E+03 0.  0.
        -24    2    3    3    0    0  0.13865148917E+02 -0.80357075493E+02 -0.25830898024E+03  0.28228344790E+03  0.79441259729E+02 0.  0.
          6    2    1    2  501    0  0.84792363316E+02  0.10677339700E+03 -0.15478938398E+03  0.26876045746E+03  0.17228501653E+03 0.  0.
         24    2    5    5    0    0  0.85581973811E+02  0.70461702385E+02 -0.33156294615E+02  0.14173344821E+03  0.81852945735E+02 0.  0.
          5    1    5    5  501    0 -0.78961049582E+00  0.36311694610E+02 -0.12163308936E+03  0.12702700925E+03  0.47000000000E+01 0. -1.
        -11    1    6    6    0    0  0.20956452884E+02  0.65274381850E+02  0.76934045582E+00  0.68560263478E+02  0.00000000000E+00 0.  1.
         12    1    6    6    0    0  0.64625520927E+02  0.51873205355E+01 -0.33925635071E+02  0.73173184736E+02  0.00000000000E+00 0. -1.
         -5    1    3    3    0  503 -0.98657512233E+02 -0.26416321503E+02 -0.15763716298E+03  0.18789010595E+03  0.47000000000E+01 0.  1.
         11    1    4    4    0    0 -0.40984864758E+01  0.15327056293E+02 -0.47502966325E+02  0.50082412639E+02  0.00000000000E+00 0. -1.
        -12    1    4    4    0    0  0.17963635393E+02 -0.95684131786E+02 -0.21080601392E+03  0.23220103526E+03  0.00000000000E+00 0.  1.
</event>
<event>
12    1  0.8133495E-002  0.2480046E+03  0.7818608E-02  0.1114739E+00
         21   -1    0    0  503  502  0.00000000000E+00  0.00000000000E+00  0.22132184762E+03  0.22132184762E+03  0.00000000000E+00 0.  1.
         21   -1    0    0  501  503 -0.00000000000E+00 -0.00000000000E+00 -0.38199200012E+03  0.38199200012E+03  0.00000000000E+00 0.  1.
          6    2    1    2  501    0 -0.27293854796E+02  0.17519556846E+03 -0.23880158817E+03  0.34428548172E+03  0.17340084398E+03 0.  0.
         24    2    3    3    0    0 -0.43045393631E+02  0.38327868181E+02 -0.15351050476E+03  0.18218200469E+03  0.79390656693E+02 0.  0.
         -6    2    1    2    0  502  0.27293854796E+02 -0.17519556846E+03  0.78131435675E+02  0.25902836602E+03  0.17190907901E+03 0.  0.
        -24    2    5    5    0    0  0.45313388275E+02 -0.12230357711E+03 -0.11530646524E+02  0.15327561041E+03  0.79680542206E+02 0.  0.
          5    1    3    3  501    0  0.15751538835E+02  0.13686770028E+03 -0.85291083419E+02  0.16210347703E+03  0.47000000000E+01 0. -1.
        -13    1    4    4    0    0  0.17786179141E+02  0.31439468799E+02 -0.46304105326E+02  0.58726983038E+02  0.00000000000E+00 0.  1.
         14    1    4    4    0    0 -0.60831572773E+02  0.68883993821E+01 -0.10720639943E+03  0.12345502165E+03  0.00000000000E+00 0. -1.
         -5    1    5    5    0  502 -0.18019533479E+02 -0.52891991350E+02  0.89662082199E+02  0.10575275561E+03  0.47000000000E+01 0.  1.
         11    1    6    6    0    0  0.25851987246E+02 -0.15773470458E+02 -0.30897733283E+02  0.43264275527E+02  0.00000000000E+00 0. -1.
        -12    1    6    6    0    0  0.19461401030E+02 -0.10653010665E+03  0.19367086759E+02  0.11001133488E+03  0.00000000000E+00 0.  1.
</event>
<event>
12    1  0.8133495E-002  0.2073890E+03  0.7818608E-02  0.1145313E+00
         21   -1    0    0  501  502  0.00000000000E+00  0.00000000000E+00  0.16489875260E+03  0.16489875260E+03  0.00000000000E+00 0. -1.
         21   -1    0    0  502  503 -0.00000000000E+00 -0.00000000000E+00 -0.27748141144E+03  0.27748141144E+03  0.00000000000E+00 0. -1.
         -6    2    1    2    0  503 -0.41193813922E+02  0.90143422046E+02  0.13354342721E+02  0.19974805625E+03  0.17291090383E+03 0.  0.
        -24    2    3    3    0    0 -0.48541385167E+02  0.13449346748E+03  0.17935460258E+02  0.15431689986E+03  0.55202046860E+02 0.  0.
          6    2    1    2  501    0  0.41193813922E+02 -0.90143422046E+02 -0.12593700155E+03  0.24263210779E+03  0.18217421477E+03 0.  0.
         24    2    5    5    0    0  0.35912036250E+02 -0.78664155037E+00 -0.12671838453E+03  0.15299265244E+03  0.77838997739E+02 0.  0.
          5    1    5    5  501    0  0.52817776719E+01 -0.89356780496E+02  0.78138298012E+00  0.89639455349E+02  0.47000000000E+01 0. -1.
        -13    1    6    6    0    0 -0.20376258532E+02 -0.82239239504E+00 -0.70689340159E+02  0.73572080664E+02  0.00000000000E+00 0.  1.
         14    1    6    6    0    0  0.56288294782E+02  0.35750844672E-01 -0.56029044375E+02  0.79420571776E+02  0.00000000000E+00 0. -1.
         -5    1    3    3    0  503  0.73475712452E+01 -0.44350045436E+02 -0.45811175370E+01  0.45431156394E+02  0.47000000000E+01 0.  1.
         11    1    4    4    0    0 -0.51753955165E+02  0.70001861269E+02 -0.87826324262E+00  0.87060345753E+02  0.00000000000E+00 0. -1.
        -12    1    4    4    0    0  0.32125699982E+01  0.64491606213E+02  0.18813723501E+02  0.67256554104E+02  0.00000000000E+00 0.  1.
</event>
<event>
12    1  0.8133495E-002  0.2169962E+03  0.7818608E-02  0.1136601E+00
         21   -1    0    0  501  502  0.00000000000E+00  0.00000000000E+00  0.15481751015E+03  0.15481751015E+03  0.00000000000E+00 0.  1.
         21   -1    0    0  502  503 -0.00000000000E+00 -0.00000000000E+00 -0.42996212554E+03  0.42996212554E+03  0.00000000000E+00 0.  1.
         -6    2    1    2    0  503 -0.54135712723E+01  0.13230471408E+03 -0.29729673653E+03  0.36665570338E+03  0.16887039748E+03 0.  0.
        -24    2    3    3    0    0 -0.52628080834E+02  0.10808221273E+03 -0.27142487111E+03  0.30743254147E+03  0.79948904322E+02 0.  0.
          6    2    1    2  501    0  0.54135712723E+01 -0.13230471408E+03  0.22152121145E+02  0.21812393232E+03  0.17191128310E+03 0.  0.
         24    2    5    5    0    0 -0.44070210932E+02 -0.99005963241E+02  0.59685078465E+02  0.14749628622E+03  0.80302438365E+02 0.  0.
          5    1    5    5  501    0  0.49483782204E+02 -0.33298750843E+02 -0.37532957320E+02  0.70627646103E+02  0.47000000000E+01 0. -1.
        -13    1    6    6    0    0 -0.58468654738E+02 -0.38370686501E+02  0.17039720853E+02  0.71980867293E+02  0.00000000000E+00 0.  1.
         14    1    6    6    0    0  0.14398443807E+02 -0.60635276739E+02  0.42645357611E+02  0.75515418923E+02  0.00000000000E+00 0. -1.
         -5    1    3    3    0  503  0.47214509562E+02  0.24222501358E+02 -0.25871865426E+02  0.59223161903E+02  0.47000000000E+01 0.  1.
         11    1    4    4    0    0 -0.32155739191E+02  0.18739617736E+02 -0.25861819585E+02  0.45321060756E+02  0.00000000000E+00 0. -1.
        -12    1    4    4    0    0 -0.20472341643E+02  0.89342594990E+02 -0.24556305152E+03  0.26211148072E+03  0.00000000000E+00 0.  1.
</event>
<event>
12    1  0.8133495E-002  0.1863767E+03  0.7818608E-02  0.1161925E+00
         21   -1    0    0  503  502  0.00000000000E+00  0.00000000000E+00  0.64594646004E+02  0.64594646004E+02  0.00000000000E+00 0. -1.
         21   -1    0    0  501  503 -0.00000000000E+00 -0.00000000000E+00 -0.77647024233E+03  0.77647024233E+03  0.00000000000E+00 0. -1.
          6    2    1    2  501    0  0.23702373809E+02  0.66364654707E+02 -0.12138895211E+03  0.22186318503E+03  0.17181945541E+03 0.  0.
         24    2    3    3    0    0  0.32044709709E+02  0.19819841364E+02 -0.14455500902E+03  0.16899759688E+03  0.79021184425E+02 0.  0.
         -6    2    1    2    0  502 -0.23702373809E+02 -0.66364654707E+02 -0.59048664421E+03  0.61920170330E+03  0.17254043717E+03 0.  0.
        -24    2    5    5    0    0 -0.81261624472E+01 -0.91418693437E+02 -0.57070682613E+03  0.58337357999E+03  0.78708578987E+02 0.  0.
          5    1    3    3  501    0 -0.83423358996E+01  0.46544813343E+02  0.23166056907E+02  0.52865588146E+02  0.47000000000E+01 0. -1.
        -11    1    4    4    0    0 -0.15313584220E+02  0.32632498110E+02 -0.81409181342E+02  0.89032806320E+02  0.00000000000E+00 0.  1.
         12    1    4    4    0    0  0.47358293928E+02 -0.12812656746E+02 -0.63145827676E+02  0.79964790562E+02  0.00000000000E+00 0. -1.
         -5    1    5    5    0  502 -0.15576211362E+02  0.25054038730E+02 -0.19779818081E+02  0.35828123317E+02  0.47000000000E+01 0.  1.
         11    1    6    6    0    0  0.69898699719E+01  0.98266019888E+01 -0.14628091780E+03  0.14677713481E+03  0.00000000000E+00 0. -1.
        -12    1    6    6    0    0 -0.15116032419E+02 -0.10124529543E+03 -0.42442590833E+03  0.43659644518E+03  0.00000000000E+00 0.  1.
</event>
<event>
12    1  0.8133495E-002  0.1730347E+03  0.7818608E-02  0.1175093E+00
         21   -1    0    0  501  502  0.00000000000E+00  0.00000000000E+00  0.18372993488E+03  0.18372993488E+03  0.00000000000E+00 0.  1.
         21   -1    0    0  502  503 -0.00000000000E+00 -0.00000000000E+00 -0.28234165387E+03  0.28234165387E+03  0.00000000000E+00 0.  1.
         -6    2    1    2    0  503 -0.94442665733E+00 -0.22240063092E+02 -0.20158391343E+03  0.26471545874E+03  0.17012550542E+03 0.  0.
        -24    2    3    3    0    0  0.39822197361E+02 -0.48797241898E+01 -0.44013062392E+02  0.10096576531E+03  0.81531079919E+02 0.  0.
          6    2    1    2  501    0  0.94442665733E+00  0.22240063092E+02  0.10297219444E+03  0.20135613001E+03  0.17159692863E+03 0.  0.
         24    2    5    5    0    0  0.14217212265E+02  0.69828737543E+02  0.10460565589E+03  0.15170125140E+03  0.83622632815E+02 0.  0.
          5    1    5    5  501    0 -0.13272785607E+02 -0.47588674450E+02 -0.16334614509E+01  0.49654878612E+02  0.47000000000E+01 0. -1.
        -11    1    6    6    0    0 -0.45290060498E+00  0.11308688681E+02  0.88550282998E+02  0.89270623262E+02  0.00000000000E+00 0.  1.
         12    1    6    6    0    0  0.14670112870E+02  0.58520048861E+02  0.16055372894E+02  0.62430628133E+02  0.00000000000E+00 0. -1.
         -5    1    3    3    0  503 -0.40766624018E+02 -0.17360338903E+02 -0.15757085104E+03  0.16374969343E+03  0.47000000000E+01 0.  1.
         11    1    4    4    0    0  0.52402140288E+02 -0.19194070526E+02 -0.31712300092E+01  0.55896809837E+02  0.00000000000E+00 0. -1.
        -12    1    4    4    0    0 -0.12579942927E+02  0.14314346336E+02 -0.40841832383E+02  0.45068955474E+02  0.00000000000E+00 0.  1.
</event>
<event>
12    1  0.8133495E-002  0.2097233E+03  0.7818608E-02  0.1141818E+00
         21   -1    0    0  503  502  0.00000000000E+00  0.00000000000E+00  0.14085897124E+03  0.14085897124E+03  0.00000000000E+00 0. -1.
         21   -1    0    0  501  503 -0.00000000000E+00 -0.00000000000E+00 -0.32728484786E+03  0.32728484786E+03  0.00000000000E+00 0. -1.
          6    2    1    2  501    0  0.12027108227E+03  0.17863548149E+01 -0.14374624157E+03  0.25412184279E+03  0.17160013031E+03 0.  0.
         24    2    3    3    0    0  0.10388014954E+03  0.44512121953E+02 -0.47365131049E+02  0.14732501550E+03  0.81785023594E+02 0.  0.
         -6    2    1    2    0  502 -0.12027108227E+03 -0.17863548149E+01 -0.42679635048E+02  0.21402197631E+03  0.17180084633E+03 0.  0.
        -24    2    5    5    0    0 -0.14633199534E+03  0.28859700429E+02 -0.37061872056E+02  0.17313186561E+03  0.79719040142E+02 0.  0.
          5    1    3    3  501    0  0.16390932735E+02 -0.42725767138E+02 -0.96381110519E+02  0.10679682729E+03  0.47000000000E+01 0. -1.
        -13    1    4    4    0    0  0.48171548666E+02  0.56433456433E+02 -0.15419981997E+01  0.74213279569E+02  0.00000000000E+00 0.  1.
         14    1    4    4    0    0  0.55708600873E+02 -0.11921334480E+02 -0.45823132850E+02  0.73111735934E+02  0.00000000000E+00 0. -1.
         -5    1    5    5    0  502  0.26060913065E+02 -0.30646055244E+02 -0.56177629913E+01  0.40890110698E+02  0.47000000000E+01 0.  1.
         13    1    6    6    0    0 -0.72412956688E+02  0.54150115453E+02 -0.12777252768E+02  0.91318834247E+02  0.00000000000E+00 0. -1.
        -14    1    6    6    0    0 -0.73919038652E+02 -0.25290415024E+02 -0.24284619288E+02  0.81813031366E+02  0.00000000000E+00 0.  1.
</event>
<event>
12    1  0.8133495E-002  0.1849016E+03  0.7818608E-02  0.1163781E+00
         21   -1    0    0  501  502  0.00000000000E+00  0.00000000000E+00  0.32135400623E+02  0.32135400623E+02  0.00000000000E+00 0.  1.
         21   -1    0    0  502  503 -0.00000000000E+00 -0.00000000000E+00 -0.10611637895E+04  0.10611637895E+04  0.00000000000E+00 0.  1.
         -6    2    1    2    0  503 -0.57772246841E+02 -0.24430717258E+02 -0.57837770029E+03  0.60721443066E+03  0.17393708103E+03 0.  0.
        -24    2    3    3    0    0 -0.95140735506E+02 -0.43251554918E+02 -0.33471135973E+03  0.35993725136E+03  0.81244532338E+02 0.  0.
          6    2    1    2  501    0  0.57772246841E+02  0.24430717258E+02 -0.45065068855E+03  0.48608475943E+03  0.17104928473E+03 0.  0.
         24    2    5    5    0    0  0.19416921504E+02  0.77293739294E+02 -0.34256985677E+03  0.35971551365E+03  0.75430796214E+02 0.  0.
          5    1    5    5  501    0  0.38355325337E+02 -0.52863022036E+02 -0.10808083178E+03  0.12636924578E+03  0.47000000000E+01 0. -1.
        -11    1    6    6    0    0 -0.20200291873E+02  0.24652470516E+02 -0.46304720600E+02  0.56213194573E+02  0.00000000000E+00 0.  1.
         12    1    6    6    0    0  0.39617213377E+02  0.52641268778E+02 -0.29626513617E+03  0.30350231907E+03  0.00000000000E+00 0. -1.
         -5    1    3    3    0  503  0.37368488665E+02  0.18820837660E+02 -0.24366634057E+03  0.24727717930E+03  0.47000000000E+01 0.  1.
         11    1    4    4    0    0 -0.55155694130E+02  0.89798787771E+01 -0.22658336538E+03  0.23337268539E+03  0.00000000000E+00 0. -1.
        -12    1    4    4    0    0 -0.39985041376E+02 -0.52231433695E+02 -0.10812799434E+03  0.12656456597E+03  0.00000000000E+00 0.  1.
</event>
<event>
12    1  0.8133495E-002  0.2838135E+03  0.7818608E-02  0.1093644E+00
         21   -1    0    0  501  502  0.00000000000E+00  0.00000000000E+00  0.24571415291E+03  0.24571415291E+03  0.00000000000E+00 0. -1.
         21   -1    0    0  502  503 -0.00000000000E+00 -0.00000000000E+00 -0.60520190776E+03  0.60520190776E+03  0.00000000000E+00 0. -1.
         -6    2    1    2    0  503  0.22231402379E+03  0.42619520502E+02 -0.46789173020E+03  0.54724103706E+03  0.17120202323E+03 0.  0.
        -24    2    3    3    0    0  0.21384055625E+03 -0.94256340267E+01 -0.35040743172E+03  0.41838007264E+03  0.80248930889E+02 0.  0.
          6    2    1    2  501    0 -0.22231402379E+03 -0.42619520502E+02  0.10840397535E+03  0.30367502361E+03  0.17095949635E+03 0.  0.
         24    2    5    5    0    0 -0.16723574164E+03 -0.92386471218E+02  0.63056124359E+02  0.21656082191E+03  0.80121541561E+02 0.  0.
          5    1    5    5  501    0 -0.55078282145E+02  0.49766950716E+02  0.45347850991E+02  0.87114201696E+02  0.47000000000E+01 0. -1.
        -11    1    6    6    0    0 -0.28185891797E+02  0.13969176730E+02  0.35249392771E+01  0.31654503499E+02  0.00000000000E+00 0.  1.
         12    1    6    6    0    0 -0.13904984985E+03 -0.10635564795E+03  0.59531185082E+02  0.18490631841E+03  0.00000000000E+00 0. -1.
         -5    1    3    3    0  503  0.84734675385E+01  0.52045154529E+02 -0.11748429848E+03  0.12886096442E+03  0.47000000000E+01 0.  1.
         11    1    4    4    0    0  0.60251060999E+02 -0.33162836776E+02 -0.72244794496E+02  0.99746049678E+02  0.00000000000E+00 0. -1.
        -12    1    4    4    0    0  0.15358949525E+03  0.23737202749E+02 -0.27816263722E+03  0.31863402297E+03  0.00000000000E+00 0.  1.
</event>
<event>
12    1  0.8133495E-002  0.1821426E+03  0.7818608E-02  0.1165947E+00
         21   -1    0    0  501  502  0.00000000000E+00  0.00000000000E+00  0.79264248397E+03  0.79264248397E+03  0.00000000000E+00 0.  1.
         21   -1    0    0  502  503 -0.00000000000E+00 -0.00000000000E+00 -0.42193637792E+02  0.42193637792E+02  0.00000000000E+00 0.  1.
         -6    2    1    2    0  503 -0.51443686603E+02  0.30261379602E+02  0.32917931090E+03  0.37621128118E+03  0.17208633116E+03 0.  0.
        -24    2    3    3    0    0 -0.10075101218E+03  0.12545582285E+02  0.25432246908E+03  0.28471975917E+03  0.77956814290E+02 0.  0.
          6    2    1    2  501    0  0.51443686603E+02 -0.30261379602E+02  0.42126953527E+03  0.45862484058E+03  0.17119146902E+03 0.  0.
         24    2    5    5    0    0  0.33926918525E+02 -0.36704969127E+02  0.42775758807E+03  0.43831371459E+03  0.81511150716E+02 0.  0.
          5    1    5    5  501    0  0.17516768078E+02  0.64435895256E+01 -0.64880527963E+01  0.20311125989E+02  0.47000000000E+01 0. -1.
        -11    1    6    6    0    0  0.48882227374E+02 -0.12657334597E+02  0.13406290381E+03  0.14325691066E+03  0.00000000000E+00 0.  1.
         12    1    6    6    0    0 -0.14955308849E+02 -0.24047634530E+02  0.29369468426E+03  0.29505680394E+03  0.00000000000E+00 0. -1.
         -5    1    3    3    0  503  0.49307325582E+02  0.17715797317E+02  0.74856841822E+02  0.91491522002E+02  0.47000000000E+01 0.  1.
         11    1    4    4    0    0 -0.24527313970E+02 -0.71278362047E+01  0.15925351359E+03  0.16128879927E+03  0.00000000000E+00 0. -1.
        -12    1    4    4    0    0 -0.76223698214E+02  0.19673418490E+02  0.95068955486E+02  0.12343095990E+03  0.00000000000E+00 0.  1.
</event>
<event>
12    1  0.8133495E-002  0.1954039E+03  0.7818608E-02  0.1153714E+00
         21   -1    0    0  501  502  0.00000000000E+00  0.00000000000E+00  0.69311698291E+02  0.69311698291E+02  0.00000000000E+00 0.  1.
         21   -1    0    0  502  503 -0.00000000000E+00 -0.00000000000E+00 -0.76341871865E+03  0.76341871865E+03  0.00000000000E+00 0. -1.
         -6    2    1    2    0  503 -0.68852996736E+02 -0.61133856900E+02 -0.56711008284E+03  0.59983043388E+03  0.17235028209E+03 0.  0.
        -24    2    3    3    0    0  0.24566874865E+02 -0.39570715479E+02 -0.31242795172E+03  0.32765894495E+03  0.87061968307E+02 0.  0.
          6    2    1    2  501    0  0.68852996736E+02  0.61133856900E+02 -0.12699693752E+03  0.23289998305E+03  0.17215137626E+03 0.  0.
         24    2    5    5    0    0  0.21123633952E+02 -0.10057472205E+02 -0.12052262832E+03  0.14681685990E+03  0.80511649826E+02 0.  0.
          5    1    5    5  501    0  0.47729362784E+02  0.71191329105E+02 -0.64743092016E+01  0.86083123150E+02  0.47000000000E+01 0. -1.
        -11    1    6    6    0    0  0.44413319698E+01  0.27797381094E+02 -0.11860190172E+02  0.30546422643E+02  0.00000000000E+00 0.  1.
         12    1    6    6    0    0  0.16682301982E+02 -0.37854853299E+02 -0.10866243814E+03  0.11627043726E+03  0.00000000000E+00 0. -1.
         -5    1    3    3    0  503 -0.93419871601E+02 -0.21563141421E+02 -0.25468213112E+03  0.27217148894E+03  0.47000000000E+01 0.  1.
         13    1    4    4    0    0  0.22536664680E+01  0.20799873917E+02 -0.22710816873E+02  0.30878713874E+02  0.00000000000E+00 0. -1.
        -14    1    4    4    0    0  0.22313208397E+02 -0.60370589396E+02 -0.28971713484E+03  0.29678023107E+03  0.00000000000E+00 0.  1.
</event>
<event>
12    1  0.8133495E-002  0.1939014E+03  0.7818608E-02  0.1155248E+00
         21   -1    0    0  503  502  0.00000000000E+00  0.00000000000E+00  0.27856671862E+03  0.27856671862E+03  0.00000000000E+00 0. -1.
         21   -1    0    0  501  503 -0.00000000000E+00 -0.00000000000E+00 -0.14072099158E+03  0.14072099158E+03  0.00000000000E+00 0. -1.
          6    2    1    2  501    0  0.58302898332E+02 -0.64333029495E+02  0.23826979086E+02  0.19535984770E+03  0.17337756061E+03 0.  0.
         24    2    3    3    0    0  0.86194112436E+02 -0.32235985038E+02 -0.31603869491E+02  0.12533978585E+03  0.79010591694E+02 0.  0.
         -6    2    1    2    0  502 -0.58302898332E+02  0.64333029495E+02  0.11401874796E+03  0.22392786251E+03  0.17206233197E+03 0.  0.
        -24    2    5    5    0    0  0.28846055065E+02  0.63995530951E+02  0.69157991027E+02  0.12579717670E+03  0.78195773986E+02 0.  0.
          5    1    3    3  501    0 -0.27891214104E+02 -0.32097044457E+02  0.55430848577E+02  0.70020061846E+02  0.47000000000E+01 0. -1.
        -13    1    4    4    0    0  0.82458887738E+02 -0.29732951100E+02  0.56291705873E+01  0.87836234606E+02  0.00000000000E+00 0.  1.
         14    1    4    4    0    0  0.37352246978E+01 -0.25030339381E+01 -0.37233040078E+02  0.37503551244E+02  0.00000000000E+00 0. -1.
         -5    1    5    5    0  502 -0.87148953397E+02  0.33749854445E+00  0.44860756932E+02  0.98130685802E+02  0.47000000000E+01 0.  1.
         13    1    6    6    0    0  0.30630168696E+02  0.68771967906E+02  0.22096766947E+02  0.78460550046E+02  0.00000000000E+00 0. -1.
        -14    1    6    6    0    0 -0.17841136312E+01 -0.47764369554E+01  0.47061224079E+02  0.47336626657E+02  0.00000000000E+00 0.  1.
</event>
<event>
12    1  0.8133495E-002  0.1983120E+03  0.7818608E-02  0.1152772E+00
         21   -1    0    0  501  502  0.00000000000E+00  0.00000000000E+00  0.12169547948E+03  0.12169547948E+03  0.00000000000E+00 0.  1.
         21   -1    0    0  502  503 -0.00000000000E+00 -0.00000000000E+00 -0.32362580772E+03  0.32362580772E+03  0.00000000000E+00 0.  1.
         -6    2    1    2    0  503  0.92136335982E+02  0.35238233747E+02 -0.14259769942E+03  0.23832365833E+03  0.16350298075E+03 0.  0.
        -24    2    3    3    0    0 -0.11213424043E+01 -0.11251968005E+02 -0.30160904223E+02  0.84953334111E+02  0.78609952552E+02 0.  0.
          6    2    1    2  501    0 -0.92136335982E+02 -0.35238233747E+02 -0.59332628833E+02  0.20699762887E+03  0.17203726337E+03 0.  0.
         24    2    5    5    0    0 -0.58644141585E+02  0.18920404708E+02  0.22776030735E+02  0.10298413369E+03  0.79308682745E+02 0.  0.
          5    1    5    5  501    0 -0.33492194397E+02 -0.54158638455E+02 -0.82108659568E+02  0.10401349519E+03  0.47000000000E+01 0. -1.
        -11    1    6    6    0    0 -0.37086876712E+02 -0.29319112322E+02  0.66552405506E+01  0.47742423465E+02  0.00000000000E+00 0.  1.
         12    1    6    6    0    0 -0.21557264873E+02  0.48239517030E+02  0.16120790185E+02  0.55241710222E+02  0.00000000000E+00 0. -1.
         -5    1    3    3    0  503  0.93257678386E+02  0.46490201752E+02 -0.11243679519E+03  0.15337032422E+03  0.47000000000E+01 0.  1.
         11    1    4    4    0    0  0.32623034807E+02 -0.26824766062E+02 -0.15110551341E+02  0.44857097946E+02  0.00000000000E+00 0. -1.
        -12    1    4    4    0    0 -0.33744377212E+02  0.15572798057E+02 -0.15050352882E+02  0.40096236165E+02  0.00000000000E+00 0.  1.
</event>
<event>
12    1  0.8133495E-002  0.2187814E+03  0.7818608E-02  0.1135068E+00
         21   -1    0    0  503  502  0.00000000000E+00  0.00000000000E+00  0.14732928720E+03  0.14732928720E+03  0.00000000000E+00 0. -1.
         21   -1    0    0  501  503 -0.00000000000E+00 -0.00000000000E+00 -0.32890368194E+03  0.32890368194E+03  0.00000000000E+00 0.  1.
          6    2    1    2  501    0  0.93998512171E+02 -0.98350497637E+02 -0.58475420731E+02  0.22646117804E+03  0.17133811500E+03 0.  0.
         24    2    3    3    0    0  0.12275115839E+02 -0.10407720872E+03 -0.56109528351E+02  0.14436857073E+03  0.81922287563E+02 0.  0.
         -6    2    1    2    0  502 -0.93998512171E+02  0.98350497637E+02 -0.12309897400E+03  0.24977179110E+03  0.16948170862E+03 0.  0.
        -24    2    5    5    0    0 -0.54948160488E+02  0.54223096444E+01 -0.78037118511E+01  0.96554084673E+02  0.78823166426E+02 0.  0.
          5    1    3    3  501    0  0.81723396332E+02  0.57267110795E+01 -0.23658923804E+01  0.82092607308E+02  0.47000000000E+01 0. -1.
        -11    1    4    4    0    0  0.22136534580E+02 -0.18085087306E+01 -0.31800748321E+02  0.38788973444E+02  0.00000000000E+00 0.  1.
         12    1    4    4    0    0 -0.98614187412E+01 -0.10226869999E+03 -0.24308780030E+02  0.10557959729E+03  0.00000000000E+00 0. -1.
         -5    1    5    5    0  502 -0.39050351682E+02  0.92928187993E+02 -0.11529526215E+03  0.15321770643E+03  0.47000000000E+01 0.  1.
         13    1    6    6    0    0  0.16798794272E+02  0.10581755304E+02  0.10317199317E+02  0.22374486275E+02  0.00000000000E+00 0. -1.
        -14    1    6    6    0    0 -0.71746954760E+02 -0.51594456599E+01 -0.18120911168E+02  0.74179598398E+02  0.00000000000E+00 0.  1.
</event>
<event>
12    1  0.8133495E-002  0.1819420E+03  0.7818608E-02  0.1166546E+00
         21   -1    0    0  503  502  0.00000000000E+00  0.00000000000E+00  0.48018820706E+02  0.48018820706E+02  0.00000000000E+00 0.  1.
         21   -1    0    0  501  503 -0.00000000000E+00 -0.00000000000E+00 -0.69498534382E+03  0.69498534382E+03  0.00000000000E+00 0.  1.
          6    2    1    2  501    0  0.29244877832E+02 -0.39505206970E+02 -0.38062556613E+03  0.42187523084E+03  0.17517695211E+03 0.  0.
         24    2    3    3    0    0 -0.31108615667E+02  0.23819956773E+02 -0.16903145518E+03  0.19286261475E+03  0.84197500075E+02 0.  0.
         -6    2    1    2    0  502 -0.29244877832E+02  0.39505206970E+02 -0.26634095698E+03  0.32112893368E+03  0.17254090073E+03 0.  0.
        -24    2    5    5    0    0 -0.17124039205E+02 -0.32918286970E+02 -0.73592471476E+02  0.11481328748E+03  0.79933677431E+02 0.  0.
          5    1    3    3  501    0  0.60353493499E+02 -0.63325163743E+02 -0.21159411095E+03  0.22901261609E+03  0.47000000000E+01 0. -1.
        -11    1    4    4    0    0 -0.33764099982E+01 -0.20326679463E+02 -0.11843043944E+03  0.12020957961E+03  0.00000000000E+00 0.  1.
         12    1    4    4    0    0 -0.27732205669E+02  0.44146636236E+02 -0.50601015739E+02  0.72653035147E+02  0.00000000000E+00 0. -1.
         -5    1    5    5    0  502 -0.12120838627E+02  0.72423493940E+02 -0.19274848551E+03  0.20631564620E+03  0.47000000000E+01 0.  1.
         13    1    6    6    0    0  0.25651132572E+02 -0.59984721853E+01 -0.54959870866E+02  0.60947105562E+02  0.00000000000E+00 0. -1.
        -14    1    6    6    0    0 -0.42775171777E+02 -0.26919814785E+02 -0.18632600610E+02  0.53866181915E+02  0.00000000000E+00 0.  1.
</event>
<event>
12    1  0.8133495E-002  0.1789552E+03  0.7818608E-02  0.1169079E+00
         21   -1    0    0  503  502  0.00000000000E+00  0.00000000000E+00  0.24918161323E+02  0.24918161323E+02  0.00000000000E+00 0. -1.
         21   -1    0    0  501  503 -0.00000000000E+00 -0.00000000000E+00 -0.16994746780E+04  0.16994746780E+04  0.00000000000E+00 0.  1.
          6    2    1    2  501    0  0.48875733647E+02  0.11439385789E+02 -0.12687673001E+04  0.12813256496E+04  0.17177095676E+03 0.  0.
         24    2    3    3    0    0  0.86117347108E+02  0.35724207822E+02 -0.10953317067E+04  0.11022204140E+04  0.80286218233E+02 0.  0.
         -6    2    1    2    0  502 -0.48875733647E+02 -0.11439385789E+02 -0.40578921661E+03  0.44306718978E+03  0.17065740374E+03 0.  0.
        -24    2    5    5    0    0 -0.97782624810E+01  0.16501574388E+02 -0.83466410010E+02  0.11714788817E+03  0.79931656604E+02 0.  0.
          5    1    3    3  501    0 -0.37241613461E+02 -0.24284822033E+02 -0.17343559337E+03  0.17910523555E+03  0.47000000000E+01 0. -1.
        -13    1    4    4    0    0  0.12066263733E+02  0.46646178861E+02 -0.42459932942E+03  0.42732429286E+03  0.00000000000E+00 0.  1.
         14    1    4    4    0    0  0.74051083376E+02 -0.10921971038E+02 -0.67073237728E+03  0.67489612114E+03  0.00000000000E+00 0. -1.
         -5    1    5    5    0  502 -0.39097471166E+02 -0.27940960177E+02 -0.32232280660E+03  0.32591930161E+03  0.47000000000E+01 0.  1.
         13    1    6    6    0    0 -0.29989003464E+02 -0.80966975127E+01 -0.79141404969E+02  0.85019167368E+02  0.00000000000E+00 0. -1.
        -14    1    6    6    0    0  0.20210740983E+02  0.24598271901E+02 -0.43250050410E+01  0.32128720799E+02  0.00000000000E+00 0.  1.
</event>
<event>
12    1  0.8133495E-002  0.2674275E+03  0.7818608E-02  0.1102919E+00
         21   -1    0    0  503  502  0.00000000000E+00  0.00000000000E+00  0.84488853266E+02  0.84488853266E+02  0.00000000000E+00 0. -1.
         21   -1    0    0  501  503 -0.00000000000E+00 -0.00000000000E+00 -0.10891120200E+04  0.10891120200E+04  0.00000000000E+00 0. -1.
          6    2    1    2  501    0 -0.19029476687E+03  0.77277273904E+02 -0.78044361560E+03  0.82463967178E+03  0.16957144742E+03 0.  0.
         24    2    3    3    0    0 -0.14488218837E+03  0.68240752118E+01 -0.63922159037E+03  0.66034814460E+03  0.80112508225E+02 0.  0.
         -6    2    1    2    0  502  0.19029476687E+03 -0.77277273904E+02 -0.22417955114E+03  0.34896120150E+03  0.17127046926E+03 0.  0.
        -24    2    5    5    0    0  0.20232937581E+03 -0.36834696067E+02 -0.21071974085E+03  0.30442256201E+03  0.77306635729E+02 0.  0.
          5    1    3    3  501    0 -0.45412578502E+02  0.70453198692E+02 -0.14122202523E+03  0.16429152718E+03  0.47000000000E+01 0. -1.
        -13    1    4    4    0    0 -0.32903225313E+02 -0.32535765409E+02 -0.15270936898E+03  0.15956612937E+03  0.00000000000E+00 0.  1.
         14    1    4    4    0    0 -0.11197896305E+03  0.39359840621E+02 -0.48651222139E+03  0.50078201523E+03  0.00000000000E+00 0. -1.
         -5    1    5    5    0  502 -0.12034608935E+02 -0.40442577837E+02 -0.13459810291E+02  0.44538639487E+02  0.47000000000E+01 0.  1.
         13    1    6    6    0    0  0.58613384663E+02 -0.31388557388E+02 -0.11108349723E+03  0.12946163043E+03  0.00000000000E+00 0. -1.
        -14    1    6    6    0    0  0.14371599114E+03 -0.54461386794E+01 -0.99636243623E+02  0.17496093158E+03  0.00000000000E+00 0.  1.
</event>
<event>
12    1  0.8133495E-002  0.2055784E+03  0.7818608E-02  0.1145183E+00
         21   -1    0    0  503  502  0.00000000000E+00  0.00000000000E+00  0.18896365236E+03  0.18896365236E+03  0.00000000000E+00 0. -1.
         21   -1    0    0  501  503 -0.00000000000E+00 -0.00000000000E+00 -0.22479281758E+03  0.22479281758E+03  0.00000000000E+00 0. -1.
          6    2    1    2  501    0 -0.96904913960E+02 -0.56876838576E+02 -0.34811010183E+02  0.20850492164E+03  0.17215388117E+03 0.  0.
         24    2    3    3    0    0 -0.12113614420E+03 -0.77007045025E+02 -0.52588819190E+02  0.17202865232E+03  0.78893744354E+02 0.  0.
         -6    2    1    2    0  502  0.96904913960E+02  0.56876838576E+02 -0.10181550339E+01  0.20525154829E+03  0.17176036889E+03 0.  0.
        -24    2    5    5    0    0  0.68266078590E+02  0.88720370661E+02  0.42793209973E+02  0.14380466773E+03  0.79479317974E+02 0.  0.
          5    1    3    3  501    0  0.24231230244E+02  0.20130206449E+02  0.17777809007E+02  0.36476269325E+02  0.47000000000E+01 0. -1.
        -11    1    4    4    0    0 -0.28428607444E+02 -0.12608258088E+02 -0.50285502816E+02  0.59125169654E+02  0.00000000000E+00 0.  1.
         12    1    4    4    0    0 -0.92707536760E+02 -0.64398786937E+02 -0.23033163739E+01  0.11290348266E+03  0.00000000000E+00 0. -1.
         -5    1    5    5    0  502  0.28638835370E+02 -0.31843532085E+02 -0.43811365007E+02  0.61446880562E+02  0.47000000000E+01 0.  1.
         13    1    6    6    0    0  0.75126689790E+02  0.62503837066E+02  0.57362463776E+01  0.97896137254E+02  0.00000000000E+00 0. -1.
        -14    1    6    6    0    0 -0.68606111994E+01  0.26216533595E+02  0.37056963596E+02  0.45908530479E+02  0.00000000000E+00 0.  1.
</event>
<event>
12    1  0.8133495E-002  0.2102192E+03  0.7818608E-02  0.1142048E+00
         21   -1    0    0  503  502  0.00000000000E+00  0.00000000000E+00  0.60301119927E+02  0.60301119927E+02  0.00000000000E+00 0. -1.
         21   -1    0    0  501  503 -0.00000000000E+00 -0.00000000000E+00 -0.73505827285E+03  0.73505827285E+03  0.00000000000E+00 0.  1.
          6    2    1    2  501    0 -0.11627466486E+03  0.16407359510E+02 -0.39412504652E+03  0.44668407498E+03  0.17436488009E+03 0.  0.
         24    2    3    3    0    0 -0.96135218014E+02 -0.55211566633E+02 -0.24984014749E+03  0.28427998023E+03  0.78132647662E+02 0.  0.
         -6    2    1    2    0  502  0.11627466486E+03 -0.16407359510E+02 -0.28063210640E+03  0.34867531780E+03  0.17038514890E+03 0.  0.
        -24    2    5    5    0    0  0.31656827198E+02 -0.14456331448E+01 -0.24107586686E+03  0.25396091661E+03  0.73309815299E+02 0.  0.
          5    1    3    3  501    0 -0.20139446845E+02  0.71618926143E+02 -0.14428489904E+03  0.16240409475E+03  0.47000000000E+01 0. -1.
        -13    1    4    4    0    0 -0.39761792813E+02 -0.34877715506E+02 -0.19831412746E+03  0.20524606782E+03  0.00000000000E+00 0.  1.
         14    1    4    4    0    0 -0.56373425201E+02 -0.20333851127E+02 -0.51526020027E+02  0.79033912407E+02  0.00000000000E+00 0. -1.
         -5    1    5    5    0  502  0.84617837661E+02 -0.14961726365E+02 -0.39556239539E+02  0.94714401190E+02  0.47000000000E+01 0.  1.
         13    1    6    6    0    0  0.89178235613E+01 -0.36126317510E+02 -0.92445677543E+02  0.99653608516E+02  0.00000000000E+00 0. -1.
        -14    1    6    6    0    0  0.22739003636E+02  0.34680684365E+02 -0.14863018932E+03  0.15430730810E+03  0.00000000000E+00 0.  1.
</event>
<event>
12    1  0.8133495E-002  0.2430942E+03  0.7818608E-02  0.1118924E+00
         21   -1    0    0  503  502  0.00000000000E+00  0.00000000000E+00  0.38100432003E+02  0.38100432003E+02  0.00000000000E+00 0. -1.
         21   -1    0    0  501  503 -0.00000000000E+00 -0.00000000000E+00 -0.15065580034E+04  0.15065580034E+04  0.00000000000E+00 0. -1.
          6    2    1    2  501    0  0.70830671488E+02 -0.14550586255E+03 -0.75524063553E+03  0.79339978831E+03  0.18139974220E+03 0.  0.
         24    2    3    3    0    0 -0.21114894880E+02 -0.93106626128E+02 -0.28095319759E+03  0.30742619752E+03  0.80383363153E+02 0.  0.
         -6    2    1    2    0  502 -0.70830671488E+02  0.14550586255E+03 -0.71321693585E+03  0.75125864708E+03  0.17182030489E+03 0.  0.
        -24    2    5    5    0    0 -0.76540854080E+02  0.22184242201E+02 -0.31636190463E+03  0.33561837710E+03  0.78766727730E+02 0.  0.
          5    1    3    3  501    0  0.91945566368E+02 -0.52399236419E+02 -0.47428743794E+03  0.48597359079E+03  0.47000000000E+01 0. -1.
        -11    1    4    4    0    0 -0.39473119180E+02 -0.16709991774E+02 -0.67380570865E+02  0.79859202932E+02  0.00000000000E+00 0.  1.
         12    1    4    4    0    0  0.18358224300E+02 -0.76396634354E+02 -0.21357262673E+03  0.22756699459E+03  0.00000000000E+00 0. -1.
         -5    1    5    5    0  502  0.57101825919E+01  0.12332162034E+03 -0.39685503122E+03  0.41564026998E+03  0.47000000000E+01 0.  1.
         13    1    6    6    0    0 -0.63975759980E+01  0.19440154057E+02 -0.18973718601E+03  0.19083775392E+03  0.00000000000E+00 0. -1.
        -14    1    6    6    0    0 -0.70143278082E+02  0.27440881438E+01 -0.12662471863E+03  0.14478062318E+03  0.00000000000E+00 0.  1.
</event>
<event>
12    1  0.8133495E-002  0.2188573E+03  0.7818608E-02  0.1135227E+00
         21   -1    0    0  503  502  0.00000000000E+00  0.00000000000E+00  0.24980700628E+03  0.24980700628E+03  0.00000000000E+00 0.  1.
         21   -1    0    0  501  503 -0.00000000000E+00 -0.00000000000E+00 -0.19338584820E+03  0.19338584820E+03  0.00000000000E+00 0.  1.
          6    2    1    2  501    0  0.12644297504E+03  0.32691639163E+02  0.59860400988E+02  0.22689597044E+03  0.17561874782E+03 0.  0.
         24    2    3    3    0    0  0.97650097934E+02 -0.41046518733E+02  0.68158643406E+02  0.14716331383E+03  0.76099158610E+02 0.  0.
         -6    2    1    2    0  502 -0.12644297504E+03 -0.32691639163E+02 -0.34392429069E+01  0.21629688404E+03  0.17238313272E+03 0.  0.
        -24    2    5    5    0    0 -0.14817140251E+03  0.25653153721E+01  0.19738411084E+02  0.16860546922E+03  0.77954178935E+02 0.  0.
          5    1    3    3  501    0  0.28792877107E+02  0.73738157896E+02 -0.82982424185E+01  0.79732656605E+02  0.47000000000E+01 0. -1.
        -13    1    4    4    0    0  0.76299644134E+02 -0.41676445368E+02  0.12864006564E+02  0.87886543101E+02  0.00000000000E+00 0.  1.
         14    1    4    4    0    0  0.21350453801E+02  0.62992663466E+00  0.55294636842E+02  0.59276770733E+02  0.00000000000E+00 0. -1.
         -5    1    5    5    0  502  0.21728427468E+02 -0.35256954535E+02 -0.23177653991E+02  0.47691414823E+02  0.47000000000E+01 0.  1.
         13    1    6    6    0    0 -0.45232713166E+01  0.18820872870E+02 -0.87791154460E+01  0.21254602019E+02  0.00000000000E+00 0. -1.
        -14    1    6    6    0    0 -0.14364813119E+03 -0.16255557498E+02  0.28517526530E+02  0.14735086720E+03  0.00000000000E+00 0.  1.
</event>
<event>
12    1  0.8133495E-002  0.1925749E+03  0.7818608E-02  0.1156298E+00
         21   -1    0    0  503  502  0.00000000000E+00  0.00000000000E+00  0.49584441324E+02  0.49584441324E+02  0.00000000000E+00 0. -1.
         21   -1    0    0  501  503 -0.00000000000E+00 -0.00000000000E+00 -0.75712779165E+03  0.75712779165E+03  0.00000000000E+00 0. -1.
          6    2    1    2  501    0  0.81798837692E+02 -0.17852561789E+01 -0.30434463294E+03  0.36015376951E+03  0.17432970230E+03 0.  0.
         24    2    3    3    0    0 -0.14025947253E+01  0.13863998038E+02 -0.59570929174E+02  0.10111007904E+03  0.80500774953E+02 0.  0.
         -6    2    1    2    0  502 -0.81798837692E+02  0.17852561789E+01 -0.40319871738E+03  0.44655846346E+03  0.17364048665E+03 0.  0.
        -24    2    5    5    0    0 -0.57755710167E+02  0.69159853483E+02 -0.26912662309E+03  0.29452285971E+03  0.78713202452E+02 0.  0.
          5    1    3    3  501    0  0.83201432417E+02 -0.15649254217E+02 -0.24477370377E+03  0.25904369047E+03  0.47000000000E+01 0. -1.
        -11    1    4    4    0    0 -0.17188643538E+02 -0.23060571983E+02 -0.53163003826E+02  0.60444556600E+02  0.00000000000E+00 0.  1.
         12    1    4    4    0    0  0.15786048812E+02  0.36924570021E+02 -0.64079253481E+01  0.40665522444E+02  0.00000000000E+00 0. -1.
         -5    1    5    5    0  502 -0.24043127525E+02 -0.67374597304E+02 -0.13407209429E+03  0.15203560376E+03  0.47000000000E+01 0.  1.
         13    1    6    6    0    0 -0.46135109768E+02  0.40665717740E+02 -0.70617937387E+02  0.93643163303E+02  0.00000000000E+00 0. -1.
        -14    1    6    6    0    0 -0.11620600399E+02  0.28494135742E+02 -0.19850868571E+03  0.20087969640E+03  0.00000000000E+00 0.  1.
</event>
<event>
12    1  0.8133495E-002  0.1960154E+03  0.7818608E-02  0.1153382E+00
         21   -1    0    0  503  502  0.00000000000E+00  0.00000000000E+00  0.45641034553E+03  0.45641034553E+03  0.00000000000E+00 0.  1.
         21   -1    0    0  501  503 -0.00000000000E+00 -0.00000000000E+00 -0.10321179888E+03  0.10321179888E+03  0.00000000000E+00 0.  1.
          6    2    1    2  501    0 -0.38127578112E+02 -0.83407269016E+02  0.29781434993E+03  0.35593252999E+03  0.17200027368E+03 0.  0.
         24    2    3    3    0    0 -0.44772515218E+02 -0.32006230462E+02  0.28756410174E+03  0.30289122966E+03  0.77595151184E+02 0.  0.
         -6    2    1    2    0  502  0.38127578112E+02  0.83407269016E+02  0.55384196726E+02  0.20368961441E+03  0.17323846292E+03 0.  0.
        -24    2    5    5    0    0 -0.24633959515E+02  0.63991213784E+01  0.61785487071E+02  0.10402852910E+03  0.79728964235E+02 0.  0.
          5    1    3    3  501    0  0.66449371056E+01 -0.51401038553E+02  0.10250248191E+02  0.53041300337E+02  0.47000000000E+01 0. -1.
        -11    1    4    4    0    0 -0.32715145124E+00 -0.37287017424E+02  0.21046080984E+03  0.21373858139E+03  0.00000000000E+00 0.  1.
         12    1    4    4    0    0 -0.44445363767E+02  0.52807869615E+01  0.77103291897E+02  0.89152648265E+02  0.00000000000E+00 0. -1.
         -5    1    5    5    0  502  0.62761537627E+02  0.77008147638E+02 -0.64012903455E+01  0.99661085314E+02  0.47000000000E+01 0.  1.
         11    1    6    6    0    0 -0.19017802554E+02  0.39037903465E+02  0.55248464838E+02  0.70271100660E+02  0.00000000000E+00 0. -1.
        -12    1    6    6    0    0 -0.56161569608E+01 -0.32638782087E+02  0.65370222330E+01  0.33757428439E+02  0.00000000000E+00 0.  1.
</event>
<event>
12    1  0.8133495E-002  0.2366493E+03  0.7818608E-02  0.1122172E+00
         21   -1    0    0  503  502  0.00000000000E+00  0.00000000000E+00  0.11285903317E+04  0.11285903317E+04  0.00000000000E+00 0. -1.
         21   -1    0    0  501  503 -0.00000000000E+00 -0.00000000000E+00 -0.75014603392E+02  0.75014603392E+02  0.00000000000E+00 0. -1.
          6    2    1    2  501    0 -0.15631412202E+03 -0.42971452315E+02  0.17612517959E+03  0.29499658869E+03  0.17240144430E+03 0.  0.
         24    2    3    3    0    0 -0.15878372759E+03 -0.78421279227E+02  0.13106780950E+03  0.23742015445E+03  0.88472537380E+02 0.  0.
         -6    2    1    2    0  502  0.15631412202E+03  0.42971452315E+02  0.87745054875E+03  0.90860834643E+03  0.17137389315E+03 0.  0.
        -24    2    5    5    0    0  0.17861225753E+03  0.25763671193E+02  0.65237586461E+03  0.68172948445E+03  0.81207856401E+02 0.  0.
          5    1    3    3  501    0  0.24696055708E+01  0.35449826912E+02  0.45057370095E+02  0.57576434239E+02  0.47000000000E+01 0. -1.
        -13    1    4    4    0    0  0.40585420907E+01 -0.20049897081E+02  0.32268556224E+02  0.38206411211E+02  0.00000000000E+00 0.  1.
         14    1    4    4    0    0 -0.16284226968E+03 -0.58371382146E+02  0.98799253275E+02  0.19921374324E+03  0.00000000000E+00 0. -1.
         -5    1    5    5    0  502 -0.22298135507E+02  0.17207781122E+02  0.22507468414E+03  0.22687886199E+03  0.47000000000E+01 0.  1.
         11    1    6    6    0    0  0.10359402440E+03  0.48441379340E+02  0.46000263046E+03  0.47400496744E+03  0.00000000000E+00 0. -1.
        -12    1    6    6    0    0  0.75018233132E+02 -0.22677708147E+02  0.19237323415E+03  0.20772451701E+03  0.00000000000E+00 0.  1.
</event>
<event>
12    1  0.8133495E-002  0.1756643E+03  0.7818608E-02  0.1172077E+00
         21   -1    0    0  503  502  0.00000000000E+00  0.00000000000E+00  0.42730391887E+03  0.42730391887E+03  0.00000000000E+00 0. -1.
         21   -1    0    0  501  503 -0.00000000000E+00 -0.00000000000E+00 -0.11343654047E+03  0.11343654047E+03  0.00000000000E+00 0. -1.
          6    2    1    2  501    0 -0.24028345374E+02 -0.26191568850E+02 -0.60956654954E+01  0.17572772543E+03  0.17198754806E+03 0.  0.
         24    2    3    3    0    0 -0.65092899578E+02  0.21641035481E+02 -0.29649524558E+02  0.10826566256E+03  0.78338620053E+02 0.  0.
         -6    2    1    2    0  502  0.24028345374E+02  0.26191568850E+02  0.31996304390E+03  0.36501273392E+03  0.17203077283E+03 0.  0.
        -24    2    5    5    0    0  0.11860898313E+02  0.38505466863E+02  0.33177369680E+03  0.34353576080E+03  0.79496422383E+02 0.  0.
          5    1    3    3  501    0  0.41064554204E+02 -0.47832604330E+02  0.23553859063E+02  0.67462062863E+02  0.47000000000E+01 0. -1.
        -11    1    4    4    0    0  0.13290079448E+02  0.21741263238E+02 -0.40060344753E+01  0.25794515912E+02  0.00000000000E+00 0.  1.
         12    1    4    4    0    0 -0.78382979026E+02 -0.10022775757E+00 -0.25643490083E+02  0.82471146653E+02  0.00000000000E+00 0. -1.
         -5    1    5    5    0  502  0.12167447060E+02 -0.12313898013E+02 -0.11810652904E+02  0.21476973117E+02  0.47000000000E+01 0.  1.
         11    1    6    6    0    0 -0.22591463644E+02 -0.45767158422E+01  0.19024646985E+03  0.19163778293E+03  0.00000000000E+00 0. -1.
        -12    1    6    6    0    0  0.34452361957E+02  0.43082182705E+02  0.14152722695E+03  0.15189797787E+03  0.00000000000E+00 0.  1.
</event>
<event>
12    1  0.8133495E-002  0.1869773E+03  0.7818608E-02  0.1161318E+00
         21   -1    0    0  501  502  0.00000000000E+00  0.00000000000E+00  0.23999188354E+03  0.23999188354E+03  0.00000000000E+00 0. -1.
         21   -1    0    0  502  503 -0.00000000000E+00 -0.00000000000E+00 -0.21246800718E+03  0.21246800718E+03  0.00000000000E+00 0. -1.
         -6    2    1    2    0  503  0.54827352014E+02 -0.45317769599E+02 -0.11342075949E+03  0.21831059189E+03  0.17243986511E+03 0.  0.
        -24    2    3    3    0    0  0.31662464498E+01  0.22886021580E+02 -0.10392915655E+03  0.13209686047E+03  0.78195369849E+02 0.  0.
          6    2    1    2  501    0 -0.54827352014E+02  0.45317769599E+02  0.14094463585E+03  0.23414929882E+03  0.17291837668E+03 0.  0.
         24    2    5    5    0    0 -0.64635689910E+02 -0.22770280407E+02  0.11998378528E+03  0.16208243194E+03  0.84725131649E+02 0.  0.
          5    1    5    5  501    0  0.98083378955E+01  0.68088050006E+02  0.20960850573E+02  0.72066866885E+02  0.47000000000E+01 0. -1.
        -13    1    6    6    0    0  0.20812285793E+02 -0.15123020706E+01  0.21071077856E+02  0.29655161769E+02  0.00000000000E+00 0.  1.
         14    1    6    6    0    0 -0.85447975703E+02 -0.21257978337E+02  0.98912707420E+02  0.13242727017E+03  0.00000000000E+00 0. -1.
         -5    1    3    3    0  503  0.51661105564E+02 -0.68203791179E+02 -0.94916029397E+01  0.86213731422E+02  0.47000000000E+01 0.  1.
         11    1    4    4    0    0  0.24293197479E+02  0.84227407315E+00 -0.98030347229E+02  0.10099909825E+03  0.00000000000E+00 0. -1.
        -12    1    4    4    0    0 -0.21126951029E+02  0.22043747507E+02 -0.58988093189E+01  0.31097762224E+02  0.00000000000E+00 0.  1.
</event>
<event>
12    1  0.8133495E-002  0.1981527E+03  0.7818608E-02  0.1153269E+00
         21   -1    0    0  501  502  0.00000000000E+00  0.00000000000E+00  0.54035150789E+02  0.54035150789E+02  0.00000000000E+00 0.  1.
         21   -1    0    0  502  503 -0.00000000000E+00 -0.00000000000E+00 -0.72424364324E+03  0.72424364324E+03  0.00000000000E+00 0.  1.
         -6    2    1    2    0  503 -0.67795830837E+02  0.71602325738E+02 -0.40698282003E+03  0.44880610949E+03  0.16145816914E+03 0.  0.
        -24    2    3    3    0    0 -0.82217118853E+02  0.98253547733E+02 -0.28322100884E+03  0.32130184645E+03  0.81285437892E+02 0.  0.
          6    2    1    2  501    0  0.67795830837E+02 -0.71602325738E+02 -0.26322567242E+03  0.32947268455E+03  0.17187590730E+03 0.  0.
         24    2    5    5    0    0  0.49692724840E+02 -0.13862500041E+02 -0.49593195000E+02  0.10738591022E+03  0.80066927723E+02 0.  0.
          5    1    5    5  501    0  0.18103105997E+02 -0.57739825697E+02 -0.21363247742E+03  0.22208677432E+03  0.47000000000E+01 0. -1.
        -11    1    6    6    0    0  0.28919139237E+02 -0.29829726052E+02 -0.64886650686E+02  0.77048079845E+02  0.00000000000E+00 0.  1.
         12    1    6    6    0    0  0.20773585603E+02  0.15967226011E+02  0.15293455686E+02  0.30337830379E+02  0.00000000000E+00 0. -1.
         -5    1    3    3    0  503  0.14421288016E+02 -0.26651221995E+02 -0.12376181120E+03  0.12750426304E+03  0.47000000000E+01 0.  1.
         11    1    4    4    0    0 -0.55742909371E+01 -0.11430956478E+02 -0.57588162132E+02  0.58975722998E+02  0.00000000000E+00 0. -1.
        -12    1    4    4    0    0 -0.76642827916E+02  0.10968450421E+03 -0.22563284670E+03  0.26232612345E+03  0.00000000000E+00 0.  1.
</event>
<event>
12    1  0.8133495E-002  0.1885964E+03  0.7818608E-02  0.1162128E+00
         21   -1    0    0  501  502  0.00000000000E+00  0.00000000000E+00  0.23180124267E+03  0.23180124267E+03  0.00000000000E+00 0. -1.
         21   -1    0    0  502  503 -0.00000000000E+00 -0.00000000000E+00 -0.14765928908E+03  0.14765928908E+03  0.00000000000E+00 0. -1.
         -6    2    1    2    0  503  0.26446016262E+02 -0.22100743609E+02  0.16688842887E+02  0.17916444610E+03  0.17502441723E+03 0.  0.
        -24    2    3    3    0    0 -0.46537641260E+02 -0.31217732069E+02  0.33097054173E+02  0.10365912747E+03  0.80681477822E+02 0.  0.
          6    2    1    2  501    0 -0.26446016262E+02  0.22100743609E+02  0.67453110698E+02  0.20029608565E+03  0.18542050895E+03 0.  0.
         24    2    5    5    0    0 -0.27662131171E+02  0.89758077144E+02  0.30468827808E+02  0.12303729394E+03  0.73403816777E+02 0.  0.
          5    1    5    5  501    0  0.12161149088E+01 -0.67657333536E+02  0.36984282889E+02  0.77258791716E+02  0.47000000000E+01 0. -1.
        -11    1    6    6    0    0  0.19916838106E+02  0.14806867438E+02  0.23182936566E+02  0.33961335534E+02  0.00000000000E+00 0.  1.
         12    1    6    6    0    0 -0.47578969277E+02  0.74951209707E+02  0.72858912424E+01  0.89075958402E+02  0.00000000000E+00 0. -1.
         -5    1    3    3    0  503  0.72983657522E+02  0.91169884597E+01 -0.16408211287E+02  0.75505318630E+02  0.47000000000E+01 0.  1.
         13    1    4    4    0    0  0.18338700290E+02 -0.25342765119E+02  0.16539211302E+01  0.31325694363E+02  0.00000000000E+00 0. -1.
        -14    1    4    4    0    0 -0.64876341550E+02 -0.58749669494E+01  0.31443133043E+02  0.72333433108E+02  0.00000000000E+00 0.  1.
</event>
<event>
12    1  0.8133495E-002  0.3286601E+03  0.7818608E-02  0.1071903E+00
         21   -1    0    0  503  502  0.00000000000E+00  0.00000000000E+00  0.16032448860E+03  0.16032448860E+03  0.00000000000E+00 0.  1.
         21   -1    0    0  501  503 -0.00000000000E+00 -0.00000000000E+00 -0.85761439187E+03  0.85761439187E+03  0.00000000000E+00 0. -1.
          6    2    1    2  501    0  0.36661438568E+02 -0.27560800175E+03 -0.58568420955E+03  0.67084624118E+03  0.17235096249E+03 0.  0.
         24    2    3    3    0    0 -0.25296702833E+02 -0.88685050694E+02 -0.16464777536E+03  0.20600995834E+03  0.82621132980E+02 0.  0.
         -6    2    1    2    0  502 -0.36661438568E+02  0.27560800175E+03 -0.11160569372E+03  0.34709263930E+03  0.17525306752E+03 0.  0.
        -24    2    5    5    0    0 -0.38335284166E+02  0.29204313662E+03 -0.86788117544E+02  0.31691122939E+03  0.78369396484E+02 0.  0.
          5    1    3    3  501    0  0.61958141401E+02 -0.18692295106E+03 -0.42103643420E+03  0.46483628284E+03  0.47000000000E+01 0. -1.
        -13    1    4    4    0    0  0.21060780680E+02  0.26533521625E+01 -0.32393817164E+02  0.38729267370E+02  0.00000000000E+00 0.  1.
         14    1    4    4    0    0 -0.46357483514E+02 -0.91338402857E+02 -0.13225395819E+03  0.16728069097E+03  0.00000000000E+00 0. -1.
         -5    1    5    5    0  502  0.16738455980E+01 -0.16435134866E+02 -0.24817576175E+02  0.30181409913E+02  0.47000000000E+01 0.  1.
         11    1    6    6    0    0 -0.81944182669E+01  0.32903176466E+02 -0.39007191980E+02  0.51684896619E+02  0.00000000000E+00 0. -1.
        -12    1    6    6    0    0 -0.30140865899E+02  0.25913996015E+03 -0.47780925564E+02  0.26522633277E+03  0.00000000000E+00 0.  1.
</event>
<event>
12    1  0.8133495E-002  0.1775560E+03  0.7818608E-02  0.1171402E+00
         21   -1    0    0  501  502  0.00000000000E+00  0.00000000000E+00  0.78789404486E+03  0.78789404486E+03  0.00000000000E+00 0.  1.
         21   -1    0    0  502  503 -0.00000000000E+00 -0.00000000000E+00 -0.49938324178E+02  0.49938324178E+02  0.00000000000E+00 0.  1.
         -6    2    1    2    0  503  0.22491798282E+02 -0.75127880100E+01  0.17627015913E+03  0.25019452137E+03  0.17596535612E+03 0.  0.
        -24    2    3    3    0    0  0.31814355156E+00 -0.72668266998E+02  0.10291657582E+03  0.14949821762E+03  0.80480539566E+02 0.  0.
          6    2    1    2  501    0 -0.22491798282E+02  0.75127880100E+01  0.56168556155E+03  0.58763784766E+03  0.17107088289E+03 0.  0.
         24    2    5    5    0    0  0.23460823029E+02  0.10010489032E+02  0.50986525284E+03  0.51817335090E+03  0.88828066600E+02 0.  0.
          5    1    5    5  501    0 -0.45952621311E+02 -0.24977010220E+01  0.51820308709E+02  0.69464496762E+02  0.47000000000E+01 0. -1.
        -11    1    6    6    0    0  0.50726381990E+02  0.14883480797E+01  0.17834727236E+03  0.18542688740E+03  0.00000000000E+00 0.  1.
         12    1    6    6    0    0 -0.27265558960E+02  0.85221409523E+01  0.33151798048E+03  0.33274646350E+03  0.00000000000E+00 0. -1.
         -5    1    3    3    0  503  0.22173654730E+02  0.65155478988E+02  0.73353583306E+02  0.10069630376E+03  0.47000000000E+01 0.  1.
         13    1    4    4    0    0  0.30889012078E+02 -0.21539424109E+02  0.74543053330E+02  0.83514936735E+02  0.00000000000E+00 0. -1.
        -14    1    4    4    0    0 -0.30570868526E+02 -0.51128842889E+02  0.28373522489E+02  0.65983280883E+02  0.00000000000E+00 0.  1.
</event>
<event>
12    1  0.8133495E-002  0.2101585E+03  0.7818608E-02  0.1141553E+00
         21   -1    0    0  503  502  0.00000000000E+00  0.00000000000E+00  0.14871162463E+03  0.14871162463E+03  0.00000000000E+00 0.  1.
         21   -1    0    0  501  503 -0.00000000000E+00 -0.00000000000E+00 -0.44979212111E+03  0.44979212111E+03  0.00000000000E+00 0. -1.
          6    2    1    2  501    0 -0.48642140022E+02 -0.10988994901E+03 -0.32528095353E+03  0.38695640738E+03  0.17171401750E+03 0.  0.
         24    2    3    3    0    0 -0.62176107592E+02 -0.13760431677E+03 -0.22193812617E+03  0.27900695428E+03  0.76075832818E+02 0.  0.
         -6    2    1    2    0  502  0.48642140022E+02  0.10988994901E+03  0.24200457047E+02  0.21154733837E+03  0.17240868763E+03 0.  0.
        -24    2    5    5    0    0  0.41546294447E+02  0.61590248991E+02  0.82909779515E+02  0.13504840641E+03  0.76449899807E+02 0.  0.
          5    1    3    3  501    0  0.13533967569E+02  0.27714367761E+02 -0.10334282736E+03  0.10794945310E+03  0.47000000000E+01 0. -1.
        -11    1    4    4    0    0  0.24605418083E+01  0.35196180368E+00  0.50524434315E+01  0.56307484165E+01  0.00000000000E+00 0.  1.
         12    1    4    4    0    0 -0.64636649400E+02 -0.13795627858E+03 -0.22699056960E+03  0.27337620586E+03  0.00000000000E+00 0. -1.
         -5    1    5    5    0  502  0.70958455754E+01  0.48299700021E+02 -0.58709322468E+02  0.76498931961E+02  0.47000000000E+01 0.  1.
         13    1    6    6    0    0  0.44850331539E+02  0.26173102950E+02  0.85624066999E+01  0.52629823918E+02  0.00000000000E+00 0. -1.
        -14    1    6    6    0    0 -0.33040370918E+01  0.35417146041E+02  0.74347372815E+02  0.82418582488E+02  0.00000000000E+00 0.  1.
</event>
<event>
12    1  0.8133495E-002  0.2007841E+03  0.7818608E-02  0.1150583E+00
         21   -1    0    0  501  502  0.00000000000E+00  0.00000000000E+00  0.24039110151E+03  0.24039110151E+03  0.00000000000E+00 0.  1.
         21   -1    0    0  502  503 -0.00000000000E+00 -0.00000000000E+00 -0.16227607149E+03  0.16227607149E+03  0.00000000000E+00 0. -1.
         -6    2    1    2    0  503 -0.64876549938E+02  0.59189005020E+02  0.28425736120E+02  0.19582598035E+03  0.17270636080E+03 0.  0.
        -24    2    3    3    0    0 -0.71906955477E+02 -0.15738807921E+02  0.47090276958E+02  0.11814677568E+03  0.79516325985E+02 0.  0.
          6    2    1    2  501    0  0.64876549938E+02 -0.59189005020E+02  0.49689293906E+02  0.20684119265E+03  0.18056009526E+03 0.  0.
         24    2    5    5    0    0  0.10929885293E+03 -0.17622009098E+02  0.19314190567E+02  0.13868040439E+03  0.81255413043E+02 0.  0.
          5    1    5    5  501    0 -0.44422302991E+02 -0.41566995922E+02  0.30375103340E+02  0.68160788257E+02  0.47000000000E+01 0. -1.
        -13    1    6    6    0    0  0.38795084365E+02 -0.45240594976E+02  0.20283500514E+02  0.62953875161E+02  0.00000000000E+00 0.  1.
         14    1    6    6    0    0  0.70503768564E+02  0.27618585878E+02 -0.96930994742E+00  0.75726529231E+02  0.00000000000E+00 0. -1.
         -5    1    3    3    0  503  0.70304055388E+01  0.74927812941E+02 -0.18664540837E+02  0.77679204674E+02  0.47000000000E+01 0.  1.
         13    1    4    4    0    0 -0.44840915526E+02  0.74392159811E+01 -0.13880935674E+02  0.47526098249E+02  0.00000000000E+00 0. -1.
        -14    1    4    4    0    0 -0.27066039951E+02 -0.23178023903E+02  0.60971212631E+02  0.70620677428E+02  0.00000000000E+00 0.  1.
</event>
<event>
12    1  0.8133495E-002  0.2242004E+03  0.7818608E-02  0.1130977E+00
         21   -1    0    0  503  502  0.00000000000E+00  0.00000000000E+00  0.40276528916E+03  0.40276528916E+03  0.00000000000E+00 0.  1.
         21   -1    0    0  501  503 -0.00000000000E+00 -0.00000000000E+00 -0.12639082406E+03  0.12639082406E+03  0.00000000000E+00 0.  1.
          6    2    1    2  501    0 -0.34520595938E+01  0.14215540833E+03  0.10328168127E+03  0.24591253520E+03  0.17200521053E+03 0.  0.
         24    2    3    3    0    0 -0.31742229918E+00  0.15117743461E+03  0.13117331162E+03  0.21605862502E+03  0.81364453362E+02 0.  0.
         -6    2    1    2    0  502  0.34520595938E+01 -0.14215540833E+03  0.17309278383E+03  0.28324357803E+03  0.17333705850E+03 0.  0.
        -24    2    5    5    0    0 -0.17947349386E+02 -0.79743549381E+02  0.18390068506E+03  0.21622062994E+03  0.79061734279E+02 0.  0.
          5    1    3    3  501    0 -0.31346372946E+01 -0.90220262820E+01 -0.27891630352E+02  0.29853910178E+02  0.47000000000E+01 0. -1.
        -13    1    4    4    0    0  0.35887922881E+02  0.99008318184E+02  0.10036750378E+03  0.14547929713E+03  0.00000000000E+00 0.  1.
         14    1    4    4    0    0 -0.36205345180E+02  0.52169116426E+02  0.30805807836E+02  0.70579327885E+02  0.00000000000E+00 0. -1.
         -5    1    5    5    0  502  0.21399408979E+02 -0.62411858947E+02 -0.10807901229E+02  0.67022948092E+02  0.47000000000E+01 0.  1.
         11    1    6    6    0    0  0.14718776423E+02 -0.42034687813E+02  0.28181081013E+02  0.52704180916E+02  0.00000000000E+00 0. -1.
        -12    1    6    6    0    0 -0.32666125809E+02 -0.37708861568E+02  0.15571960405E+03  0.16351644902E+03  0.00000000000E+00 0.  1.
</event>
<event>
12    1  0.8133495E-002  0.2139144E+03  0.7818608E-02  0.1138860E+00
         21   -1    0    0  501  502  0.00000000000E+00  0.00000000000E+00  0.25846256063E+03  0.25846256063E+03  0.00000000000E+00 0. -1.
         21   -1    0    0  502  503 -0.00000000000E+00 -0.00000000000E+00 -0.30169746531E+03  0.30169746531E+03  0.00000000000E+00 0. -1.
         -6    2    1    2    0  503 -0.39287494555E+02  0.11995192595E+03  0.15944977431E+03  0.26680256313E+03  0.17270612437E+03 0.  0.
        -24    2    3    3    0    0 -0.89309866457E+02  0.69576663541E+02  0.79620920479E+02  0.15986968391E+03  0.80010377451E+02 0.  0.
          6    2    1    2  501    0  0.39287494555E+02 -0.11995192595E+03 -0.20268467899E+03  0.29335746281E+03  0.17042755095E+03 0.  0.
         24    2    5    5    0    0 -0.13660075862E+02 -0.76498388884E+01 -0.11231770673E+03  0.13972320997E+03  0.81622242381E+02 0.  0.
          5    1    5    5  501    0  0.52947570416E+02 -0.11230208706E+03 -0.90366972262E+02  0.15363425285E+03  0.47000000000E+01 0. -1.
        -11    1    6    6    0    0 -0.40586062648E+02 -0.24752142610E+02 -0.86433912893E+02  0.98644403506E+02  0.00000000000E+00 0.  1.
         12    1    6    6    0    0  0.26925986786E+02  0.17102303721E+02 -0.25883793833E+02  0.41078806460E+02  0.00000000000E+00 0. -1.
         -5    1    3    3    0  503  0.50022371902E+02  0.50375262412E+02  0.79828853828E+02  0.10693287922E+03  0.47000000000E+01 0.  1.
         13    1    4    4    0    0 -0.74307989782E+02  0.83326615197E+02  0.46385830776E+02  0.12089932772E+03  0.00000000000E+00 0. -1.
        -14    1    4    4    0    0 -0.15001876675E+02 -0.13749951656E+02  0.33235089704E+02  0.38970356194E+02  0.00000000000E+00 0.  1.
</event>
<event>
12    1  0.8133495E-002  0.1840056E+03  0.7818608E-02  0.1164173E+00
         21   -1    0    0  503  502  0.00000000000E+00  0.00000000000E+00  0.65700575380E+02  0.65700575380E+02  0.00000000000E+00 0. -1.
         21   -1    0    0  501  503 -0.00000000000E+00 -0.00000000000E+00 -0.51549975899E+03  0.51549975899E+03  0.00000000000E+00 0. -1.
          6    2    1    2  501    0 -0.33505570658E+02  0.53270246553E+02 -0.20445744367E+03  0.27452355888E+03  0.17204649278E+03 0.  0.
         24    2    3    3    0    0 -0.34428593265E+02 -0.33265380795E+02 -0.13096322124E+03  0.16088924407E+03  0.80262506495E+02 0.  0.
         -6    2    1    2    0  502  0.33505570658E+02 -0.53270246553E+02 -0.24534173994E+03  0.30667677549E+03  0.17290960885E+03 0.  0.
        -24    2    5    5    0    0  0.54110068500E+01 -0.74937953968E+02 -0.78760148692E+02  0.13629394007E+03  0.82023783980E+02 0.  0.
          5    1    3    3  501    0  0.92302260729E+00  0.86535627348E+02 -0.73494222430E+02  0.11363431481E+03  0.47000000000E+01 0. -1.
        -13    1    4    4    0    0  0.15414859161E+02 -0.35675562649E+02 -0.33146089729E+02  0.51078634649E+02  0.00000000000E+00 0.  1.
         14    1    4    4    0    0 -0.49843452426E+02  0.24101818536E+01 -0.97817131506E+02  0.10981060943E+03  0.00000000000E+00 0. -1.
         -5    1    5    5    0  502  0.28094563808E+02  0.21667707415E+02 -0.16658159125E+03  0.17038283541E+03  0.47000000000E+01 0.  1.
         13    1    6    6    0    0 -0.97825272387E+01  0.10678601229E+02  0.52322553530E+01  0.15398274561E+02  0.00000000000E+00 0. -1.
        -14    1    6    6    0    0  0.15193534089E+02 -0.85616555197E+02 -0.83992404046E+02  0.12089566551E+03  0.00000000000E+00 0.  1.
</event>
<event>
12    1  0.8133495E-002  0.2295451E+03  0.7818608E-02  0.1127598E+00
         21   -1    0    0  501  502  0.00000000000E+00  0.00000000000E+00  0.25976088789E+03  0.25976088789E+03  0.00000000000E+00 0.  1.
         21   -1    0    0  502  503 -0.00000000000E+00 -0.00000000000E+00 -0.20441014093E+03  0.20441014093E+03  0.00000000000E+00 0. -1.
         -6    2    1    2    0  503 -0.12447697659E+03 -0.74106658444E+02 -0.78061725099E+01  0.22609591960E+03  0.17341313100E+03 0.  0.
        -24    2    3    3    0    0 -0.24691587856E+02 -0.24957726482E+01 -0.49067482639E+02  0.96443196980E+02  0.79232373429E+02 0.  0.
          6    2    1    2  501    0  0.12447697659E+03  0.74106658444E+02  0.63156919474E+02  0.23807510922E+03  0.17805798669E+03 0.  0.
         24    2    5    5    0    0  0.59828087185E+02  0.10311071746E+03  0.10748923500E+01  0.14375129233E+03  0.80324707176E+02 0.  0.
          5    1    5    5  501    0  0.64648889403E+02 -0.29004059011E+02  0.62082027124E+02  0.94323816886E+02  0.47000000000E+01 0. -1.
        -11    1    6    6    0    0  0.74163420429E+02  0.72171659017E+02  0.19021994420E+02  0.10521785764E+03  0.00000000000E+00 0.  1.
         12    1    6    6    0    0 -0.14335333243E+02  0.30939058438E+02 -0.17947102070E+02  0.38533434689E+02  0.00000000000E+00 0. -1.
         -5    1    3    3    0  503 -0.99785388733E+02 -0.71610885796E+02  0.41261310129E+02  0.12965272262E+03  0.47000000000E+01 0.  1.
         13    1    4    4    0    0 -0.16863013493E+02  0.54635768991E+01  0.19858448732E+02  0.26618975988E+02  0.00000000000E+00 0. -1.
        -14    1    4    4    0    0 -0.78285743628E+01 -0.79593495473E+01 -0.68925931371E+02  0.69824220991E+02  0.00000000000E+00 0.  1.
</event>
<event>
12    1  0.8133495E-002  0.1794601E+03  0.7818608E-02  0.1168707E+00
         21   -1    0    0  503  502  0.00000000000E+00  0.00000000000E+00  0.15686403037E+03  0.15686403037E+03  0.00000000000E+00 0.  1.
         21   -1    0    0  501  503 -0.00000000000E+00 -0.00000000000E+00 -0.46556520289E+03  0.46556520289E+03  0.00000000000E+00 0. -1.
          6    2    1    2  501    0 -0.16942826676E+02  0.47175462663E+02 -0.38753385698E+03  0.42641769227E+03  0.17069556035E+03 0.  0.
         24    2    3    3    0    0  0.47807101875E+02  0.13216902096E+01 -0.25547906178E+03  0.27228891290E+03  0.81144532938E+02 0.  0.
         -6    2    1    2    0  502  0.16942826676E+02 -0.47175462663E+02  0.78832684462E+02  0.19601154099E+03  0.17231758009E+03 0.  0.
        -24    2    5    5    0    0  0.40534266721E+02 -0.57960530426E+02 -0.60687138132E+01  0.10711153447E+03  0.80209735465E+02 0.  0.
          5    1    3    3  501    0 -0.64749928551E+02  0.45853772453E+02 -0.13205479520E+03  0.15412877937E+03  0.47000000000E+01 0. -1.
        -13    1    4    4    0    0  0.13222244206E+02 -0.32321477803E+02 -0.48522317181E+02  0.59782279430E+02  0.00000000000E+00 0.  1.
         14    1    4    4    0    0  0.34584857669E+02  0.33643168012E+02 -0.20695674460E+03  0.21250663347E+03  0.00000000000E+00 0. -1.
         -5    1    5    5    0  502 -0.23591440045E+02  0.10785067764E+02  0.84901398276E+02  0.88900006520E+02  0.47000000000E+01 0.  1.
         11    1    6    6    0    0 -0.84614747885E+01 -0.48556733713E+02 -0.23048381228E+02  0.54411219631E+02  0.00000000000E+00 0. -1.
        -12    1    6    6    0    0  0.48995741509E+02 -0.94037967133E+01  0.16979667415E+02  0.52700314840E+02  0.00000000000E+00 0.  1.
</event>
<event>
12    1  0.8133495E-002  0.1750795E+03  0.7818608E-02  0.1173319E+00
         21   -1    0    0  503  502  0.00000000000E+00  0.00000000000E+00  0.38219130751E+03  0.38219130751E+03  0.00000000000E+00 0. -1.
         21   -1    0    0  501  503 -0.00000000000E+00 -0.00000000000E+00 -0.84895473350E+02  0.84895473350E+02  0.00000000000E+00 0. -1.
          6    2    1    2  501    0 -0.28801409545E+02 -0.48199441236E+01  0.86050261800E+02  0.19271930802E+03  0.16995096668E+03 0.  0.
         24    2    3    3    0    0 -0.80110701115E+02 -0.18397689215E+02  0.77785795130E+02  0.13879908943E+03  0.80363909199E+02 0.  0.
         -6    2    1    2    0  502  0.28801409545E+02  0.48199441236E+01  0.21124557236E+03  0.27436747284E+03  0.17262695403E+03 0.  0.
        -24    2    5    5    0    0  0.60357369286E+02 -0.15507778813E+02  0.21258952593E+03  0.23651392444E+03  0.82831314672E+02 0.  0.
          5    1    3    3  501    0  0.51309291570E+02  0.13577745091E+02  0.82644666703E+01  0.53920218588E+02  0.47000000000E+01 0. -1.
        -11    1    4    4    0    0 -0.48800908702E+02 -0.33969839757E+02  0.84369007828E+02  0.10321631744E+03  0.00000000000E+00 0.  1.
         12    1    4    4    0    0 -0.31309792413E+02  0.15572150543E+02 -0.65832126987E+01  0.35582771996E+02  0.00000000000E+00 0. -1.
         -5    1    5    5    0  502 -0.31555959741E+02  0.20327722936E+02 -0.13439535685E+01  0.37853548396E+02  0.47000000000E+01 0.  1.
         11    1    6    6    0    0  0.68401739576E+02 -0.17933400656E+02  0.94005666056E+02  0.11763277641E+03  0.00000000000E+00 0. -1.
        -12    1    6    6    0    0 -0.80443702896E+01  0.24256218438E+01  0.11858385987E+03  0.11888114803E+03  0.00000000000E+00 0.  1.
</event>
<event>
12    1  0.8133495E-002  0.1799694E+03  0.7818608E-02  0.1168002E+00
         21   -1    0    0  503  502  0.00000000000E+00  0.00000000000E+00  0.72208226651E+03  0.72208226651E+03  0.00000000000E+00 0.  1.
         21   -1    0    0  501  503 -0.00000000000E+00 -0.00000000000E+00 -0.44691145920E+02  0.44691145920E+02  0.00000000000E+00 0.  1.
          6    2    1    2  501    0  0.46840275190E+02 -0.17297483358E+02  0.34517389827E+03  0.38927368058E+03  0.17290391563E+03 0.  0.
         24    2    3    3    0    0  0.52530406671E+02  0.13097970568E+02  0.34641922945E+03  0.35797029314E+03  0.72148789175E+02 0.  0.
         -6    2    1    2    0  502 -0.46840275190E+02  0.17297483358E+02  0.33221722232E+03  0.37749973185E+03  0.17217592871E+03 0.  0.
        -24    2    5    5    0    0 -0.32974685353E+02  0.78055239113E+02  0.22986893061E+03  0.25757883174E+03  0.79543567144E+02 0.  0.
          5    1    3    3  501    0 -0.56901314814E+01 -0.30395453925E+02 -0.12453311839E+01  0.31303387442E+02  0.47000000000E+01 0. -1.
        -11    1    4    4    0    0  0.22731060886E+02 -0.29062097623E+02  0.11154327897E+03  0.11748706197E+03  0.00000000000E+00 0.  1.
         12    1    4    4    0    0  0.29799345785E+02  0.42160068191E+02  0.23487595048E+03  0.24048323117E+03  0.00000000000E+00 0. -1.
         -5    1    5    5    0  502 -0.13865589837E+02 -0.60757755755E+02  0.10234829171E+03  0.11992090011E+03  0.47000000000E+01 0.  1.
         11    1    6    6    0    0  0.34941301033E+01  0.13881308237E+02 -0.18076876753E+01  0.14428007426E+02  0.00000000000E+00 0. -1.
        -12    1    6    6    0    0 -0.36468815456E+02  0.64173930876E+02  0.23167661828E+03  0.24315082431E+03  0.00000000000E+00 0.  1.
</event>
<event>
12    1  0.8133495E-002  0.2089745E+03  0.7818608E-02  0.1142485E+00
         21   -1    0    0  503  502  0.00000000000E+00  0.00000000000E+00  0.74883517320E+03  0.74883517320E+03  0.00000000000E+00 0.  1.
         21   -1    0    0  501  503 -0.00000000000E+00 -0.00000000000E+00 -0.64693279872E+02  0.64693279872E+02  0.00000000000E+00 0. -1.
          6    2    1    2  501    0 -0.11619269521E+03 -0.11446269771E+02  0.21330825723E+03  0.29861469210E+03  0.17331636455E+03 0.  0.
         24    2    3    3    0    0 -0.11600734521E+03 -0.49904940956E+02  0.21159794651E+03  0.25983172023E+03  0.82405246154E+02 0.  0.
         -6    2    1    2    0  502  0.11619269521E+03  0.11446269771E+02  0.47083363610E+03  0.51491376098E+03  0.17268499891E+03 0.  0.
        -24    2    5    5    0    0  0.14325162738E+03  0.39275824578E+02  0.40369988495E+03  0.43722399026E+03  0.78278997215E+02 0.  0.
          5    1    3    3  501    0 -0.18534999522E+00  0.38458671185E+02  0.17103107157E+01  0.38782971865E+02  0.47000000000E+01 0. -1.
        -11    1    4    4    0    0 -0.58546191184E+02 -0.67436863024E+02  0.10870873637E+03  0.14068751316E+03  0.00000000000E+00 0.  1.
         12    1    4    4    0    0 -0.57461154031E+02  0.17531922068E+02  0.10288921015E+03  0.11914420707E+03  0.00000000000E+00 0. -1.
         -5    1    5    5    0  502 -0.27058932170E+02 -0.27829554807E+02  0.67133751148E+02  0.77689770717E+02  0.47000000000E+01 0.  1.
         11    1    6    6    0    0  0.18026806949E+02  0.38542957213E+02  0.95185304359E+02  0.10426297274E+03  0.00000000000E+00 0. -1.
        -12    1    6    6    0    0  0.12522482043E+03  0.73286736451E+00  0.30851458059E+03  0.33296101752E+03  0.00000000000E+00 0.  1.
</event>
<event>
12    1  0.8133495E-002  0.2080162E+03  0.7818608E-02  0.1143254E+00
         21   -1    0    0  501  502  0.00000000000E+00  0.00000000000E+00  0.40180630635E+03  0.40180630635E+03  0.00000000000E+00 0. -1.
         21   -1    0    0  502  503 -0.00000000000E+00 -0.00000000000E+00 -0.10807073037E+03  0.10807073037E+03  0.00000000000E+00 0. -1.
         -6    2    1    2    0  503  0.31157023498E+02 -0.11014812977E+03  0.16691979307E+03  0.26670763452E+03  0.17368757695E+03 0.  0.
        -24    2    3    3    0    0  0.79216530441E+02 -0.32650116493E+02  0.92782400487E+02  0.14908917828E+03  0.79232066978E+02 0.  0.
          6    2    1    2  501    0 -0.31157023498E+02  0.11014812977E+03  0.12681578291E+03  0.24316940220E+03  0.17304838851E+03 0.  0.
         24    2    5    5    0    0 -0.31807753655E+02  0.10580475294E+02  0.91481635467E+01  0.88955589864E+02  0.81888512148E+02 0.  0.
          5    1    5    5  501    0  0.65073015671E+00  0.99567654475E+02  0.11766761937E+03  0.15421381233E+03  0.47000000000E+01 0. -1.
        -11    1    6    6    0    0  0.21925352538E+02 -0.34993290624E+01 -0.16608484281E+02  0.27727389670E+02  0.00000000000E+00 0.  1.
         12    1    6    6    0    0 -0.53733106192E+02  0.14079804357E+02  0.25756647827E+02  0.61228200195E+02  0.00000000000E+00 0. -1.
         -5    1    3    3    0  503 -0.48059506944E+02 -0.77498013276E+02  0.74137392579E+02  0.11761845624E+03  0.47000000000E+01 0.  1.
         11    1    4    4    0    0  0.23597314814E+02 -0.42766086777E+02  0.11667968189E+02  0.50218651180E+02  0.00000000000E+00 0. -1.
        -12    1    4    4    0    0  0.55619215628E+02  0.10115970284E+02  0.81114432299E+02  0.98870527100E+02  0.00000000000E+00 0.  1.
</event>
<event>
12    1  0.8133495E-002  0.2456034E+03  0.7818608E-02  0.1116208E+00
         21   -1    0    0  503  502  0.00000000000E+00  0.00000000000E+00  0.35942132945E+04  0.35942132945E+04  0.00000000000E+00 0. -1.
         21   -1    0    0  501  503 -0.00000000000E+00 -0.00000000000E+00 -0.23913235609E+02  0.23913235609E+02  0.00000000000E+00 0.  1.
          6    2    1    2  501    0 -0.37448778798E+02  0.17068026456E+03  0.79312931590E+03  0.83011678327E+03  0.17177193712E+03 0.  0.
         24    2    3    3    0    0 -0.60222694236E+02  0.14978681338E+03  0.43786726563E+03  0.47348195339E+03  0.79965964668E+02 0.  0.
         -6    2    1    2    0  502  0.37448778798E+02 -0.17068026456E+03  0.27771707430E+04  0.27880097468E+04  0.17258866996E+03 0.  0.
        -24    2    5    5    0    0 -0.41437410391E-01 -0.15480345879E+03  0.26096221791E+04  0.26155214848E+04  0.82828783199E+02 0.  0.
          5    1    3    3  501    0  0.22773915438E+02  0.20893451179E+02  0.35526205027E+03  0.35663482988E+03  0.47000000000E+01 0. -1.
        -11    1    4    4    0    0 -0.11010059701E+02 -0.87697340095E+01  0.30931950882E+02  0.33984043823E+02  0.00000000000E+00 0.  1.
         12    1    4    4    0    0 -0.49212634534E+02  0.15855654739E+03  0.40693531475E+03  0.43949790956E+03  0.00000000000E+00 0. -1.
         -5    1    5    5    0  502  0.37490216209E+02 -0.15876805774E+02  0.16754856389E+03  0.17248826202E+03  0.47000000000E+01 0.  1.
         11    1    6    6    0    0  0.80364742457E+01 -0.10719391071E+03  0.22630089956E+04  0.22655606003E+04  0.00000000000E+00 0. -1.
        -12    1    6    6    0    0 -0.80779116561E+01 -0.47609548077E+02  0.34661318345E+03  0.34996088448E+03  0.00000000000E+00 0.  1.
</event>
<event>
12    1  0.8133495E-002  0.2298612E+03  0.7818608E-02  0.1126830E+00
         21   -1    0    0  503  502  0.00000000000E+00  0.00000000000E+00  0.14822830054E+03  0.14822830054E+03  0.00000000000E+00 0.  1.
         21   -1    0    0  501  503 -0.00000000000E+00 -0.00000000000E+00 -0.50136226530E+03  0.50136226530E+03  0.00000000000E+00 0.  1.
          6    2    1    2  501    0  0.95839075574E+02  0.11861182796E+03 -0.35152855175E+03  0.41972377480E+03  0.17129457170E+03 0.  0.
         24    2    3    3    0    0  0.79101958160E+02  0.80850663823E+01 -0.21699318688E+03  0.24474334582E+03  0.80565340478E+02 0.  0.
         -6    2    1    2    0  502 -0.95839075574E+02 -0.11861182796E+03 -0.16054130056E+01  0.22986679104E+03  0.17199497124E+03 0.  0.
        -24    2    5    5    0    0 -0.94479688510E+02 -0.14327279097E+02  0.49540273362E+01  0.12526167012E+03  0.80834776837E+02 0.  0.
          5    1    3    3  501    0  0.16737117414E+02  0.11052676158E+03 -0.13453536487E+03  0.17498042898E+03  0.47000000000E+01 0. -1.
        -11    1    4    4    0    0  0.35089300647E+02  0.40468511069E+02 -0.71574185921E+02  0.89396999381E+02  0.00000000000E+00 0.  1.
         12    1    4    4    0    0  0.44012657512E+02 -0.32383444687E+02 -0.14541900096E+03  0.15534634644E+03  0.00000000000E+00 0. -1.
         -5    1    5    5    0  502 -0.13593870644E+01 -0.10428454887E+03 -0.65594403417E+01  0.10460512092E+03  0.47000000000E+01 0.  1.
         11    1    6    6    0    0 -0.23728535825E+01  0.23743810930E+02  0.90300282385E+01  0.25513533695E+02  0.00000000000E+00 0. -1.
        -12    1    6    6    0    0 -0.92106834927E+02 -0.38071090028E+02 -0.40760009023E+01  0.99748136421E+02  0.00000000000E+00 0.  1.
</event>
<event>
12    1  0.8133495E-002  0.3992166E+03  0.7818608E-02  0.1044114E+00
         21   -1    0    0  503  502  0.00000000000E+00  0.00000000000E+00  0.44751444075E+03  0.44751444075E+03  0.00000000000E+00 0. -1.
         21   -1    0    0  501  503 -0.00000000000E+00 -0.00000000000E+00 -0.49116342775E+03  0.49116342775E+03  0.00000000000E+00 0.  1.
          6    2    1    2  501    0 -0.32193333374E+03 -0.16067231336E+03 -0.26848468204E+03  0.48050211261E+03  0.17129387637E+03 0.  0.
         24    2    3    3    0    0 -0.27320421716E+03 -0.13471351577E+03 -0.14814880253E+03  0.34802117106E+03  0.79889875519E+02 0.  0.
         -6    2    1    2    0  502  0.32193333374E+03  0.16067231336E+03  0.22483569504E+03  0.45817575589E+03  0.17296609458E+03 0.  0.
        -24    2    5    5    0    0  0.12649075311E+03  0.12993583217E+03  0.13777548110E+03  0.24197190660E+03  0.81762395318E+02 0.  0.
          5    1    3    3  501    0 -0.48729116572E+02 -0.25958797585E+02 -0.12033587952E+03  0.13248094155E+03  0.47000000000E+01 0. -1.
        -11    1    4    4    0    0 -0.26300898206E+03 -0.14502347824E+03 -0.13973616013E+03  0.33125779739E+03  0.00000000000E+00 0.  1.
         12    1    4    4    0    0 -0.10195235107E+02  0.10309962464E+02 -0.84126423946E+01  0.16763373675E+02  0.00000000000E+00 0. -1.
         -5    1    5    5    0  502  0.19544258063E+03  0.30736481191E+02  0.87060213937E+02  0.21620384929E+03  0.47000000000E+01 0.  1.
         13    1    6    6    0    0  0.91191366796E+02  0.77436073390E+02  0.13245662170E+03  0.17848520239E+03  0.00000000000E+00 0. -1.
        -14    1    6    6    0    0  0.35299386313E+02  0.52499758777E+02  0.53188593959E+01  0.63486704207E+02  0.00000000000E+00 0.  1.
</event>
<event>
12    1  0.8133495E-002  0.2019134E+03  0.7818608E-02  0.1149402E+00
         21   -1    0    0  501  502  0.00000000000E+00  0.00000000000E+00  0.22978730638E+03  0.22978730638E+03  0.00000000000E+00 0.  1.
         21   -1    0    0  502  503 -0.00000000000E+00 -0.00000000000E+00 -0.18163171127E+03  0.18163171127E+03  0.00000000000E+00 0. -1.
         -6    2    1    2    0  503 -0.73063381127E+01  0.10242669692E+03  0.70602059735E+02  0.20826179783E+03  0.16686436042E+03 0.  0.
        -24    2    3    3    0    0  0.23293891126E+02  0.11371698596E+03  0.93784411684E+02  0.16797090434E+03  0.77100911601E+02 0.  0.
          6    2    1    2  501    0  0.73063381127E+01 -0.10242669692E+03 -0.22446464632E+02  0.20315721982E+03  0.17385166486E+03 0.  0.
         24    2    5    5    0    0 -0.38588927463E+02 -0.24578143484E+02 -0.54672202945E+02  0.10709806678E+03  0.79923436319E+02 0.  0.
          5    1    5    5  501    0  0.45895265575E+02 -0.77848553432E+02  0.32225738313E+02  0.96059153044E+02  0.47000000000E+01 0. -1.
        -13    1    6    6    0    0 -0.58623071603E+01 -0.20615313879E+02  0.17554362991E+02  0.27704033490E+02  0.00000000000E+00 0.  1.
         14    1    6    6    0    0 -0.32726620302E+02 -0.39628296051E+01 -0.72226565936E+02  0.79394033288E+02  0.00000000000E+00 0. -1.
         -5    1    3    3    0  503 -0.30600229239E+02 -0.11290289048E+02 -0.23182351949E+02  0.40290893489E+02  0.47000000000E+01 0.  1.
         11    1    4    4    0    0 -0.12885211475E+02  0.52724285356E+02  0.52395332353E+01  0.54528264686E+02  0.00000000000E+00 0. -1.
        -12    1    4    4    0    0  0.36179102602E+02  0.60992700608E+02  0.88544878449E+02  0.11344263966E+03  0.00000000000E+00 0.  1.
</event>
<event>
12    1  0.8133495E-002  0.2322536E+03  0.7818608E-02  0.1125098E+00
         21   -1    0    0  501  502  0.00000000000E+00  0.00000000000E+00  0.13358679317E+03  0.13358679317E+03  0.00000000000E+00 0.  1.
         21   -1    0    0  502  503 -0.00000000000E+00 -0.00000000000E+00 -0.40649679233E+03  0.40649679233E+03  0.00000000000E+00 0.  1.
         -6    2    1    2    0  503 -0.56384767517E+01  0.15537648226E+03 -0.15986728035E+03  0.28195614541E+03  0.17253427761E+03 0.  0.
        -24    2    3    3    0    0  0.18879542085E+02  0.38191765669E+02 -0.13006693898E+03  0.15849140795E+03  0.79919144798E+02 0.  0.
          6    2    1    2  501    0  0.56384767517E+01 -0.15537648226E+03 -0.11304271881E+03  0.25812744009E+03  0.17227151648E+03 0.  0.
         24    2    5    5    0    0 -0.46987487221E+02 -0.11926188011E+03 -0.30765135859E+02  0.15388998411E+03  0.79400337671E+02 0.  0.
          5    1    5    5  501    0  0.52625963973E+02 -0.36114602154E+02 -0.82277582951E+02  0.10423745598E+03  0.47000000000E+01 0. -1.
        -13    1    6    6    0    0 -0.50381234631E+02 -0.24746298625E+02 -0.13828621490E+02  0.57808986074E+02  0.00000000000E+00 0.  1.
         14    1    6    6    0    0  0.33937474093E+01 -0.94515581481E+02 -0.16936514369E+02  0.96080998034E+02  0.00000000000E+00 0. -1.
         -5    1    3    3    0  503 -0.24518018837E+02  0.11718471659E+03 -0.29800341369E+02  0.12346473746E+03  0.47000000000E+01 0.  1.
         13    1    4    4    0    0 -0.26461629846E+02  0.20506855786E+02 -0.88034633812E+02  0.94185167297E+02  0.00000000000E+00 0. -1.
        -14    1    4    4    0    0  0.45341171931E+02  0.17684909883E+02 -0.42032305170E+02  0.64306240658E+02  0.00000000000E+00 0.  1.
</event>
<event>
12    1  0.8133495E-002  0.1893971E+03  0.7818608E-02  0.1160413E+00
         21   -1    0    0  501  502  0.00000000000E+00  0.00000000000E+00  0.26015147803E+03  0.26015147803E+03  0.00000000000E+00 0.  1.
         21   -1    0    0  502  503 -0.00000000000E+00 -0.00000000000E+00 -0.14537619663E+03  0.14537619663E+03  0.00000000000E+00 0.  1.
         -6    2    1    2    0  503 -0.22893083476E+02 -0.81501314424E+02  0.25141586687E+00  0.18939731097E+03  0.16942467550E+03 0.  0.
        -24    2    3    3    0    0  0.31994945924E+02 -0.32592919382E+01  0.14568907789E+02  0.92641998818E+02  0.85650378413E+02 0.  0.
          6    2    1    2  501    0  0.22893083476E+02  0.81501314424E+02  0.11452386553E+03  0.21613036369E+03  0.16257324752E+03 0.  0.
         24    2    5    5    0    0 -0.36716032517E+02  0.38039441325E+02  0.23660507682E+02  0.98996163208E+02  0.80282965603E+02 0.  0.
          5    1    5    5  501    0  0.59609115992E+02  0.43461873099E+02  0.90863357851E+02  0.11713420048E+03  0.47000000000E+01 0. -1.
        -11    1    6    6    0    0  0.21790697335E+02  0.29396702986E+02  0.13413578633E+02  0.38973384874E+02  0.00000000000E+00 0.  1.
         12    1    6    6    0    0 -0.58506729852E+02  0.86427383392E+01  0.10246929050E+02  0.60022778334E+02  0.00000000000E+00 0. -1.
         -5    1    3    3    0  503 -0.54888029400E+02 -0.78242022486E+02 -0.14317491922E+02  0.96755312149E+02  0.47000000000E+01 0.  1.
         13    1    4    4    0    0  0.70866127601E+01 -0.34934517345E+01 -0.35687226814E+02  0.36551367185E+02  0.00000000000E+00 0. -1.
        -14    1    4    4    0    0  0.24908333164E+02  0.23415979627E+00  0.50256134603E+02  0.56090631633E+02  0.00000000000E+00 0.  1.
</event>
<event>
12    1  0.8133495E-002  0.1730368E+03  0.7818608E-02  0.1176453E+00
         21   -1    0    0  503  502  0.00000000000E+00  0.00000000000E+00  0.69484352450E+02  0.69484352450E+02  0.00000000000E+00 0.  1.
         21   -1    0    0  501  503 -0.00000000000E+00 -0.00000000000E+00 -0.76757396689E+03  0.76757396689E+03  0.00000000000E+00 0.  1.
          6    2    1    2  501    0  0.10655483849E+02 -0.49503060752E+01 -0.62918201658E+03  0.65080585179E+03  0.16595240846E+03 0.  0.
         24    2    3    3    0    0  0.27146050214E+01 -0.60714408571E+02 -0.27852413847E+03  0.29562177253E+03  0.78249141804E+02 0.  0.
         -6    2    1    2    0  502 -0.10655483849E+02  0.49503060752E+01 -0.68907597859E+02  0.18625246755E+03  0.17263742282E+03 0.  0.
        -24    2    5    5    0    0  0.19593738703E+02 -0.60330439903E+02 -0.43070808387E+02  0.10966120858E+03  0.78401591539E+02 0.  0.
          5    1    3    3  501    0  0.79408788278E+01  0.55764102496E+02 -0.35065787811E+03  0.35518407927E+03  0.47000000000E+01 0. -1.
        -13    1    4    4    0    0 -0.26771402298E+02 -0.63572498477E+02 -0.20757712986E+03  0.21873828057E+03  0.00000000000E+00 0.  1.
         14    1    4    4    0    0  0.29486007319E+02  0.28580899061E+01 -0.70947008604E+02  0.76883491956E+02  0.00000000000E+00 0. -1.
         -5    1    5    5    0  502 -0.30249222552E+02  0.65280745979E+02 -0.25836789473E+02  0.76591258971E+02  0.47000000000E+01 0.  1.
         13    1    6    6    0    0  0.37501793909E+02 -0.21323154820E+00 -0.22052885690E+02  0.43505859161E+02  0.00000000000E+00 0. -1.
        -14    1    6    6    0    0 -0.17908055206E+02 -0.60117208355E+02 -0.21017922697E+02  0.66155349415E+02  0.00000000000E+00 0.  1.
</event>
<event>
12    1  0.8133495E-002  0.2555697E+03  0.7818608E-02  0.1109964E+00
         21   -1    0    0  501  502  0.00000000000E+00  0.00000000000E+00  0.57653003208E+03  0.57653003208E+03  0.00000000000E+00 0. -1.
         21   -1    0    0  502  503 -0.00000000000E+00 -0.00000000000E+00 -0.19034085807E+03  0.19034085807E+03  0.00000000000E+00 0.  1.
         -6    2    1    2    0  503 -0.18828989853E+03  0.11363332191E+02 -0.51638722550E+02  0.25991022183E+03  0.17118573112E+03 0.  0.
        -24    2    3    3    0    0 -0.16219832395E+03  0.12980365830E-01 -0.97817267560E+02  0.20546622520E+03  0.79623208948E+02 0.  0.
          6    2    1    2  501    0  0.18828989853E+03 -0.11363332191E+02  0.43782789656E+03  0.50696066832E+03  0.17243445424E+03 0.  0.
         24    2    5    5    0    0  0.20122919218E+03 -0.43220805330E+02  0.37706582076E+03  0.43698607457E+03  0.80105994663E+02 0.  0.
          5    1    5    5  501    0 -0.12939293653E+02  0.31857473139E+02  0.60762075801E+02  0.69974593751E+02  0.47000000000E+01 0. -1.
        -11    1    6    6    0    0  0.92670692523E+02 -0.60391944725E+02  0.20120922395E+03  0.22960878913E+03  0.00000000000E+00 0.  1.
         12    1    6    6    0    0  0.10855849966E+03  0.17171139395E+02  0.17585659681E+03  0.20737728544E+03  0.00000000000E+00 0. -1.
         -5    1    3    3    0  503 -0.26091574582E+02  0.11350351825E+02  0.46178545010E+02  0.54443996638E+02  0.47000000000E+01 0.  1.
         11    1    4    4    0    0  0.31638414712E+01 -0.75799890490E+01 -0.21826714716E+02  0.23321054911E+02  0.00000000000E+00 0. -1.
        -12    1    4    4    0    0 -0.16536216542E+03  0.75929694148E+01 -0.75990552844E+02  0.18214517029E+03  0.00000000000E+00 0.  1.
</event>
<event>
12    1  0.8133495E-002  0.2145579E+03  0.7818608E-02  0.1138021E+00
         21   -1    0    0  501  502  0.00000000000E+00  0.00000000000E+00  0.45540763387E+03  0.45540763387E+03  0.00000000000E+00 0. -1.
         21   -1    0    0  502  503 -0.00000000000E+00 -0.00000000000E+00 -0.11412477653E+03  0.11412477653E+03  0.00000000000E+00 0. -1.
         -6    2    1    2    0  503  0.35380598759E+02  0.12403999987E+03  0.26700171773E+03  0.34248006133E+03  0.17136209266E+03 0.  0.
        -24    2    3    3    0    0  0.96591187680E+01  0.11489288950E+03  0.96165038808E+02  0.16941208328E+03  0.78479708455E+02 0.  0.
          6    2    1    2  501    0 -0.35380598759E+02 -0.12403999987E+03  0.74281139610E+02  0.22705234907E+03  0.17145662186E+03 0.  0.
         24    2    5    5    0    0  0.14243580710E+01 -0.35978036158E+02 -0.21969997447E+02  0.91420915822E+02  0.81108909376E+02 0.  0.
          5    1    5    5  501    0 -0.36804956830E+02 -0.88061963715E+02  0.96251137057E+02  0.13563143325E+03  0.47000000000E+01 0. -1.
        -11    1    6    6    0    0  0.21133742676E+02  0.20032715457E+02 -0.10440627185E+02  0.30934632115E+02  0.00000000000E+00 0.  1.
         12    1    6    6    0    0 -0.19709384605E+02 -0.56010751615E+02 -0.11529370262E+02  0.60486283707E+02  0.00000000000E+00 0. -1.
         -5    1    3    3    0  503  0.25721479991E+02  0.91471103748E+01  0.17083667892E+03  0.17306797805E+03  0.47000000000E+01 0.  1.
         11    1    4    4    0    0 -0.16152752760E+02  0.57417069259E+02  0.87380516021E+02  0.10579690848E+03  0.00000000000E+00 0. -1.
        -12    1    4    4    0    0  0.25811871528E+02  0.57475820239E+02  0.87845227870E+01  0.63615174798E+02  0.00000000000E+00 0.  1.
</event>
<event>
12    1  0.8133495E-002  0.3129621E+03  0.7818608E-02  0.1079057E+00
         21   -1    0    0  501  502  0.00000000000E+00  0.00000000000E+00  0.43227888576E+03  0.43227888576E+03  0.00000000000E+00 0. -1.
         21   -1    0    0  502  503 -0.00000000000E+00 -0.00000000000E+00 -0.28555947058E+03  0.28555947058E+03  0.00000000000E+00 0.  1.
         -6    2    1    2    0  503 -0.25759873911E+03  0.45602639420E+02 -0.90882943732E+02  0.32490048537E+03  0.16989380454E+03 0.  0.
        -24    2    3    3    0    0 -0.15566597680E+03  0.85959069806E+02 -0.24292792948E+02  0.19654446609E+03  0.80116972890E+02 0.  0.
          6    2    1    2  501    0  0.25759873911E+03 -0.45602639420E+02  0.23760235892E+03  0.39293787096E+03  0.17178061114E+03 0.  0.
         24    2    5    5    0    0  0.23460563475E+03 -0.71857831667E+02  0.24851712129E+03  0.35606999870E+03  0.69438696459E+02 0.  0.
          5    1    5    5  501    0  0.22993104352E+02  0.26255192247E+02 -0.10914762380E+02  0.36867872267E+02  0.47000000000E+01 0. -1.
        -13    1    6    6    0    0  0.13799581078E+02 -0.25167473637E+02  0.20688659595E+02  0.35381503685E+02  0.00000000000E+00 0.  1.
         14    1    6    6    0    0  0.22080605368E+03 -0.46690358030E+02  0.22782846170E+03  0.32068849501E+03  0.00000000000E+00 0. -1.
         -5    1    3    3    0  503 -0.10193276230E+03 -0.40356430386E+02 -0.66590150784E+02  0.12835601928E+03  0.47000000000E+01 0.  1.
         11    1    4    4    0    0 -0.11734367061E+03  0.43845250873E+02  0.16710593624E+02  0.12637716168E+03  0.00000000000E+00 0. -1.
        -12    1    4    4    0    0 -0.38322306196E+02  0.42113818933E+02 -0.41003386572E+02  0.70167304407E+02  0.00000000000E+00 0.  1.
</event>
<event>
12    1  0.8133495E-002  0.1825100E+03  0.7818608E-02  0.1165554E+00
         21   -1    0    0  503  502  0.00000000000E+00  0.00000000000E+00  0.11301715926E+03  0.11301715926E+03  0.00000000000E+00 0.  1.
         21   -1    0    0  501  503 -0.00000000000E+00 -0.00000000000E+00 -0.58911798291E+03  0.58911798291E+03  0.00000000000E+00 0.  1.
          6    2    1    2  501    0  0.48598512962E+02  0.37013707555E+02 -0.48645461310E+03  0.51933174130E+03  0.17127620067E+03 0.  0.
         24    2    3    3    0    0  0.75791889405E+02  0.61873136370E+02 -0.44851027849E+03  0.46623434540E+03  0.81488032332E+02 0.  0.
         -6    2    1    2    0  502 -0.48598512962E+02 -0.37013707555E+02  0.10353789449E+02  0.18280340086E+03  0.17198270960E+03 0.  0.
        -24    2    5    5    0    0  0.13648527863E+02 -0.93657240767E+01  0.58951047240E+02  0.99000724611E+02  0.77794076911E+02 0.  0.
          5    1    3    3  501    0 -0.27193376443E+02 -0.24859428815E+02 -0.37944334604E+02  0.53097395905E+02  0.47000000000E+01 0. -1.
        -11    1    4    4    0    0  0.24842471664E+02  0.17992684970E+02 -0.31983754767E+02  0.44315298484E+02  0.00000000000E+00 0.  1.
         12    1    4    4    0    0  0.50949417742E+02  0.43880451400E+02 -0.41652652372E+03  0.42191904691E+03  0.00000000000E+00 0. -1.
         -5    1    5    5    0  502 -0.62247040825E+02 -0.27647983479E+02 -0.48597257791E+02  0.83802676251E+02  0.47000000000E+01 0.  1.
         11    1    6    6    0    0 -0.14554641931E+02 -0.32155214932E+02  0.50763046267E+02  0.61827844176E+02  0.00000000000E+00 0. -1.
        -12    1    6    6    0    0  0.28203169794E+02  0.22789490855E+02  0.81880009728E+01  0.37172880435E+02  0.00000000000E+00 0.  1.
</event>
<event>
12    1  0.8133495E-002  0.1937124E+03  0.7818608E-02  0.1155736E+00
         21   -1    0    0  503  502  0.00000000000E+00  0.00000000000E+00  0.19020997626E+03  0.19020997626E+03  0.00000000000E+00 0. -1.
         21   -1    0    0  501  503 -0.00000000000E+00 -0.00000000000E+00 -0.10427959014E+04  0.10427959014E+04  0.00000000000E+00 0.  1.
          6    2    1    2  501    0  0.65784380236E+02 -0.48383630227E+02 -0.98175395145E+03  0.10001778872E+04  0.17276117754E+03 0.  0.
         24    2    3    3    0    0  0.10424202266E+03 -0.62350724244E+02 -0.66138011126E+03  0.67716773649E+03  0.79865384640E+02 0.  0.
         -6    2    1    2    0  502 -0.65784380236E+02  0.48383630227E+02  0.12916802632E+03  0.23282799046E+03  0.17565857156E+03 0.  0.
        -24    2    5    5    0    0 -0.46822407633E+02 -0.41062977078E+02  0.57219646738E+02  0.11638525223E+03  0.79955819176E+02 0.  0.
          5    1    3    3  501    0 -0.38457642424E+02  0.13967094017E+02 -0.32037384019E+03  0.32301015070E+03  0.47000000000E+01 0. -1.
        -11    1    4    4    0    0  0.56034097511E+02 -0.75762645399E+02 -0.39088083015E+03  0.40207912393E+03  0.00000000000E+00 0.  1.
         12    1    4    4    0    0  0.48207925149E+02  0.13411921155E+02 -0.27049928111E+03  0.27508861255E+03  0.00000000000E+00 0. -1.
         -5    1    5    5    0  502 -0.18961972603E+02  0.89446607305E+02  0.71948379584E+02  0.11644273824E+03  0.47000000000E+01 0.  1.
         11    1    6    6    0    0 -0.93754166847E+01 -0.19399630824E+02  0.68390714688E+02  0.71704490583E+02  0.00000000000E+00 0. -1.
        -12    1    6    6    0    0 -0.37446990948E+02 -0.21663346253E+02 -0.11171067951E+02  0.44680761644E+02  0.00000000000E+00 0.  1.
</event>
<event>
12    1  0.8133495E-002  0.1835359E+03  0.7818608E-02  0.1164478E+00
         21   -1    0    0  503  502  0.00000000000E+00  0.00000000000E+00  0.21036559053E+03  0.21036559053E+03  0.00000000000E+00 0. -1.
         21   -1    0    0  501  503 -0.00000000000E+00 -0.00000000000E+00 -0.19534928675E+03  0.19534928675E+03  0.00000000000E+00 0. -1.
          6    2    1    2  501    0 -0.42212990471E+02 -0.45647770656E+02  0.93885156255E+02  0.20595069965E+03  0.17244017105E+03 0.  0.
         24    2    3    3    0    0 -0.95931373370E+01  0.41943293507E+02  0.50402331180E+02  0.10275624526E+03  0.78531412808E+02 0.  0.
         -6    2    1    2    0  502  0.42212990471E+02  0.45647770656E+02 -0.78868852473E+02  0.19976417764E+03  0.17268403298E+03 0.  0.
        -24    2    5    5    0    0  0.70593455602E+02  0.73816929013E+02 -0.20907277609E+02  0.12919090760E+03  0.76294176488E+02 0.  0.
          5    1    3    3  501    0 -0.32619853134E+02 -0.87591064163E+02  0.43482825075E+02  0.10319445439E+03  0.47000000000E+01 0. -1.
        -11    1    4    4    0    0  0.26324466546E+02  0.12154667229E+02  0.47942387724E+02  0.56028439342E+02  0.00000000000E+00 0.  1.
         12    1    4    4    0    0 -0.35917603883E+02  0.29788626278E+02  0.24599434555E+01  0.46727805919E+02  0.00000000000E+00 0. -1.
         -5    1    5    5    0  502 -0.28380465131E+02 -0.28169158357E+02 -0.57961574863E+02  0.70573270041E+02  0.47000000000E+01 0.  1.
         13    1    6    6    0    0  0.66488916842E+02  0.70878375732E+02 -0.43186776530E+02  0.10634668719E+03  0.00000000000E+00 0. -1.
        -14    1    6    6    0    0  0.41045387600E+01  0.29385532807E+01  0.22279498921E+02  0.22844220407E+02  0.00000000000E+00 0.  1.
</event>
<event>
12    1  0.8133495E-002  0.2057050E+03  0.7818608E-02  0.1145064E+00
         21   -1    0    0  503  502  0.00000000000E+00  0.00000000000E+00  0.18655735353E+03  0.18655735353E+03  0.00000000000E+00 0.  1.
         21   -1    0    0  501  503 -0.00000000000E+00 -0.00000000000E+00 -0.25335742613E+03  0.25335742613E+03  0.00000000000E+00 0.  1.
          6    2    1    2  501    0 -0.85028008160E+02  0.72392156663E+02 -0.10494343297E+03  0.23070326045E+03  0.17245429464E+03 0.  0.
         24    2    3    3    0    0 -0.79039398126E+02  0.11106566903E+03 -0.10669965313E+03  0.19124849752E+03  0.81291835572E+02 0.  0.
         -6    2    1    2    0  502  0.85028008160E+02 -0.72392156663E+02  0.38143360368E+02  0.20921151921E+03  0.17275461589E+03 0.  0.
        -24    2    5    5    0    0  0.64512592854E+02  0.12564281620E+02 -0.18799653327E+02  0.10479372628E+03  0.79426458399E+02 0.  0.
          5    1    3    3  501    0 -0.59886100338E+01 -0.38673512364E+02  0.17562201637E+01  0.39454762931E+02  0.47000000000E+01 0. -1.
        -13    1    4    4    0    0 -0.59282921561E+02  0.69300047927E+02 -0.20538844584E+02  0.93481578765E+02  0.00000000000E+00 0.  1.
         14    1    4    4    0    0 -0.19756476565E+02  0.41765621099E+02 -0.86160808550E+02  0.97766918751E+02  0.00000000000E+00 0. -1.
         -5    1    5    5    0  502  0.20515415306E+02 -0.84956438283E+02  0.56943013695E+02  0.10441779293E+03  0.47000000000E+01 0.  1.
         13    1    6    6    0    0  0.23157369728E+02  0.32974712208E+02  0.19576134157E+02  0.44797549559E+02  0.00000000000E+00 0. -1.
        -14    1    6    6    0    0  0.41355223126E+02 -0.20410430588E+02 -0.38375787484E+02  0.59996176725E+02  0.00000000000E+00 0.  1.
</event>
<event>
12    1  0.8133495E-002  0.2354675E+03  0.7818608E-02  0.1123091E+00
         21   -1    0    0  501  502  0.00000000000E+00  0.00000000000E+00  0.10697627437E+03  0.10697627437E+03  0.00000000000E+00 0. -1.
         21   -1    0    0  502  503 -0.00000000000E+00 -0.00000000000E+00 -0.72983069794E+03  0.72983069794E+03  0.00000000000E+00 0. -1.
         -6    2    1    2    0  503 -0.12604900813E+03  0.96426089969E+02 -0.53766798544E+03  0.58640394891E+03  0.17203600046E+03 0.  0.
        -24    2    3    3    0    0 -0.12244452452E+03  0.89211846092E+02 -0.54692355065E+03  0.57325886982E+03  0.80925561489E+02 0.  0.
          6    2    1    2  501    0  0.12604900813E+03 -0.96426089969E+02 -0.85186438136E+02  0.25040302340E+03  0.17394999743E+03 0.  0.
         24    2    5    5    0    0  0.13001768089E+03 -0.28453744731E+02 -0.94965883490E+02  0.18145581437E+03  0.78698669692E+02 0.  0.
          5    1    5    5  501    0 -0.39686727551E+01 -0.67972345238E+02  0.97794453542E+01  0.68947209022E+02  0.47000000000E+01 0. -1.
        -13    1    6    6    0    0  0.10543345674E+02 -0.29705051327E+02 -0.37153900478E+02  0.48723346899E+02  0.00000000000E+00 0.  1.
         14    1    6    6    0    0  0.11947433521E+03  0.12513065955E+01 -0.57811983012E+02  0.13273246748E+03  0.00000000000E+00 0. -1.
         -5    1    3    3    0  503 -0.36044836094E+01  0.72142438765E+01  0.92555652136E+01  0.13145079088E+02  0.47000000000E+01 0.  1.
         11    1    4    4    0    0 -0.11840702910E+03  0.44807094849E+02 -0.42406184456E+03  0.44255660463E+03  0.00000000000E+00 0. -1.
        -12    1    4    4    0    0 -0.40374954164E+01  0.44404751243E+02 -0.12286170609E+03  0.13070226519E+03  0.00000000000E+00 0.  1.
</event>
<event>
12    1  0.8133495E-002  0.3593715E+03  0.7818608E-02  0.1058927E+00
         21   -1    0    0  501  502  0.00000000000E+00  0.00000000000E+00  0.28480386462E+03  0.28480386462E+03  0.00000000000E+00 0.  1.
         21   -1    0    0  502  503 -0.00000000000E+00 -0.00000000000E+00 -0.69515273914E+03  0.69515273914E+03  0.00000000000E+00 0. -1.
         -6    2    1    2    0  503 -0.97598827503E+02 -0.29927868247E+03  0.84623686549E+02  0.36828208547E+03  0.17139797327E+03 0.  0.
        -24    2    3    3    0    0 -0.34717088435E+02 -0.12627947569E+03 -0.22409500423E+02  0.15530079106E+03  0.80401292181E+02 0.  0.
          6    2    1    2  501    0  0.97598827503E+02  0.29927868247E+03 -0.49497256108E+03  0.61167451829E+03  0.17336268109E+03 0.  0.
         24    2    5    5    0    0  0.21339037817E+02  0.25954416349E+03 -0.34654300848E+03  0.44007087729E+03  0.75840576015E+02 0.  0.
          5    1    5    5  501    0  0.76259789686E+02  0.39734518978E+02 -0.14842955260E+03  0.17160364100E+03  0.47000000000E+01 0. -1.
        -11    1    6    6    0    0 -0.20198268512E+02  0.11307706237E+03 -0.11187845751E+03  0.16034706527E+03  0.00000000000E+00 0.  1.
         12    1    6    6    0    0  0.41537306329E+02  0.14646710113E+03 -0.23466455097E+03  0.27972381202E+03  0.00000000000E+00 0. -1.
         -5    1    3    3    0  503 -0.62881739068E+02 -0.17299920678E+03  0.10703318697E+03  0.21298129441E+03  0.47000000000E+01 0.  1.
         13    1    4    4    0    0 -0.48100828523E+02 -0.32139191811E+02 -0.11253569267E+01  0.57860900296E+02  0.00000000000E+00 0. -1.
        -14    1    4    4    0    0  0.13383740088E+02 -0.94140283878E+02 -0.21284143496E+02  0.97439890762E+02  0.00000000000E+00 0.  1.
</event>
<event>
12    1  0.8133495E-002  0.1901814E+03  0.7818608E-02  0.1158496E+00
         21   -1    0    0  503  502  0.00000000000E+00  0.00000000000E+00  0.91487159417E+02  0.91487159417E+02  0.00000000000E+00 0.  1.
         21   -1    0    0  501  503 -0.00000000000E+00 -0.00000000000E+00 -0.39434860187E+03  0.39434860187E+03  0.00000000000E+00 0.  1.
          6    2    1    2  501    0  0.76316912353E+02 -0.15992282188E+02 -0.14067283590E+03  0.23655406711E+03  0.17346168368E+03 0.  0.
         24    2    3    3    0    0  0.43316005587E+02  0.68108576508E+01 -0.16580807682E+03  0.18898397809E+03  0.79372296895E+02 0.  0.
         -6    2    1    2    0  502 -0.76316912353E+02  0.15992282188E+02 -0.16218860655E+03  0.24928169418E+03  0.17249983987E+03 0.  0.
        -24    2    5    5    0    0  0.26955378725E+02  0.47174667714E+01 -0.50989468997E+02  0.97033128469E+02  0.77888735622E+02 0.  0.
          5    1    3    3  501    0  0.33000906766E+02 -0.22803139839E+02  0.25135240914E+02  0.47570089024E+02  0.47000000000E+01 0. -1.
        -11    1    4    4    0    0  0.18720724586E+01 -0.32786091811E+02 -0.50923699564E+02  0.60594188243E+02  0.00000000000E+00 0.  1.
         12    1    4    4    0    0  0.41443933129E+02  0.39596949461E+02 -0.11488437725E+03  0.12838978985E+03  0.00000000000E+00 0. -1.
         -5    1    5    5    0  502 -0.10327229108E+03  0.11274815417E+02 -0.11119913756E+03  0.15224856571E+03  0.47000000000E+01 0.  1.
         13    1    6    6    0    0  0.34059744862E+01 -0.19447107569E+02 -0.59116784720E+02  0.62326438135E+02  0.00000000000E+00 0. -1.
        -14    1    6    6    0    0  0.23549404239E+02  0.24164574340E+02  0.81273157222E+01  0.34706690334E+02  0.00000000000E+00 0.  1.
</event>
<event>
12    1  0.8133495E-002  0.2122367E+03  0.7818608E-02  0.1139936E+00
         21   -1    0    0  501  502  0.00000000000E+00  0.00000000000E+00  0.18178942239E+03  0.18178942239E+03  0.00000000000E+00 0. -1.
         21   -1    0    0  502  503 -0.00000000000E+00 -0.00000000000E+00 -0.33165093257E+03  0.33165093257E+03  0.00000000000E+00 0. -1.
         -6    2    1    2    0  503  0.49416289413E+02  0.11313279564E+03 -0.20470384507E+03  0.29486959215E+03  0.17263665045E+03 0.  0.
        -24    2    3    3    0    0  0.27056665828E+02  0.41848131316E+02 -0.20720084455E+02  0.96240363927E+02  0.79684104366E+02 0.  0.
          6    2    1    2  501    0 -0.49416289413E+02 -0.11313279564E+03  0.54842334889E+02  0.21857076281E+03  0.17182694070E+03 0.  0.
         24    2    5    5    0    0 -0.92981450517E+02 -0.53794059510E+02  0.15480822659E+02  0.13496198628E+03  0.80223007251E+02 0.  0.
          5    1    5    5  501    0  0.43565161105E+02 -0.59338736131E+02  0.39361512229E+02  0.83608776529E+02  0.47000000000E+01 0. -1.
        -11    1    6    6    0    0 -0.73890055427E+02  0.25543124848E+01  0.15129050949E+02  0.75466237391E+02  0.00000000000E+00 0.  1.
         12    1    6    6    0    0 -0.19091395090E+02 -0.56348371994E+02  0.35177170979E+00  0.59495748892E+02  0.00000000000E+00 0. -1.
         -5    1    3    3    0  503  0.22359623584E+02  0.71284664325E+02 -0.18398376061E+03  0.19862922822E+03  0.47000000000E+01 0.  1.
         13    1    4    4    0    0  0.79640019243E+01  0.63016196250E+02 -0.23210405279E+02  0.67625359369E+02  0.00000000000E+00 0. -1.
        -14    1    4    4    0    0  0.19092663904E+02 -0.21168064935E+02  0.24903208246E+01  0.28615004558E+02  0.00000000000E+00 0.  1.
</event>
<event>
12    1  0.8133495E-002  0.2445270E+03  0.7818608E-02  0.1116826E+00
         21   -1    0    0  501  502  0.00000000000E+00  0.00000000000E+00  0.84234678214E+03  0.84234678214E+03  0.00000000000E+00 0.  1.
         21   -1    0    0  502  503 -0.00000000000E+00 -0.00000000000E+00 -0.76958190859E+02  0.76958190859E+02  0.00000000000E+00 0. -1.
         -6    2    1    2    0  503  0.14678186135E+03  0.93099858677E+02  0.51105252094E+03  0.56654048318E+03  0.17199110852E+03 0.  0.
        -24    2    3    3    0    0  0.86827934478E+02  0.99270490848E+02  0.46773203989E+03  0.49216774538E+03  0.77859539504E+02 0.  0.
          6    2    1    2  501    0 -0.14678186135E+03 -0.93099858677E+02  0.25433607034E+03  0.35276448982E+03  0.17188208195E+03 0.  0.
         24    2    5    5    0    0 -0.10996919948E+03 -0.90726598632E+02  0.26757781418E+03  0.31328996364E+03  0.78918781922E+02 0.  0.
          5    1    5    5  501    0 -0.36812661870E+02 -0.23732600449E+01 -0.13241743843E+02  0.39474526181E+02  0.47000000000E+01 0. -1.
        -11    1    6    6    0    0 -0.99869286391E+02 -0.44706571966E+02  0.14271426345E+03  0.17983301402E+03  0.00000000000E+00 0.  1.
         12    1    6    6    0    0 -0.10099913093E+02 -0.46020026667E+02  0.12486355073E+03  0.13345694961E+03  0.00000000000E+00 0. -1.
         -5    1    3    3    0  503  0.59953926876E+02 -0.61706321709E+01  0.43320481048E+02  0.74372737798E+02  0.47000000000E+01 0.  1.
         11    1    4    4    0    0  0.45002275689E+02  0.61638748694E+02  0.13825019751E+03  0.15791661492E+03  0.00000000000E+00 0. -1.
        -12    1    4    4    0    0  0.41825658789E+02  0.37631742154E+02  0.32948184239E+03  0.33425113046E+03  0.00000000000E+00 0.  1.
</event>
<event>
12    1  0.8133495E-002  0.2150912E+03  0.7818608E-02  0.1137997E+00
         21   -1    0    0  501  502  0.00000000000E+00  0.00000000000E+00  0.21908932428E+04  0.21908932428E+04  0.00000000000E+00 0. -1.
         21   -1    0    0  502  503 -0.00000000000E+00 -0.00000000000E+00 -0.25507848893E+02  0.25507848893E+02  0.00000000000E+00 0. -1.
         -6    2    1    2    0  503 -0.11595269261E+03 -0.52290410207E+02  0.60807607808E+03  0.64430805744E+03  0.17087142019E+03 0.  0.
        -24    2    3    3    0    0 -0.11726438450E+03 -0.74219572017E+01  0.28766100764E+03  0.32072992782E+03  0.79453193521E+02 0.  0.
          6    2    1    2  501    0  0.11595269261E+03  0.52290410207E+02  0.15573093158E+04  0.15720930342E+04  0.17344996176E+03 0.  0.
         24    2    5    5    0    0  0.18756403666E+02  0.76220956473E+02  0.93901414311E+03  0.94572988060E+03  0.80597823974E+02 0.  0.
          5    1    5    5  501    0  0.97196288940E+02 -0.23930546267E+02  0.61829517270E+03  0.62636315362E+03  0.47000000000E+01 0. -1.
        -11    1    6    6    0    0  0.22410979403E+02  0.15097792258E+02  0.78132792216E+02  0.82673626679E+02  0.00000000000E+00 0.  1.
         12    1    6    6    0    0 -0.36545757367E+01  0.61123164215E+02  0.86088135089E+03  0.86305625392E+03  0.00000000000E+00 0. -1.
         -5    1    3    3    0  503  0.13116918913E+01 -0.44868453005E+02  0.32041507044E+03  0.32357812963E+03  0.47000000000E+01 0.  1.
         11    1    4    4    0    0 -0.78397779732E+02  0.29395644521E+02  0.21293993143E+03  0.22880937521E+03  0.00000000000E+00 0. -1.
        -12    1    4    4    0    0 -0.38866604766E+02 -0.36817601722E+02  0.74721076203E+02  0.91920552607E+02  0.00000000000E+00 0.  1.
</event>
<event>
12    1  0.8133495E-002  0.1955905E+03  0.7818608E-02  0.1153573E+00
         21   -1    0    0  503  502  0.00000000000E+00  0.00000000000E+00  0.32173538255E+03  0.32173538255E+03  0.00000000000E+00 0. -1.
         21   -1    0    0  501  503 -0.00000000000E+00 -0.00000000000E+00 -0.66331134811E+03  0.66331134811E+03  0.00000000000E+00 0. -1.
          6    2    1    2  501    0 -0.31795348425E+02  0.87945124262E+02 -0.61703555449E+03  0.64721006082E+03  0.17147215012E+03 0.  0.
         24    2    3    3    0    0 -0.32095640001E+02  0.12793864356E+03 -0.46529507359E+03  0.49021695491E+03  0.80092014277E+02 0.  0.
         -6    2    1    2    0  502  0.31795348425E+02 -0.87945124262E+02  0.27545958893E+03  0.33783666984E+03  0.17178574240E+03 0.  0.
        -24    2    5    5    0    0  0.35049883919E+02 -0.12627740749E+03  0.24309939521E+03  0.28734678891E+03  0.79349751970E+02 0.  0.
          5    1    3    3  501    0  0.30029157610E+00 -0.39993519301E+02 -0.15174048090E+03  0.15699310592E+03  0.47000000000E+01 0. -1.
        -11    1    4    4    0    0 -0.46915222483E+02  0.51320177057E+02 -0.14882517302E+03  0.16426725418E+03  0.00000000000E+00 0.  1.
         12    1    4    4    0    0  0.14819582482E+02  0.76618466506E+02 -0.31646990057E+03  0.32594970073E+03  0.00000000000E+00 0. -1.
         -5    1    5    5    0  502 -0.32545354947E+01  0.38332283231E+02  0.32360193714E+02  0.50489880929E+02  0.47000000000E+01 0.  1.
         13    1    6    6    0    0  0.27665364508E+02 -0.59719657894E+02  0.19242170423E+03  0.20336647263E+03  0.00000000000E+00 0. -1.
        -14    1    6    6    0    0  0.73845194118E+01 -0.66557749599E+02  0.50677690984E+02  0.83980316278E+02  0.00000000000E+00 0.  1.
</event>
<event>
12    1  0.8133495E-002  0.2004506E+03  0.7818608E-02  0.1149490E+00
         21   -1    0    0  503  502  0.00000000000E+00  0.00000000000E+00  0.82513356388E+03  0.82513356388E+03  0.00000000000E+00 0. -1.
         21   -1    0    0  501  503 -0.00000000000E+00 -0.00000000000E+00 -0.80251881082E+02  0.80251881082E+02  0.00000000000E+00 0. -1.
          6    2    1    2  501    0  0.65427420491E+02  0.80359446816E+02  0.87544217656E+02  0.21816424214E+03  0.17086034782E+03 0.  0.
         24    2    3    3    0    0  0.36763352394E+02  0.42939316850E+02  0.12468452796E+03  0.15796966119E+03  0.78821655224E+02 0.  0.
         -6    2    1    2    0  502 -0.65427420491E+02 -0.80359446816E+02  0.65733746514E+03  0.68722120282E+03  0.17158685990E+03 0.  0.
        -24    2    5    5    0    0 -0.12951246981E+02  0.18980488910E+02  0.20105609804E+03  0.21728828466E+03  0.79136908783E+02 0.  0.
          5    1    3    3  501    0  0.28664068097E+02  0.37420129966E+02 -0.37140310301E+02  0.60194580950E+02  0.47000000000E+01 0. -1.
        -13    1    4    4    0    0  0.59653139134E+02  0.17159454007E+02  0.72724833370E+02  0.95612997334E+02  0.00000000000E+00 0.  1.
         14    1    4    4    0    0 -0.22889786740E+02  0.25779862843E+02  0.51959694587E+02  0.62356663852E+02  0.00000000000E+00 0. -1.
         -5    1    5    5    0  502 -0.52476173510E+02 -0.99339935726E+02  0.45628136710E+03  0.46993291817E+03  0.47000000000E+01 0.  1.
         13    1    6    6    0    0  0.13911968118E+02 -0.15853908674E+02  0.14248515331E+03  0.14403787068E+03  0.00000000000E+00 0. -1.
        -14    1    6    6    0    0 -0.26863215099E+02  0.34834397584E+02  0.58570944729E+02  0.73250413971E+02  0.00000000000E+00 0.  1.
</event>
<event>
12    1  0.8133495E-002  0.2365973E+03  0.7818608E-02  0.1122192E+00
         21   -1    0    0  503  502  0.00000000000E+00  0.00000000000E+00  0.19577332670E+03  0.19577332670E+03  0.00000000000E+00 0.  1.
         21   -1    0    0  501  503 -0.00000000000E+00 -0.00000000000E+00 -0.43470551274E+03  0.43470551274E+03  0.00000000000E+00 0. -1.
          6    2    1    2  501    0  0.76775318881E+02  0.14175279727E+03 -0.30448167393E+03  0.38560003476E+03  0.17317618753E+03 0.  0.
         24    2    3    3    0    0  0.10888288063E+03  0.14094518013E+03 -0.21544858234E+03  0.29083438083E+03  0.80283995559E+02 0.  0.
         -6    2    1    2    0  502 -0.76775318881E+02 -0.14175279727E+03  0.65549487890E+02  0.24487880468E+03  0.17228055170E+03 0.  0.
        -24    2    5    5    0    0  0.15923904781E+02 -0.86054569593E+02  0.91223655734E+00  0.11880143600E+03  0.80336724654E+02 0.  0.
          5    1    3    3  501    0 -0.32107561752E+02  0.80761713648E+00 -0.89033091598E+02  0.94765653939E+02  0.47000000000E+01 0. -1.
        -13    1    4    4    0    0  0.49025356466E+02  0.12354483762E+03 -0.14205728734E+03  0.19454327376E+03  0.00000000000E+00 0.  1.
         14    1    4    4    0    0  0.59857524167E+02  0.17400342513E+02 -0.73391295000E+02  0.96291107070E+02  0.00000000000E+00 0. -1.
         -5    1    5    5    0  502 -0.92699223662E+02 -0.55698227673E+02  0.64637251332E+02  0.12607736868E+03  0.47000000000E+01 0.  1.
         11    1    6    6    0    0 -0.24817421674E+02 -0.18243373014E+01 -0.35117275870E+01  0.25130954136E+02  0.00000000000E+00 0. -1.
        -12    1    6    6    0    0  0.40741326456E+02 -0.84230232291E+02  0.44239641443E+01  0.93670481860E+02  0.00000000000E+00 0.  1.
</event>
<event>
12    1  0.8133495E-002  0.2309060E+03  0.7818608E-02  0.1126052E+00
         21   -1    0    0  501  502  0.00000000000E+00  0.00000000000E+00  0.79542503047E+03  0.79542503047E+03  0.00000000000E+00 0. -1.
         21   -1    0    0  502  503 -0.00000000000E+00 -0.00000000000E+00 -0.16924929582E+03  0.16924929582E+03  0.00000000000E+00 0. -1.
         -6    2    1    2    0  503  0.19771206028E+02  0.15140475108E+03 -0.61831023411E+02  0.23904110697E+03  0.17321453786E+03 0.  0.
        -24    2    3    3    0    0  0.17234755461E+02  0.53505215692E+02 -0.94116622245E+02  0.13581706663E+03  0.80177877887E+02 0.  0.
          6    2    1    2  501    0 -0.19771206028E+02 -0.15140475108E+03  0.68800675806E+03  0.72563321933E+03  0.17284666793E+03 0.  0.
         24    2    5    5    0    0  0.45711419051E+02 -0.99375310609E+02  0.52380277022E+03  0.54129636331E+03  0.81654299655E+02 0.  0.
          5    1    5    5  501    0 -0.65482625079E+02 -0.52029440476E+02  0.16420398784E+03  0.18433685602E+03  0.47000000000E+01 0. -1.
        -11    1    6    6    0    0 -0.40699119075E+01 -0.34790080503E+02  0.53298457937E+02  0.63778048754E+02  0.00000000000E+00 0.  1.
         12    1    6    6    0    0  0.49781330959E+02 -0.64585230105E+02  0.47050431228E+03  0.47751831456E+03  0.00000000000E+00 0. -1.
         -5    1    3    3    0  503  0.25364505673E+01  0.97899535393E+02  0.32285598835E+02  0.10322404034E+03  0.47000000000E+01 0.  1.
         13    1    4    4    0    0  0.43153968900E+02  0.45430263689E+02 -0.37487976796E+02  0.73017273948E+02  0.00000000000E+00 0. -1.
        -14    1    4    4    0    0 -0.25919213439E+02  0.80749520029E+01 -0.56628645450E+02  0.62799792680E+02  0.00000000000E+00 0.  1.
</event>
<event>
12    1  0.8133495E-002  0.1838822E+03  0.7818608E-02  0.1164258E+00
         21   -1    0    0  501  502  0.00000000000E+00  0.00000000000E+00  0.19249323809E+03  0.19249323809E+03  0.00000000000E+00 0.  1.
         21   -1    0    0  502  503 -0.00000000000E+00 -0.00000000000E+00 -0.45888322434E+03  0.45888322434E+03  0.00000000000E+00 0.  1.
         -6    2    1    2    0  503  0.38071965996E+02  0.54627921189E+02 -0.38926267334E+03  0.43021958102E+03  0.17067446987E+03 0.  0.
        -24    2    3    3    0    0  0.53075000540E+02 -0.39698408609E+01 -0.33565784830E+03  0.34926060356E+03  0.80523678249E+02 0.  0.
          6    2    1    2  501    0 -0.38071965996E+02 -0.54627921189E+02  0.12287268709E+03  0.22115688140E+03  0.17140298885E+03 0.  0.
         24    2    5    5    0    0 -0.44773723016E+02 -0.98703774420E+02  0.71064772167E+02  0.15264597399E+03  0.80644095717E+02 0.  0.
          5    1    5    5  501    0  0.67017570196E+01  0.44075853231E+02  0.51807914928E+02  0.68510907411E+02  0.47000000000E+01 0. -1.
        -13    1    6    6    0    0 -0.48598313184E+02 -0.32427848340E+02  0.44393313347E+01  0.58592397587E+02  0.00000000000E+00 0.  1.
         14    1    6    6    0    0  0.38245901675E+01 -0.66275926080E+02  0.66625440832E+02  0.94053576401E+02  0.00000000000E+00 0. -1.
         -5    1    3    3    0  503 -0.15003034543E+02  0.58597762050E+02 -0.53604825047E+02  0.80958977458E+02  0.47000000000E+01 0.  1.
         13    1    4    4    0    0  0.34727001827E+02 -0.29609061222E+02 -0.29122222615E+03  0.29477626460E+03  0.00000000000E+00 0. -1.
        -14    1    4    4    0    0  0.18347998713E+02  0.25639220361E+02 -0.44435622143E+02  0.54484338968E+02  0.00000000000E+00 0.  1.
</event>
<event>
12    1  0.8133495E-002  0.2276963E+03  0.7818608E-02  0.1128729E+00
         21   -1    0    0  503  502  0.00000000000E+00  0.00000000000E+00  0.15354043482E+04  0.15354043482E+04  0.00000000000E+00 0. -1.
         21   -1    0    0  501  503 -0.00000000000E+00 -0.00000000000E+00 -0.39574981305E+02  0.39574981305E+02  0.00000000000E+00 0.  1.
          6    2    1    2  501    0 -0.13975924268E+03 -0.39649800446E+02  0.44014114773E+03  0.49555004875E+03  0.17533073974E+03 0.  0.
         24    2    3    3    0    0 -0.23150179029E+02 -0.62969704115E+02  0.15702281350E+03  0.18843513082E+03  0.79690150861E+02 0.  0.
         -6    2    1    2    0  502  0.13975924268E+03  0.39649800446E+02  0.10556882191E+04  0.10794292807E+04  0.17200349844E+03 0.  0.
        -24    2    5    5    0    0  0.24407131274E+02  0.41450781652E+02  0.28384019248E+03  0.29899298007E+03  0.80732099588E+02 0.  0.
          5    1    3    3  501    0 -0.11660906365E+03  0.23319903670E+02  0.28311833423E+03  0.30711491792E+03  0.47000000000E+01 0. -1.
        -13    1    4    4    0    0 -0.21115479941E+02 -0.71468650874E+02  0.16204211131E+03  0.17835716243E+03  0.00000000000E+00 0.  1.
         14    1    4    4    0    0 -0.20346990878E+01  0.84989467590E+01 -0.50192978157E+01  0.10077968394E+02  0.00000000000E+00 0. -1.
         -5    1    5    5    0  502  0.11535211141E+03 -0.18009812060E+01  0.77184802664E+03  0.78043630065E+03  0.47000000000E+01 0.  1.
         13    1    6    6    0    0  0.14698856914E+02  0.55466266721E+02  0.27259539111E+03  0.27856922011E+03  0.00000000000E+00 0. -1.
        -14    1    6    6    0    0  0.97082743603E+01 -0.14015485070E+02  0.11244801370E+02  0.20423759954E+02  0.00000000000E+00 0.  1.
</event>
<event>
12    1  0.8133495E-002  0.1794242E+03  0.7818608E-02  0.1170380E+00
         21   -1    0    0  503  502  0.00000000000E+00  0.00000000000E+00  0.49604400330E+02  0.49604400330E+02  0.00000000000E+00 0. -1.
         21   -1    0    0  501  503 -0.00000000000E+00 -0.00000000000E+00 -0.65393646672E+03  0.65393646672E+03  0.00000000000E+00 0. -1.
          6    2    1    2  501    0 -0.40279462374E+01  0.18924430752E+02 -0.22868439223E+03  0.29067095340E+03  0.17837795120E+03 0.  0.
         24    2    3    3    0    0 -0.44966669733E+02  0.65078194731E+02 -0.11611546240E+03  0.16221861604E+03  0.81085793859E+02 0.  0.
         -6    2    1    2    0  502  0.40279462374E+01 -0.18924430752E+02 -0.37564767416E+03  0.41286991365E+03  0.17022347682E+03 0.  0.
        -24    2    5    5    0    0 -0.57862886283E+02 -0.38909377908E+02 -0.22807852941E+03  0.25153604942E+03  0.79928188285E+02 0.  0.
          5    1    3    3  501    0  0.40938723496E+02 -0.46153763979E+02 -0.11256892982E+03  0.12845233736E+03  0.47000000000E+01 0. -1.
        -11    1    4    4    0    0 -0.34539552211E+02  0.55799122642E+02 -0.25292672553E+02  0.70329524663E+02  0.00000000000E+00 0.  1.
         12    1    4    4    0    0 -0.10427117522E+02  0.92790720897E+01 -0.90822789848E+02  0.91889091379E+02  0.00000000000E+00 0. -1.
         -5    1    5    5    0  502  0.61890832520E+02  0.19984947156E+02 -0.14756914476E+03  0.16133386423E+03  0.47000000000E+01 0.  1.
         13    1    6    6    0    0 -0.63164192620E+02 -0.34257697091E+02 -0.23240638858E+03  0.24326124741E+03  0.00000000000E+00 0. -1.
        -14    1    6    6    0    0  0.53013063371E+01 -0.46516808173E+01  0.43278591704E+01  0.82748020100E+01  0.00000000000E+00 0.  1.
</event>
<event>
12    1  0.8133495E-002  0.1987552E+03  0.7818608E-02  0.1151138E+00
         21   -1    0    0  501  502  0.00000000000E+00  0.00000000000E+00  0.95701771224E+03  0.95701771224E+03  0.00000000000E+00 0. -1.
         21   -1    0    0  502  503 -0.00000000000E+00 -0.00000000000E+00 -0.47984274428E+02  0.47984274428E+02  0.00000000000E+00 0. -1.
         -6    2    1    2    0  503 -0.79204706411E+02  0.49948574147E+02  0.26361232381E+03  0.33014403059E+03  0.17531508233E+03 0.  0.
        -24    2    3    3    0    0 -0.59912632007E+02 -0.27232646963E+02  0.20610138801E+03  0.23186522940E+03  0.83382024018E+02 0.  0.
          6    2    1    2  501    0  0.79204706411E+02 -0.49948574147E+02  0.64542111400E+03  0.67485795608E+03  0.17348371943E+03 0.  0.
         24    2    5    5    0    0 -0.62558660641E+01 -0.18142233370E+02  0.47375336846E+03  0.48041758573E+03  0.77398488756E+02 0.  0.
          5    1    5    5  501    0  0.85460572475E+02 -0.31806340777E+02  0.17166774554E+03  0.19444037035E+03  0.47000000000E+01 0. -1.
        -11    1    6    6    0    0 -0.87547030179E+00  0.34944867028E+01 -0.20145729328E+01  0.41275161620E+01  0.00000000000E+00 0.  1.
         12    1    6    6    0    0 -0.53803957623E+01 -0.21636720073E+02  0.47576794139E+03  0.47629006957E+03  0.00000000000E+00 0. -1.
         -5    1    3    3    0  503 -0.19292074405E+02  0.77181221110E+02  0.57510935802E+02  0.98278801192E+02  0.47000000000E+01 0.  1.
         11    1    4    4    0    0 -0.55345336210E+02  0.12326133165E+02  0.70140981295E+02  0.90193109804E+02  0.00000000000E+00 0. -1.
        -12    1    4    4    0    0 -0.45672957961E+01 -0.39558780128E+02  0.13596040671E+03  0.14167211959E+03  0.00000000000E+00 0.  1.
</event>
<event>
12    1  0.8133495E-002  0.1825600E+03  0.7818608E-02  0.1165437E+00
         21   -1    0    0  501  502  0.00000000000E+00  0.00000000000E+00  0.81710315284E+03  0.81710315284E+03  0.00000000000E+00 0. -1.
         21   -1    0    0  502  503 -0.00000000000E+00 -0.00000000000E+00 -0.59957666007E+02  0.59957666007E+02  0.00000000000E+00 0. -1.
         -6    2    1    2    0  503 -0.46328234189E+02 -0.39728038913E+02  0.13033556278E+03  0.22431118431E+03  0.17205675262E+03 0.  0.
        -24    2    3    3    0    0 -0.11892725274E+02 -0.82882073262E+01  0.15209239431E+03  0.17264188005E+03  0.80392730065E+02 0.  0.
          6    2    1    2  501    0  0.46328234189E+02  0.39728038913E+02  0.62680992405E+03  0.65274963454E+03  0.17165891219E+03 0.  0.
         24    2    5    5    0    0 -0.20338304879E+02  0.44798137821E+02  0.18402363427E+03  0.20491939688E+03  0.75542977517E+02 0.  0.
          5    1    5    5  501    0  0.66666539068E+02 -0.50700989088E+01  0.44278628978E+03  0.44783023765E+03  0.47000000000E+01 0. -1.
        -11    1    6    6    0    0  0.44605510059E+01 -0.16002633743E+02  0.11183216726E+02  0.20026111413E+02  0.00000000000E+00 0.  1.
         12    1    6    6    0    0 -0.24798855885E+02  0.60800771564E+02  0.17284041754E+03  0.18489328547E+03  0.00000000000E+00 0. -1.
         -5    1    3    3    0  503 -0.34435508914E+02 -0.31439831586E+02 -0.21756831527E+02  0.51669304258E+02  0.47000000000E+01 0.  1.
         13    1    4    4    0    0 -0.14711754726E+02 -0.39247984927E+02  0.46659376539E+02  0.62721108623E+02  0.00000000000E+00 0. -1.
        -14    1    4    4    0    0  0.28190294516E+01  0.30959777601E+02  0.10543301777E+03  0.10992077143E+03  0.00000000000E+00 0.  1.
</event>
<event>
12    1  0.8133495E-002  0.2286394E+03  0.7818608E-02  0.1127825E+00
         21   -1    0    0  501  502  0.00000000000E+00  0.00000000000E+00  0.49661279213E+03  0.49661279213E+03  0.00000000000E+00 0. -1.
         21   -1    0    0  502  503 -0.00000000000E+00 -0.00000000000E+00 -0.20677251347E+03  0.20677251347E+03  0.00000000000E+00 0.  1.
         -6    2    1    2    0  503 -0.19914763403E+01  0.15010031808E+03 -0.10199215230E+03  0.25035650864E+03  0.17245843216E+03 0.  0.
        -24    2    3    3    0    0 -0.31106154730E+01  0.79071765332E+01 -0.49382889457E+02  0.98666144703E+02  0.84994934967E+02 0.  0.
          6    2    1    2  501    0  0.19914763403E+01 -0.15010031808E+03  0.39183243096E+03  0.45302879696E+03  0.17078748625E+03 0.  0.
         24    2    5    5    0    0 -0.31219688347E+02 -0.34772752996E+02  0.78700899050E+02  0.11765307482E+03  0.73922941037E+02 0.  0.
          5    1    5    5  501    0  0.33211164688E+02 -0.11532756508E+03  0.31313153191E+03  0.33537572214E+03  0.47000000000E+01 0. -1.
        -11    1    6    6    0    0  0.13895836645E+02 -0.38865126455E+02  0.29242383717E+02  0.50583686460E+02  0.00000000000E+00 0.  1.
         12    1    6    6    0    0 -0.45115524992E+02  0.40923734592E+01  0.49458515333E+02  0.67069388359E+02  0.00000000000E+00 0. -1.
         -5    1    3    3    0  503  0.11191391327E+01  0.14219314154E+03 -0.52609262842E+02  0.15169036394E+03  0.47000000000E+01 0.  1.
         13    1    4    4    0    0 -0.29917867462E+02 -0.27456705456E+02 -0.28576910097E+02  0.49654700267E+02  0.00000000000E+00 0. -1.
        -14    1    4    4    0    0  0.26807251989E+02  0.35363881989E+02 -0.20805979361E+02  0.49011444436E+02  0.00000000000E+00 0.  1.
</event>
<event>
12    1  0.8133495E-002  0.2364205E+03  0.7818608E-02  0.1122389E+00
         21   -1    0    0  501  502  0.00000000000E+00  0.00000000000E+00  0.17899478752E+04  0.17899478752E+04  0.00000000000E+00 0. -1.
         21   -1    0    0  502  503 -0.00000000000E+00 -0.00000000000E+00 -0.69925429744E+02  0.69925429744E+02  0.00000000000E+00 0.  1.
         -6    2    1    2    0  503  0.36612537872E+02  0.15474146527E+03  0.16600433172E+03  0.28797415478E+03  0.17345396124E+03 0.  0.
        -24    2    3    3    0    0  0.22319048596E+02  0.12651255676E+03  0.37658932815E+02  0.15570244000E+03  0.79507783601E+02 0.  0.
          6    2    1    2  501    0 -0.36612537872E+02 -0.15474146527E+03  0.15540181138E+04  0.15718991502E+04  0.17495496977E+03 0.  0.
         24    2    5    5    0    0 -0.68849145773E+02 -0.11167394568E+03  0.14056754504E+04  0.14140332390E+04  0.79719848155E+02 0.  0.
          5    1    5    5  501    0  0.32236607900E+02 -0.43067519592E+02  0.14834266333E+03  0.15786591113E+03  0.47000000000E+01 0. -1.
        -13    1    6    6    0    0 -0.27111949510E+02 -0.10126949972E+03  0.80127470850E+03  0.80810378533E+03  0.00000000000E+00 0.  1.
         14    1    6    6    0    0 -0.41737196263E+02 -0.10404445967E+02  0.60440074192E+03  0.60592945372E+03  0.00000000000E+00 0. -1.
         -5    1    3    3    0  503  0.14293489276E+02  0.28228908511E+02  0.12834539890E+03  0.13227171478E+03  0.47000000000E+01 0.  1.
         13    1    4    4    0    0  0.18593601963E+02  0.43732685205E+00  0.21679158939E+02  0.28563949675E+02  0.00000000000E+00 0. -1.
        -14    1    4    4    0    0  0.37254466330E+01  0.12607522991E+03  0.15979773876E+02  0.12713849033E+03  0.00000000000E+00 0.  1.
</event>
<event>
12    1  0.8133495E-002  0.2436906E+03  0.7818608E-02  0.1117380E+00
         21   -1    0    0  503  502  0.00000000000E+00  0.00000000000E+00  0.16539665652E+03  0.16539665652E+03  0.00000000000E+00 0. -1.
         21   -1    0    0  501  503 -0.00000000000E+00 -0.00000000000E+00 -0.51326418259E+03  0.51326418259E+03  0.00000000000E+00 0. -1.
          6    2    1    2  501    0 -0.74541538139E+02  0.15585810491E+03 -0.36008420894E+03  0.43479389196E+03  0.17186303028E+03 0.  0.
         24    2    3    3    0    0 -0.48657608607E+02  0.24059249722E+02 -0.22499500840E+03  0.24423655638E+03  0.77989302458E+02 0.  0.
         -6    2    1    2    0  502  0.74541538139E+02 -0.15585810491E+03  0.12216682877E+02  0.24386694715E+03  0.17167891775E+03 0.  0.
        -24    2    5    5    0    0  0.96369092236E+02 -0.78490204872E+02  0.43518936348E+02  0.15747160500E+03  0.86346362751E+02 0.  0.
          5    1    3    3  501    0 -0.25883929532E+02  0.13179885519E+03 -0.13508920055E+03  0.19055733557E+03  0.47000000000E+01 0. -1.
        -13    1    4    4    0    0 -0.15111725830E+02 -0.25495739220E+02 -0.11778125230E+03  0.12145295537E+03  0.00000000000E+00 0.  1.
         14    1    4    4    0    0 -0.33545882777E+02  0.49554988942E+02 -0.10721375610E+03  0.12278360101E+03  0.00000000000E+00 0. -1.
         -5    1    5    5    0  502 -0.21827554098E+02 -0.77367900036E+02 -0.31302253472E+02  0.86395342156E+02  0.47000000000E+01 0.  1.
         13    1    6    6    0    0  0.22567839988E+02 -0.65801692616E+02 -0.24436223924E+01  0.69607050241E+02  0.00000000000E+00 0. -1.
        -14    1    6    6    0    0  0.73801252248E+02 -0.12688512257E+02  0.45962558741E+02  0.87864554757E+02  0.00000000000E+00 0.  1.
</event>
<event>
12    1  0.8133495E-002  0.1816998E+03  0.7818608E-02  0.1166953E+00
         21   -1    0    0  501  502  0.00000000000E+00  0.00000000000E+00  0.34144579681E+03  0.34144579681E+03  0.00000000000E+00 0.  1.
         21   -1    0    0  502  503 -0.00000000000E+00 -0.00000000000E+00 -0.11490402668E+03  0.11490402668E+03  0.00000000000E+00 0.  1.
         -6    2    1    2    0  503 -0.50839203744E+02 -0.28719567907E+02  0.19078454146E+02  0.18269862410E+03  0.17206208652E+03 0.  0.
        -24    2    3    3    0    0  0.11729619300E+02 -0.18706200151E+02  0.63684422091E+02  0.10506546413E+03  0.80594914499E+02 0.  0.
          6    2    1    2  501    0  0.50839203744E+02  0.28719567907E+02  0.20746331598E+03  0.27365119939E+03  0.16862536355E+03 0.  0.
         24    2    5    5    0    0  0.61692858052E+02 -0.23742930240E+02  0.65209061446E+02  0.12157069946E+03  0.78469597951E+02 0.  0.
          5    1    5    5  501    0 -0.10853654308E+02  0.52462498147E+02  0.14225425454E+03  0.15208049993E+03  0.47000000000E+01 0. -1.
        -11    1    6    6    0    0  0.27060559035E+02 -0.46548572735E+02  0.13914940985E+02  0.55611770890E+02  0.00000000000E+00 0.  1.
         12    1    6    6    0    0  0.34632299018E+02  0.22805642495E+02  0.51294120461E+02  0.65958928574E+02  0.00000000000E+00 0. -1.
         -5    1    3    3    0  503 -0.62568823044E+02 -0.10013367757E+02 -0.44605967945E+02  0.77633159972E+02  0.47000000000E+01 0.  1.
         13    1    4    4    0    0  0.30177768172E+02 -0.58975142328E+01 -0.64543295733E+01  0.31418732250E+02  0.00000000000E+00 0. -1.
        -14    1    4    4    0    0 -0.18448148872E+02 -0.12808685918E+02  0.70138751664E+02  0.73646731881E+02  0.00000000000E+00 0.  1.
</event>
<event>
12    1  0.8133495E-002  0.2176970E+03  0.7818608E-02  0.1135720E+00
         21   -1    0    0  501  502  0.00000000000E+00  0.00000000000E+00  0.10393670787E+04  0.10393670787E+04  0.00000000000E+00 0.  1.
         21   -1    0    0  502  503 -0.00000000000E+00 -0.00000000000E+00 -0.95094527104E+02  0.95094527104E+02  0.00000000000E+00 0.  1.
         -6    2    1    2    0  503  0.10410999911E+03  0.82553012826E+02  0.62703017062E+02  0.22654727731E+03  0.17244740840E+03 0.  0.
        -24    2    3    3    0    0  0.28622279975E+02  0.10025242075E+03  0.80400863909E+01  0.13156416949E+03  0.79841749266E+02 0.  0.
          6    2    1    2  501    0 -0.10410999911E+03 -0.82553012826E+02  0.88156953451E+03  0.90791432847E+03  0.17172562950E+03 0.  0.
         24    2    5    5    0    0 -0.12710520279E+03 -0.85495409084E+02  0.85500534102E+03  0.87234491094E+03  0.80537649028E+02 0.  0.
          5    1    5    5  501    0  0.22995203681E+02  0.29423962578E+01  0.26564193483E+02  0.35569417531E+02  0.47000000000E+01 0. -1.
        -13    1    6    6    0    0 -0.78916552877E+02 -0.93571130964E+01  0.31477899527E+03  0.32465550010E+03  0.00000000000E+00 0.  1.
         14    1    6    6    0    0 -0.48188649917E+02 -0.76138295988E+02  0.54022634575E+03  0.54768941083E+03  0.00000000000E+00 0. -1.
         -5    1    3    3    0  503  0.75487719139E+02 -0.17699407927E+02  0.54662930671E+02  0.94983107821E+02  0.47000000000E+01 0.  1.
         11    1    4    4    0    0 -0.99479984797E+01  0.46472938744E+02 -0.29047716318E+02  0.55699789340E+02  0.00000000000E+00 0. -1.
        -12    1    4    4    0    0  0.38570278455E+02  0.53779482009E+02  0.37087802709E+02  0.75864380147E+02  0.00000000000E+00 0.  1.
</event>
<event>
12    1  0.8133495E-002  0.2238264E+03  0.7818608E-02  0.1131623E+00
         21   -1    0    0  503  502  0.00000000000E+00  0.00000000000E+00  0.37654449983E+03  0.37654449983E+03  0.00000000000E+00 0.  1.
         21   -1    0    0  501  503 -0.00000000000E+00 -0.00000000000E+00 -0.35968853552E+03  0.35968853552E+03  0.00000000000E+00 0.  1.
          6    2    1    2  501    0 -0.14111796687E+03 -0.26696243637E+02 -0.28492108136E+03  0.36232343551E+03  0.17167201089E+03 0.  0.
         24    2    3    3    0    0 -0.87604765293E+02 -0.84057263119E+02 -0.17321614721E+03  0.22574367270E+03  0.78842588250E+02 0.  0.
         -6    2    1    2    0  502  0.14111796687E+03  0.26696243637E+02  0.30177704567E+03  0.37390959984E+03  0.16766643539E+03 0.  0.
        -24    2    5    5    0    0  0.37870795217E+02 -0.13698989265E+02  0.64582775766E+02  0.11204137921E+03  0.82222115598E+02 0.  0.
          5    1    3    3  501    0 -0.53513201580E+02  0.57361019482E+02 -0.11170493414E+03  0.13657976282E+03  0.47000000000E+01 0. -1.
        -13    1    4    4    0    0 -0.97765580938E+02 -0.52045056295E+02 -0.12535980947E+03  0.16727784830E+03  0.00000000000E+00 0.  1.
         14    1    4    4    0    0  0.10160815645E+02 -0.32012206824E+02 -0.47856337746E+02  0.58465824400E+02  0.00000000000E+00 0. -1.
         -5    1    5    5    0  502  0.10324717166E+03  0.40395232901E+02  0.23719426991E+03  0.26186822062E+03  0.47000000000E+01 0.  1.
         13    1    6    6    0    0 -0.26304580687E+02 -0.27657046675E+01  0.19215725481E+02  0.32692876796E+02  0.00000000000E+00 0. -1.
        -14    1    6    6    0    0  0.64175375904E+02 -0.10933284597E+02  0.45367050284E+02  0.79348502418E+02  0.00000000000E+00 0.  1.
</event>
<event>
12    1  0.8133495E-002  0.1753701E+03  0.7818608E-02  0.1172373E+00
         21   -1    0    0  501  502  0.00000000000E+00  0.00000000000E+00  0.14068948259E+04  0.14068948259E+04  0.00000000000E+00 0. -1.
         21   -1    0    0  502  503 -0.00000000000E+00 -0.00000000000E+00 -0.22826377045E+02  0.22826377045E+02  0.00000000000E+00 0. -1.
         -6    2    1    2    0  503 -0.24843248215E+02 -0.26357614563E+02  0.83951138733E+03  0.85762237798E+03  0.17153676844E+03 0.  0.
        -24    2    3    3    0    0  0.18796100097E+01 -0.27695703565E+00  0.79701423669E+03  0.80085610577E+03  0.78327511220E+02 0.  0.
          6    2    1    2  501    0  0.24843248215E+02  0.26357614563E+02  0.54455706155E+03  0.57209882499E+03  0.17158893159E+03 0.  0.
         24    2    5    5    0    0  0.65517798328E+02  0.61008250050E+02  0.34560709328E+03  0.36604478974E+03  0.80808023747E+02 0.  0.
          5    1    5    5  501    0 -0.40674550113E+02 -0.34650635487E+02  0.19894996827E+03  0.20605403525E+03  0.47000000000E+01 0. -1.
        -13    1    6    6    0    0  0.22195489158E+01  0.30817853881E+02  0.22023160861E+03  0.22238846181E+03  0.00000000000E+00 0.  1.
         14    1    6    6    0    0  0.63298249412E+02  0.30190396169E+02  0.12537548467E+03  0.14365632793E+03  0.00000000000E+00 0. -1.
         -5    1    3    3    0  503 -0.26722858225E+02 -0.26080657527E+02  0.42497150642E+02  0.56766272217E+02  0.47000000000E+01 0.  1.
         11    1    4    4    0    0 -0.20852582584E+02  0.31931579194E+02  0.44876968828E+03  0.45038726566E+03  0.00000000000E+00 0. -1.
        -12    1    4    4    0    0  0.22732192594E+02 -0.32208536230E+02  0.34824454841E+03  0.35046884010E+03  0.00000000000E+00 0.  1.
</event>
<event>
12    1  0.8133495E-002  0.1793591E+03  0.7818608E-02  0.1168568E+00
         21   -1    0    0  501  502  0.00000000000E+00  0.00000000000E+00  0.18136230622E+03  0.18136230622E+03  0.00000000000E+00 0.  1.
         21   -1    0    0  502  503 -0.00000000000E+00 -0.00000000000E+00 -0.18016552126E+03  0.18016552126E+03  0.00000000000E+00 0.  1.
         -6    2    1    2    0  503  0.28693573031E+01  0.50042019705E+02 -0.24125184841E+02  0.18039011371E+03  0.17159875184E+03 0.  0.
        -24    2    3    3    0    0 -0.45753000219E+02 -0.13045450545E+02  0.11154912345E+02  0.93149424744E+02  0.79302348337E+02 0.  0.
          6    2    1    2  501    0 -0.28693573031E+01 -0.50042019705E+02  0.25321969807E+02  0.18113771377E+03  0.17221275286E+03 0.  0.
         24    2    5    5    0    0 -0.68385071624E+02 -0.39006322336E+02  0.22352791142E+02  0.11446686961E+03  0.80031279909E+02 0.  0.
          5    1    5    5  501    0  0.65515714321E+02 -0.11035697369E+02  0.29691786645E+01  0.66670844162E+02  0.47000000000E+01 0. -1.
        -13    1    6    6    0    0  0.50830595482E+01 -0.20603825662E+02  0.31707083482E+02  0.38153561685E+02  0.00000000000E+00 0.  1.
         14    1    6    6    0    0 -0.73468131172E+02 -0.18402496674E+02 -0.93542923401E+01  0.76313307928E+02  0.00000000000E+00 0. -1.
         -5    1    3    3    0  503  0.48622357522E+02  0.63087470250E+02 -0.35280097185E+02  0.87240688965E+02  0.47000000000E+01 0.  1.
         11    1    4    4    0    0 -0.44413517364E+02 -0.28026105985E+02 -0.21848527239E+02  0.56880412129E+02  0.00000000000E+00 0. -1.
        -12    1    4    4    0    0 -0.13394828550E+01  0.14980655440E+02  0.33003439584E+02  0.36269012616E+02  0.00000000000E+00 0.  1.
</event>
<event>
12    1  0.8133495E-002  0.3325132E+03  0.7818608E-02  0.1070142E+00
         21   -1    0    0  503  502  0.00000000000E+00  0.00000000000E+00  0.10243902936E+03  0.10243902936E+03  0.00000000000E+00 0. -1.
         21   -1    0    0  501  503 -0.00000000000E+00 -0.00000000000E+00 -0.11478583347E+04  0.11478583347E+04  0.00000000000E+00 0.  1.
          6    2    1    2  501    0 -0.31938909917E+02  0.28172788766E+03 -0.36707813161E+03  0.49528918274E+03  0.17370757951E+03 0.  0.
         24    2    3    3    0    0 -0.22839761697E+02  0.29871792465E+03 -0.32184030128E+03  0.44589275425E+03  0.74061565845E+02 0.  0.
         -6    2    1    2    0  502  0.31938909917E+02 -0.28172788766E+03 -0.67834117372E+03  0.75500818131E+03  0.17175537614E+03 0.  0.
        -24    2    5    5    0    0  0.10290053872E+02 -0.89747247582E+02 -0.38851970187E+03  0.40666379041E+03  0.79167076647E+02 0.  0.
          5    1    3    3  501    0 -0.90991482193E+01 -0.16990036991E+02 -0.45237830328E+02  0.49396428495E+02  0.47000000000E+01 0. -1.
        -11    1    4    4    0    0 -0.19559648091E+02  0.21648303063E+03 -0.27721621877E+03  0.35227306785E+03  0.00000000000E+00 0.  1.
         12    1    4    4    0    0 -0.32801136064E+01  0.82234894026E+02 -0.44624082512E+02  0.93619686396E+02  0.00000000000E+00 0. -1.
         -5    1    5    5    0  502  0.21648856045E+02 -0.19198064008E+03 -0.28982147184E+03  0.34834439090E+03  0.47000000000E+01 0.  1.
         11    1    6    6    0    0  0.35261176487E+02 -0.40643581567E+02 -0.10657758352E+03  0.11939025337E+03  0.00000000000E+00 0. -1.
        -12    1    6    6    0    0 -0.24971122616E+02 -0.49103666015E+02 -0.28194211835E+03  0.28727353704E+03  0.00000000000E+00 0.  1.
</event>
<event>
12    1  0.8133495E-002  0.1990445E+03  0.7818608E-02  0.1151923E+00
         21   -1    0    0  503  502  0.00000000000E+00  0.00000000000E+00  0.22635549444E+03  0.22635549444E+03  0.00000000000E+00 0. -1.
         21   -1    0    0  501  503 -0.00000000000E+00 -0.00000000000E+00 -0.21217367172E+03  0.21217367172E+03  0.00000000000E+00 0. -1.
          6    2    1    2  501    0  0.77798277181E+02 -0.15119531349E+02 -0.91354137506E+02  0.21323701080E+03  0.17562252753E+03 0.  0.
         24    2    3    3    0    0  0.11183783736E+02 -0.25664306252E+02  0.16454983832E+02  0.85983014168E+02  0.79615190752E+02 0.  0.
         -6    2    1    2    0  502 -0.77798277181E+02  0.15119531349E+02  0.10553596023E+03  0.22529215536E+03  0.18258571742E+03 0.  0.
        -24    2    5    5    0    0 -0.10472538474E+02  0.63377918844E+02  0.98281831140E+02  0.14200746622E+03  0.79877202453E+02 0.  0.
          5    1    3    3  501    0  0.66614493446E+02  0.10544774903E+02 -0.10780912134E+03  0.12725399663E+03  0.47000000000E+01 0. -1.
        -11    1    4    4    0    0 -0.33910753268E+02 -0.96586392822E+01 -0.36725587786E+00  0.35261358126E+02  0.00000000000E+00 0.  1.
         12    1    4    4    0    0  0.45094537004E+02 -0.16005666970E+02  0.16822239710E+02  0.50721656042E+02  0.00000000000E+00 0. -1.
         -5    1    5    5    0  502 -0.67325738707E+02 -0.48258387495E+02  0.72541290883E+01  0.83284689139E+02  0.47000000000E+01 0.  1.
         11    1    6    6    0    0 -0.99516243529E+01  0.60055930850E+02  0.11222085326E+03  0.12766859271E+03  0.00000000000E+00 0. -1.
        -12    1    6    6    0    0 -0.52091412156E+00  0.33219879942E+01 -0.13939022125E+02  0.14338873511E+02  0.00000000000E+00 0.  1.
</event>
<event>
12    1  0.8133495E-002  0.1774325E+03  0.7818608E-02  0.1171824E+00
         21   -1    0    0  503  502  0.00000000000E+00  0.00000000000E+00  0.75508007024E+03  0.75508007024E+03  0.00000000000E+00 0.  1.
         21   -1    0    0  501  503 -0.00000000000E+00 -0.00000000000E+00 -0.40349186015E+02  0.40349186015E+02  0.00000000000E+00 0.  1.
          6    2    1    2  501    0  0.19913429703E+02 -0.44059610980E+02  0.36634804510E+03  0.40446521720E+03  0.16444886066E+03 0.  0.
         24    2    3    3    0    0  0.66967415957E+02  0.11659569893E+01  0.25659242418E+03  0.27668487464E+03  0.78923085672E+02 0.  0.
         -6    2    1    2    0  502 -0.19913429703E+02  0.44059610980E+02  0.34838283913E+03  0.39096403906E+03  0.17071755399E+03 0.  0.
        -24    2    5    5    0    0  0.40386254282E+02  0.15355064016E+02  0.28176388068E+03  0.29651734230E+03  0.81638362925E+02 0.  0.
          5    1    3    3  501    0 -0.47053986254E+02 -0.45225567970E+02  0.10975562092E+03  0.12778034256E+03  0.47000000000E+01 0. -1.
        -11    1    4    4    0    0 -0.69364740086E+01  0.24743531831E+02  0.72320105544E+02  0.76749949219E+02  0.00000000000E+00 0.  1.
         12    1    4    4    0    0  0.73903889965E+02 -0.23577574842E+02  0.18427231863E+03  0.19993492542E+03  0.00000000000E+00 0. -1.
         -5    1    5    5    0  502 -0.60299683985E+02  0.28704546964E+02  0.66618958444E+02  0.94446696762E+02  0.47000000000E+01 0.  1.
         13    1    6    6    0    0  0.30323579215E+02  0.48533664396E+02  0.16065786428E+03  0.17054613860E+03  0.00000000000E+00 0. -1.
        -14    1    6    6    0    0  0.10062675066E+02 -0.33178600380E+02  0.12110601640E+03  0.12597120370E+03  0.00000000000E+00 0.  1.
</event>
<event>
12    1  0.8133495E-002  0.2815827E+03  0.7818608E-02  0.1094880E+00
         21   -1    0    0  503  502  0.00000000000E+00  0.00000000000E+00  0.26398057002E+03  0.26398057002E+03  0.00000000000E+00 0. -1.
         21   -1    0    0  501  503 -0.00000000000E+00 -0.00000000000E+00 -0.38868847122E+03  0.38868847122E+03  0.00000000000E+00 0. -1.
          6    2    1    2  501    0  0.89455424999E+01  0.22260761867E+03 -0.21831342114E+03  0.35629985878E+03  0.17220529870E+03 0.  0.
         24    2    3    3    0    0 -0.53078209891E+02  0.14560805952E+03 -0.96104488830E+02  0.19903259866E+03  0.79742706213E+02 0.  0.
         -6    2    1    2    0  502 -0.89455424999E+01 -0.22260761867E+03  0.93605519941E+02  0.29636918245E+03  0.17157658442E+03 0.  0.
        -24    2    5    5    0    0  0.58686593001E+02 -0.16013531998E+03  0.52714940690E+02  0.19551769100E+03  0.79755035073E+02 0.  0.
          5    1    3    3  501    0  0.62023752391E+02  0.76999559147E+02 -0.12220893231E+03  0.15726726012E+03  0.47000000000E+01 0. -1.
        -13    1    4    4    0    0 -0.48591884612E+02  0.51300827556E+02 -0.10212868504E+02  0.71395019723E+02  0.00000000000E+00 0.  1.
         14    1    4    4    0    0 -0.44863252789E+01  0.94307231965E+02 -0.85891620325E+02  0.12763757894E+03  0.00000000000E+00 0. -1.
         -5    1    5    5    0  502 -0.67632135501E+02 -0.62472298689E+02  0.40890579251E+02  0.10085149145E+03  0.47000000000E+01 0.  1.
         13    1    6    6    0    0  0.37526094463E+01 -0.23164276153E+02  0.41299134533E+02  0.47500360846E+02  0.00000000000E+00 0. -1.
        -14    1    6    6    0    0  0.54933983555E+02 -0.13697104383E+03  0.11415806157E+02  0.14801733016E+03  0.00000000000E+00 0.  1.
</event>
<event>
12    1  0.8133495E-002  0.1920508E+03  0.7818608E-02  0.1157206E+00
         21   -1    0    0  501  502  0.00000000000E+00  0.00000000000E+00  0.65168732279E+03  0.65168732279E+03  0.00000000000E+00 0.  1.
         21   -1    0    0  502  503 -0.00000000000E+00 -0.00000000000E+00 -0.94683038896E+02  0.94683038896E+02  0.00000000000E+00 0.  1.
         -6    2    1    2    0  503 -0.52806318725E+02 -0.59137176675E+02  0.38345579623E+02  0.19329680243E+03  0.17206846716E+03 0.  0.
        -24    2    3    3    0    0 -0.85884868724E+02  0.28523394620E+01  0.91173273749E+01  0.11705199074E+03  0.78953760904E+02 0.  0.
          6    2    1    2  501    0  0.52806318725E+02  0.59137176675E+02  0.51865870427E+03  0.55307355925E+03  0.17492226121E+03 0.  0.
         24    2    5    5    0    0  0.40067626056E+02  0.10227632383E+03  0.45623577106E+03  0.47598936568E+03  0.79680213191E+02 0.  0.
          5    1    5    5  501    0  0.12738692668E+02 -0.43139147151E+02  0.62422933206E+02  0.77084193567E+02  0.47000000000E+01 0. -1.
        -13    1    6    6    0    0 -0.23388853936E+02  0.36016405555E+02  0.11962425235E+03  0.12709910192E+03  0.00000000000E+00 0.  1.
         14    1    6    6    0    0  0.63456479992E+02  0.66259918271E+02  0.33661151871E+03  0.34889026377E+03  0.00000000000E+00 0. -1.
         -5    1    3    3    0  503  0.33078550000E+02 -0.61989516137E+02  0.29228252248E+02  0.76244811695E+02  0.47000000000E+01 0.  1.
         13    1    4    4    0    0 -0.20898446092E+02  0.36106160477E+02  0.13694437735E+02  0.43908285076E+02  0.00000000000E+00 0. -1.
        -14    1    4    4    0    0 -0.64986422632E+02 -0.33253821015E+02 -0.45771103601E+01  0.73143705661E+02  0.00000000000E+00 0.  1.
</event>
<event>
12    1  0.8133495E-002  0.1779215E+03  0.7818608E-02  0.1170020E+00
         21   -1    0    0  503  502  0.00000000000E+00  0.00000000000E+00  0.86280016180E+02  0.86280016180E+02  0.00000000000E+00 0. -1.
         21   -1    0    0  501  503 -0.00000000000E+00 -0.00000000000E+00 -0.90544040151E+03  0.90544040151E+03  0.00000000000E+00 0. -1.
          6    2    1    2  501    0 -0.12195844657E+01 -0.42166965576E+02 -0.79292189107E+03  0.81263841481E+03  0.17284827891E+03 0.  0.
         24    2    3    3    0    0  0.41028450761E+02  0.23235459838E+02 -0.21380701185E+03  0.22829390422E+03  0.64664116951E+02 0.  0.
         -6    2    1    2    0  502  0.12195844657E+01  0.42166965576E+02 -0.26238494262E+02  0.17908200288E+03  0.17205337777E+03 0.  0.
        -24    2    5    5    0    0 -0.23943435743E+02 -0.12414636302E+02 -0.65423924666E+02  0.10717986935E+03  0.80497348814E+02 0.  0.
          5    1    3    3  501    0 -0.42248035227E+02 -0.65402425413E+02 -0.57911487922E+03  0.58434451060E+03  0.47000000000E+01 0. -1.
        -13    1    4    4    0    0  0.20716202205E+01  0.29049398746E+02 -0.36656172553E+02  0.46817028569E+02  0.00000000000E+00 0.  1.
         14    1    4    4    0    0  0.38956830541E+02 -0.58139389085E+01 -0.17715083930E+03  0.18147687565E+03  0.00000000000E+00 0. -1.
         -5    1    5    5    0  502  0.25163020208E+02  0.54581601877E+02  0.39185430404E+02  0.71902133525E+02  0.47000000000E+01 0.  1.
         11    1    6    6    0    0 -0.11654364156E+02  0.24289092284E+02  0.44462306026E+01  0.27304819620E+02  0.00000000000E+00 0. -1.
        -12    1    6    6    0    0 -0.12289071587E+02 -0.36703728586E+02 -0.69870155268E+02  0.79875049733E+02  0.00000000000E+00 0.  1.
</event>
<event>
12    1  0.8133495E-002  0.1757162E+03  0.7818608E-02  0.1172098E+00
         21   -1    0    0  503  502  0.00000000000E+00  0.00000000000E+00  0.19205804955E+04  0.19205804955E+04  0.00000000000E+00 0. -1.
         21   -1    0    0  501  503 -0.00000000000E+00 -0.00000000000E+00 -0.18259027317E+03  0.18259027317E+03  0.00000000000E+00 0. -1.
          6    2    1    2  501    0  0.34383521012E+02 -0.12843296123E+02 -0.13539486633E+03  0.22156298253E+03  0.17149696389E+03 0.  0.
         24    2    3    3    0    0 -0.13961765157E+02  0.42770043689E+02 -0.11146956979E+03  0.14394455640E+03  0.79185622462E+02 0.  0.
         -6    2    1    2    0  502 -0.34383521012E+02  0.12843296123E+02  0.18733850887E+04  0.18816077862E+04  0.17184002341E+03 0.  0.
        -24    2    5    5    0    0 -0.56787990378E+02  0.64285480421E+02  0.14616928135E+04  0.14660829638E+04  0.74134180869E+02 0.  0.
          5    1    3    3  501    0  0.48345286169E+02 -0.55613339811E+02 -0.23925296543E+02  0.77618426127E+02  0.47000000000E+01 0. -1.
        -11    1    4    4    0    0 -0.16687950787E+02  0.28091123134E+02 -0.12286231667E+01  0.32697223357E+02  0.00000000000E+00 0.  1.
         12    1    4    4    0    0  0.27261856296E+01  0.14678920554E+02 -0.11024094663E+03  0.11124733304E+03  0.00000000000E+00 0. -1.
         -5    1    5    5    0  502  0.22404469366E+02 -0.51442184298E+02  0.41169227516E+03  0.41552482236E+03  0.47000000000E+01 0.  1.
         13    1    6    6    0    0 -0.44945802668E+02  0.23687507806E+02  0.35874686806E+03  0.36232656340E+03  0.00000000000E+00 0. -1.
        -14    1    6    6    0    0 -0.11842187710E+02  0.40597972615E+02  0.11029459455E+04  0.11037564004E+04  0.00000000000E+00 0.  1.
</event>
<event>
12    1  0.8133495E-002  0.1943315E+03  0.7818608E-02  0.1155123E+00
         21   -1    0    0  503  502  0.00000000000E+00  0.00000000000E+00  0.88468777458E+03  0.88468777458E+03  0.00000000000E+00 0.  1.
         21   -1    0    0  501  503 -0.00000000000E+00 -0.00000000000E+00 -0.84945655624E+02  0.84945655624E+02  0.00000000000E+00 0.  1.
          6    2    1    2  501    0 -0.20638830159E+02 -0.86043875570E+02  0.54681189166E+02  0.19964608813E+03  0.17040838660E+03 0.  0.
         24    2    3    3    0    0  0.41979556762E+02 -0.62839527545E+02 -0.46903969202E+01  0.11016659672E+03  0.80022433116E+02 0.  0.
         -6    2    1    2    0  502  0.20638830159E+02  0.86043875570E+02  0.74506092979E+03  0.76998734208E+03  0.17301794134E+03 0.  0.
        -24    2    5    5    0    0 -0.23419871829E+02 -0.10438482290E+02  0.25189499205E+03  0.26552252988E+03  0.79960456127E+02 0.  0.
          5    1    3    3  501    0 -0.62618386921E+02 -0.23204348024E+02  0.59371586086E+02  0.89479491405E+02  0.47000000000E+01 0. -1.
        -11    1    4    4    0    0 -0.83160082742E+01 -0.52009658768E+02 -0.20231432330E+02  0.56422260260E+02  0.00000000000E+00 0.  1.
         12    1    4    4    0    0  0.50295565036E+02 -0.10829868778E+02  0.15541035410E+02  0.53744336461E+02  0.00000000000E+00 0. -1.
         -5    1    5    5    0  502  0.44058701988E+02  0.96482357860E+02  0.49316593774E+03  0.50446481220E+03  0.47000000000E+01 0.  1.
         13    1    6    6    0    0 -0.43518871394E+02  0.15955927202E+02  0.18675094590E+03  0.19241725384E+03  0.00000000000E+00 0. -1.
        -14    1    6    6    0    0  0.20098999565E+02 -0.26394409492E+02  0.65144046144E+02  0.73105276033E+02  0.00000000000E+00 0.  1.
</event>
<event>
12    1  0.8133495E-002  0.1925597E+03  0.7818608E-02  0.1156185E+00
         21   -1    0    0  503  502  0.00000000000E+00  0.00000000000E+00  0.84997638121E+03  0.84997638121E+03  0.00000000000E+00 0.  1.
         21   -1    0    0  501  503 -0.00000000000E+00 -0.00000000000E+00 -0.82764962734E+02  0.82764962734E+02  0.00000000000E+00 0. -1.
          6    2    1    2  501    0 -0.16466073444E+02  0.85784284498E+02  0.70434774643E+03  0.73018005222E+03  0.17154324739E+03 0.  0.
         24    2    3    3    0    0  0.40119267481E+02  0.31522605594E+02  0.54335757634E+03  0.55105396404E+03  0.76287516830E+02 0.  0.
         -6    2    1    2    0  502  0.16466073444E+02 -0.85784284498E+02  0.62863672053E+02  0.20256129173E+03  0.17160757734E+03 0.  0.
        -24    2    5    5    0    0  0.42463546178E+02 -0.29981673230E+02 -0.22071268612E+02  0.97557319617E+02  0.79550211999E+02 0.  0.
          5    1    3    3  501    0 -0.56585340924E+02  0.54261678904E+02  0.16099017008E+03  0.17912608819E+03  0.47000000000E+01 0. -1.
        -13    1    4    4    0    0 -0.36759142361E+01  0.20285904136E+02  0.40440974845E+03  0.40493490204E+03  0.00000000000E+00 0.  1.
         14    1    4    4    0    0  0.43795181717E+02  0.11236701459E+02  0.13894782789E+03  0.14611906199E+03  0.00000000000E+00 0. -1.
         -5    1    5    5    0  502 -0.25997472734E+02 -0.55802611268E+02  0.84934940665E+02  0.10500397211E+03  0.47000000000E+01 0.  1.
         13    1    6    6    0    0 -0.15615461959E+02 -0.29516828199E+01 -0.29054736726E+02  0.33116956531E+02  0.00000000000E+00 0. -1.
        -14    1    6    6    0    0  0.58079008137E+02 -0.27029990410E+02  0.69834681135E+01  0.64440363086E+02  0.00000000000E+00 0.  1.
</event>
<event>
12    1  0.8133495E-002  0.1723923E+03  0.7818608E-02  0.1175682E+00
         21   -1    0    0  501  502  0.00000000000E+00  0.00000000000E+00  0.19774898754E+03  0.19774898754E+03  0.00000000000E+00 0.  1.
         21   -1    0    0  502  503 -0.00000000000E+00 -0.00000000000E+00 -0.15034860219E+03  0.15034860219E+03  0.00000000000E+00 0.  1.
         -6    2    1    2    0  503 -0.53914423862E+01  0.99759588200E+01  0.89116052972E+01  0.17262251211E+03  0.17201897446E+03 0.  0.
        -24    2    3    3    0    0  0.12418411520E+02  0.55425830065E+02  0.58039160164E+02  0.10320717995E+03  0.63694099388E+02 0.  0.
          6    2    1    2  501    0  0.53914423862E+01 -0.99759588200E+01  0.38488780059E+02  0.17547507762E+03  0.17082602047E+03 0.  0.
         24    2    5    5    0    0 -0.36609162504E+02  0.45612478735E+02  0.10958251213E+02  0.10041413425E+03  0.80883781386E+02 0.  0.
          5    1    5    5  501    0  0.42000604890E+02 -0.55588437555E+02  0.27530528846E+02  0.75060943369E+02  0.47000000000E+01 0. -1.
        -13    1    6    6    0    0  0.16198775076E+02  0.37138179669E+02 -0.11932637162E+02  0.42237809280E+02  0.00000000000E+00 0.  1.
         14    1    6    6    0    0 -0.52807937580E+02  0.84742990657E+01  0.22890888375E+02  0.58176324967E+02  0.00000000000E+00 0. -1.
         -5    1    3    3    0  503 -0.17809853906E+02 -0.45449871245E+02 -0.49127554867E+02  0.69415332165E+02  0.47000000000E+01 0.  1.
         11    1    4    4    0    0 -0.55119318452E+01  0.64146626653E+02  0.37161539591E+02  0.74338086661E+02  0.00000000000E+00 0. -1.
        -12    1    4    4    0    0  0.17930343365E+02 -0.87207965880E+01  0.20877620573E+02  0.28869093285E+02  0.00000000000E+00 0.  1.
</event>
<event>
12    1  0.8133495E-002  0.2118617E+03  0.7818608E-02  0.1140309E+00
         21   -1    0    0  501  502  0.00000000000E+00  0.00000000000E+00  0.99673770014E+03  0.99673770014E+03  0.00000000000E+00 0. -1.
         21   -1    0    0  502  503 -0.00000000000E+00 -0.00000000000E+00 -0.44811134454E+02  0.44811134454E+02  0.00000000000E+00 0.  1.
         -6    2    1    2    0  503 -0.12165102581E+03 -0.16766243158E+02  0.47193543188E+03  0.51730883022E+03  0.17264210080E+03 0.  0.
        -24    2    3    3    0    0  0.12986908789E+02  0.10257498741E+02  0.20076131203E+03  0.21331022934E+03  0.70158915706E+02 0.  0.
          6    2    1    2  501    0  0.12165102581E+03  0.16766243158E+02  0.47999113381E+03  0.52424000438E+03  0.17133597014E+03 0.  0.
         24    2    5    5    0    0  0.12976309471E+03  0.48596122899E+02  0.45562827568E+03  0.48307465776E+03  0.81018241541E+02 0.  0.
          5    1    5    5  501    0 -0.81120688985E+01 -0.31829879741E+02  0.24362858137E+02  0.41165346625E+02  0.47000000000E+01 0. -1.
        -13    1    6    6    0    0  0.58164194243E+02 -0.22415690802E+01  0.91013938485E+02  0.10803534201E+03  0.00000000000E+00 0.  1.
         14    1    6    6    0    0  0.71598900468E+02  0.50837691979E+02  0.36461433719E+03  0.37503931575E+03  0.00000000000E+00 0. -1.
         -5    1    3    3    0  503 -0.13463793460E+03 -0.27023741898E+02  0.27117411985E+03  0.30399860088E+03  0.47000000000E+01 0.  1.
         11    1    4    4    0    0 -0.14320949690E+02  0.14934930580E+02  0.17248985389E+03  0.17372648459E+03  0.00000000000E+00 0. -1.
        -12    1    4    4    0    0  0.27307858479E+02 -0.46774318396E+01  0.28271458131E+02  0.39583744747E+02  0.00000000000E+00 0.  1.
</event>
<event>
12    1  0.8133495E-002  0.1904131E+03  0.7818608E-02  0.1159416E+00
         21   -1    0    0  501  502  0.00000000000E+00  0.00000000000E+00  0.22653646427E+02  0.22653646427E+02  0.00000000000E+00 0. -1.
         21   -1    0    0  502  503 -0.00000000000E+00 -0.00000000000E+00 -0.16094848030E+04  0.16094848030E+04  0.00000000000E+00 0. -1.
         -6    2    1    2    0  503 -0.39185789964E+02 -0.74484888848E+02 -0.65117373363E+03  0.67844261059E+03  0.17080286792E+03 0.  0.
        -24    2    3    3    0    0 -0.45452647124E+02  0.17822359640E+02 -0.40210905889E+03  0.41270739684E+03  0.79070351786E+02 0.  0.
          6    2    1    2  501    0  0.39185789964E+02  0.74484888848E+02 -0.93565742289E+03  0.95369583879E+03  0.16430890149E+03 0.  0.
         24    2    5    5    0    0 -0.30422424503E+02  0.69251189599E+01 -0.49274450986E+03  0.50026054621E+03  0.80560417754E+02 0.  0.
          5    1    5    5  501    0  0.69608214467E+02  0.67559769888E+02 -0.44291291303E+03  0.45343529258E+03  0.47000000000E+01 0. -1.
        -13    1    6    6    0    0  0.69372960216E+01 -0.27756646997E+02 -0.28159855445E+03  0.28304823510E+03  0.00000000000E+00 0.  1.
         14    1    6    6    0    0 -0.37359720524E+02  0.34681765957E+02 -0.21114595542E+03  0.21721231111E+03  0.00000000000E+00 0. -1.
         -5    1    3    3    0  503  0.62668571594E+01 -0.92307248488E+02 -0.24906467475E+03  0.26573521375E+03  0.47000000000E+01 0.  1.
         11    1    4    4    0    0 -0.31091231141E+01 -0.27855589433E+02 -0.83841777496E+02  0.88402738435E+02  0.00000000000E+00 0. -1.
        -12    1    4    4    0    0 -0.42343524009E+02  0.45677949073E+02 -0.31826728139E+03  0.32430465840E+03  0.00000000000E+00 0.  1.
</event>
<event>
12    1  0.8133495E-002  0.1799878E+03  0.7818608E-02  0.1167827E+00
         21   -1    0    0  503  502  0.00000000000E+00  0.00000000000E+00  0.11377662172E+03  0.11377662172E+03  0.00000000000E+00 0. -1.
         21   -1    0    0  501  503 -0.00000000000E+00 -0.00000000000E+00 -0.31807518051E+03  0.31807518051E+03  0.00000000000E+00 0. -1.
          6    2    1    2  501    0 -0.53573598364E+02 -0.13906913984E+02 -0.17215922129E+03  0.24906707672E+03  0.17126610445E+03 0.  0.
         24    2    3    3    0    0  0.12772755141E+02  0.10275294531E+02 -0.15678442542E+03  0.17664406808E+03  0.79705995905E+02 0.  0.
         -6    2    1    2    0  502  0.53573598364E+02  0.13906913984E+02 -0.32139337505E+02  0.18278472551E+03  0.17121269278E+03 0.  0.
        -24    2    5    5    0    0  0.34433927025E+02  0.51596892775E+02 -0.71781303155E+02  0.12464320024E+03  0.80842050998E+02 0.  0.
          5    1    3    3  501    0 -0.66346353505E+02 -0.24182208514E+02 -0.15374795872E+02  0.72423008638E+02  0.47000000000E+01 0. -1.
        -11    1    4    4    0    0  0.13949162801E+02  0.21240206208E+02 -0.68684222114E+01  0.26323007547E+02  0.00000000000E+00 0.  1.
         12    1    4    4    0    0 -0.11764076601E+01 -0.10964911678E+02 -0.14991600320E+03  0.15032106053E+03  0.00000000000E+00 0. -1.
         -5    1    5    5    0  502  0.19139671339E+02 -0.37689978791E+02  0.39641965650E+02  0.58141525271E+02  0.47000000000E+01 0.  1.
         11    1    6    6    0    0  0.40608138092E+02  0.24582949398E-01 -0.63489099419E+01  0.41101461544E+02  0.00000000000E+00 0. -1.
        -12    1    6    6    0    0 -0.61742110672E+01  0.51572309826E+02 -0.65432393213E+02  0.83541738698E+02  0.00000000000E+00 0.  1.
</event>
<event>
12    1  0.8133495E-002  0.1844813E+03  0.7818608E-02  0.1168664E+00
         21   -1    0    0  501  502  0.00000000000E+00  0.00000000000E+00  0.62316328994E+03  0.62316328994E+03  0.00000000000E+00 0. -1.
         21   -1    0    0  502  503 -0.00000000000E+00 -0.00000000000E+00 -0.79488859591E+02  0.79488859591E+02  0.00000000000E+00 0. -1.
         -6    2    1    2    0  503 -0.61198150530E+02 -0.28343651721E+02  0.63238865949E+02  0.19501924599E+03  0.17171131564E+03 0.  0.
        -24    2    3    3    0    0  0.20317208651E+02 -0.55073067878E+02  0.32895080780E+02  0.10390365584E+03  0.79171027431E+02 0.  0.
          6    2    1    2  501    0  0.61198150530E+02  0.28343651721E+02  0.48043556440E+03  0.50763290354E+03  0.14941304158E+03 0.  0.
         24    2    5    5    0    0  0.39110455666E+02  0.68574616341E+02  0.26987683628E+03  0.29207904770E+03  0.79022513227E+02 0.  0.
          5    1    5    5  501    0  0.22087694864E+02 -0.40230964620E+02  0.21055872812E+03  0.21555385584E+03  0.47000000000E+01 0. -1.
        -13    1    6    6    0    0  0.14494751277E+02 -0.27466914454E+01  0.34171718219E+01  0.15143288670E+02  0.00000000000E+00 0.  1.
         14    1    6    6    0    0  0.24615704389E+02  0.71321307787E+02  0.26645966446E+03  0.27693575903E+03  0.00000000000E+00 0. -1.
         -5    1    3    3    0  503 -0.81515359181E+02  0.26729416156E+02  0.30343785169E+02  0.91115590153E+02  0.47000000000E+01 0.  1.
         11    1    4    4    0    0  0.25481348961E+02 -0.15723005125E+02 -0.21289634750E+02  0.36739087942E+02  0.00000000000E+00 0. -1.
        -12    1    4    4    0    0 -0.51641403098E+01 -0.39350062753E+02  0.54184715530E+02  0.67164567898E+02  0.00000000000E+00 0.  1.
</event>
<event>
12    1  0.8133495E-002  0.2352431E+03  0.7818608E-02  0.1123028E+00
         21   -1    0    0  501  502  0.00000000000E+00  0.00000000000E+00  0.18451422290E+04  0.18451422290E+04  0.00000000000E+00 0. -1.
         21   -1    0    0  502  503 -0.00000000000E+00 -0.00000000000E+00 -0.30000461765E+02  0.30000461765E+02  0.00000000000E+00 0.  1.
         -6    2    1    2    0  503  0.13193607052E+03 -0.91461346478E+02  0.93616792724E+03  0.96527182310E+03  0.17195057394E+03 0.  0.
        -24    2    3    3    0    0  0.71140746254E+01 -0.11986639660E+02  0.22842989896E+03  0.24221444892E+03  0.79330517075E+02 0.  0.
          6    2    1    2  501    0 -0.13193607052E+03  0.91461346478E+02  0.87897384000E+03  0.90987086767E+03  0.17174888594E+03 0.  0.
         24    2    5    5    0    0 -0.71736644951E+02  0.10682145997E+03  0.76544869017E+03  0.78037201219E+03  0.80695784235E+02 0.  0.
          5    1    5    5  501    0 -0.60199425569E+02 -0.15360113491E+02  0.11352514983E+03  0.12949885547E+03  0.47000000000E+01 0. -1.
        -13    1    6    6    0    0  0.67295729944E+00  0.26877846852E+02  0.49377963318E+02  0.56223258393E+02  0.00000000000E+00 0.  1.
         14    1    6    6    0    0 -0.72409602250E+02  0.79943613118E+02  0.71607072685E+03  0.72414875380E+03  0.00000000000E+00 0. -1.
         -5    1    3    3    0  503  0.12482199589E+03 -0.79474706818E+02  0.70773802828E+03  0.72305737418E+03  0.47000000000E+01 0.  1.
         11    1    4    4    0    0 -0.21720242411E+02 -0.13425412346E+02  0.20024851293E+03  0.20186995209E+03  0.00000000000E+00 0. -1.
        -12    1    4    4    0    0  0.28834317036E+02  0.14387726860E+01  0.28181386029E+02  0.40344496828E+02  0.00000000000E+00 0.  1.
</event>
<event>
12    1  0.8133495E-002  0.1781237E+03  0.7818608E-02  0.1170323E+00
         21   -1    0    0  503  502  0.00000000000E+00  0.00000000000E+00  0.83452934601E+02  0.83452934601E+02  0.00000000000E+00 0. -1.
         21   -1    0    0  501  503 -0.00000000000E+00 -0.00000000000E+00 -0.46504231738E+03  0.46504231738E+03  0.00000000000E+00 0. -1.
          6    2    1    2  501    0  0.24569127612E+01 -0.49579892075E+02 -0.31318531686E+03  0.36029585393E+03  0.17106682186E+03 0.  0.
         24    2    3    3    0    0 -0.44546059996E+01  0.86374836641E+00 -0.54856423239E+02  0.96955319198E+02  0.79815519633E+02 0.  0.
         -6    2    1    2    0  502 -0.24569127612E+01  0.49579892075E+02 -0.68404065917E+02  0.18819939805E+03  0.16815378400E+03 0.  0.
        -24    2    5    5    0    0  0.48622636335E+02  0.57747591819E+02 -0.76873785970E+02  0.13557185951E+03  0.82287331935E+02 0.  0.
          5    1    3    3  501    0  0.69115187608E+01 -0.50443640442E+02 -0.25832889363E+03  0.26334053473E+03  0.47000000000E+01 0. -1.
        -11    1    4    4    0    0 -0.24174836298E+01  0.17769280557E+02 -0.71157615026E+02  0.73382543802E+02  0.00000000000E+00 0.  1.
         12    1    4    4    0    0 -0.20371223698E+01 -0.16905532191E+02  0.16301191787E+02  0.23572775396E+02  0.00000000000E+00 0. -1.
         -5    1    5    5    0  502 -0.51079549096E+02 -0.81676997439E+01  0.84697200522E+01  0.52627538539E+02  0.47000000000E+01 0.  1.
         13    1    6    6    0    0 -0.13053559721E+02  0.30521010742E+02 -0.55816333587E+02  0.64941439877E+02  0.00000000000E+00 0. -1.
        -14    1    6    6    0    0  0.61676196055E+02  0.27226581077E+02 -0.21057452382E+02  0.70630419635E+02  0.00000000000E+00 0.  1.
</event>
<event>
12    1  0.8133495E-002  0.1750777E+03  0.7818608E-02  0.1172862E+00
         21   -1    0    0  501  502  0.00000000000E+00  0.00000000000E+00  0.53109355866E+02  0.53109355866E+02  0.00000000000E+00 0.  1.
         21   -1    0    0  502  503 -0.00000000000E+00 -0.00000000000E+00 -0.15652168026E+04  0.15652168026E+04  0.00000000000E+00 0.  1.
         -6    2    1    2    0  503 -0.27583195053E+02 -0.69255896443E+01 -0.14004915056E+04  0.14113924564E+04  0.17275246001E+03 0.  0.
        -24    2    3    3    0    0 -0.45578562507E+02  0.54052685472E+02 -0.10262619507E+04  0.10317715494E+04  0.79623116009E+02 0.  0.
          6    2    1    2  501    0  0.27583195053E+02  0.69255896443E+01 -0.11161594121E+03  0.20693370209E+03  0.17191463663E+03 0.  0.
         24    2    5    5    0    0 -0.51528773027E+01  0.54573876847E+01  0.81740738686E+01  0.82653600047E+02  0.81905231166E+02 0.  0.
          5    1    5    5  501    0  0.32736072356E+02  0.14682019596E+01 -0.11979001508E+03  0.12428010204E+03  0.47000000000E+01 0. -1.
        -13    1    6    6    0    0 -0.33799584701E+02 -0.22888335829E+02 -0.27080682448E+01  0.40909919049E+02  0.00000000000E+00 0.  1.
         14    1    6    6    0    0  0.28646707398E+02  0.28345723514E+02  0.10882142113E+02  0.41743680998E+02  0.00000000000E+00 0. -1.
         -5    1    3    3    0  503  0.17995367454E+02 -0.60978275117E+02 -0.37422955486E+03  0.37962090698E+03  0.47000000000E+01 0.  1.
         11    1    4    4    0    0  0.21500496395E+02  0.32244886072E+01 -0.25763354908E+03  0.25854924924E+03  0.00000000000E+00 0. -1.
        -12    1    4    4    0    0 -0.67079058902E+02  0.50828196865E+02 -0.76862840161E+03  0.77322230018E+03  0.00000000000E+00 0.  1.
</event>
<event>
12    1  0.8133495E-002  0.2167347E+03  0.7818608E-02  0.1139021E+00
         21   -1    0    0  501  502  0.00000000000E+00  0.00000000000E+00  0.10504333923E+03  0.10504333923E+03  0.00000000000E+00 0. -1.
         21   -1    0    0  502  503 -0.00000000000E+00 -0.00000000000E+00 -0.48295724250E+03  0.48295724250E+03  0.00000000000E+00 0. -1.
         -6    2    1    2    0  503 -0.86571074228E+02 -0.98666598961E+02 -0.30078635736E+03  0.37073760677E+03  0.17246533465E+03 0.  0.
        -24    2    3    3    0    0 -0.52741670244E+02 -0.51673399043E+02 -0.57764899422E+02  0.12086902445E+03  0.76293600758E+02 0.  0.
          6    2    1    2  501    0  0.86571074228E+02  0.98666598961E+02 -0.77127545905E+02  0.21726297496E+03  0.15499965583E+03 0.  0.
         24    2    5    5    0    0  0.98152832298E+02  0.80585523132E+02 -0.10361716387E+03  0.18284129163E+03  0.81033426745E+02 0.  0.
          5    1    5    5  501    0 -0.11581758070E+02  0.18081075829E+02  0.26489617965E+02  0.34421683327E+02  0.47000000000E+01 0. -1.
        -11    1    6    6    0    0 -0.70185434927E+01  0.12236842634E+02  0.68682468995E+01  0.15689903947E+02  0.00000000000E+00 0.  1.
         12    1    6    6    0    0  0.10517137579E+03  0.68348680498E+02 -0.11048541077E+03  0.16715138768E+03  0.00000000000E+00 0. -1.
         -5    1    3    3    0  503 -0.33829403983E+02 -0.46993199918E+02 -0.24302145794E+03  0.24986858232E+03  0.47000000000E+01 0.  1.
         13    1    4    4    0    0 -0.21072187369E+02  0.13118486429E+01  0.14662780490E+02  0.25705158219E+02  0.00000000000E+00 0. -1.
        -14    1    4    4    0    0 -0.31669482876E+02 -0.52985247686E+02 -0.72427679913E+02  0.95163866228E+02  0.00000000000E+00 0.  1.
</event>
<event>
12    1  0.8133495E-002  0.2384373E+03  0.7818608E-02  0.1120841E+00
         21   -1    0    0  503  502  0.00000000000E+00  0.00000000000E+00  0.19016429031E+03  0.19016429031E+03  0.00000000000E+00 0. -1.
         21   -1    0    0  501  503 -0.00000000000E+00 -0.00000000000E+00 -0.37044676420E+03  0.37044676420E+03  0.00000000000E+00 0.  1.
          6    2    1    2  501    0  0.12626446748E+03  0.10611843220E+03 -0.21328631923E+03  0.31990044650E+03  0.17216679211E+03 0.  0.
         24    2    3    3    0    0 -0.18503312150E+01  0.37724238918E+02 -0.53891442613E+02  0.10421552814E+03  0.80808704925E+02 0.  0.
         -6    2    1    2    0  502 -0.12626446748E+03 -0.10611843220E+03  0.33003845338E+02  0.24071060800E+03  0.17218741417E+03 0.  0.
        -24    2    5    5    0    0 -0.15765287362E+03 -0.10253351145E+03  0.39270399409E+02  0.20816151590E+03  0.80134280430E+02 0.  0.
          5    1    3    3  501    0  0.12811479869E+03  0.68394193279E+02 -0.15939487661E+03  0.21568491836E+03  0.47000000000E+01 0. -1.
        -11    1    4    4    0    0  0.11756481507E+01  0.14102862122E+02 -0.72578013520E+02  0.73944850498E+02  0.00000000000E+00 0.  1.
         12    1    4    4    0    0 -0.30259793657E+01  0.23621376796E+02  0.18686570907E+02  0.30270677645E+02  0.00000000000E+00 0. -1.
         -5    1    5    5    0  502  0.31388406142E+02 -0.35849207464E+01 -0.62665540707E+01  0.32549092104E+02  0.47000000000E+01 0.  1.
         11    1    6    6    0    0 -0.11476103922E+02 -0.20816827374E+02  0.32879783381E+02  0.40572421894E+02  0.00000000000E+00 0. -1.
        -12    1    6    6    0    0 -0.14617676970E+03 -0.81716684076E+02  0.63906160278E+01  0.16758909400E+03  0.00000000000E+00 0.  1.
</event>
<event>
12    1  0.8133495E-002  0.2114567E+03  0.7818608E-02  0.1142841E+00
         21   -1    0    0  503  502  0.00000000000E+00  0.00000000000E+00  0.36805097681E+03  0.36805097681E+03  0.00000000000E+00 0. -1.
         21   -1    0    0  501  503 -0.00000000000E+00 -0.00000000000E+00 -0.28189999265E+03  0.28189999265E+03  0.00000000000E+00 0. -1.
          6    2    1    2  501    0  0.98276254825E+02  0.27588906765E+02 -0.20664286560E+03  0.29566060371E+03  0.18518787392E+03 0.  0.
         24    2    3    3    0    0  0.17540008670E+02  0.65095949332E+02 -0.51155221513E+02  0.11642997813E+03  0.79962169775E+02 0.  0.
         -6    2    1    2    0  502 -0.98276254825E+02 -0.27588906765E+02  0.29279384976E+03  0.35429036575E+03  0.17138860745E+03 0.  0.
        -24    2    5    5    0    0 -0.48135378458E+02  0.50970278542E+02  0.15490386264E+03  0.18779294346E+03  0.79724519434E+02 0.  0.
          5    1    3    3  501    0  0.80736246154E+02 -0.37507042567E+02 -0.15548764409E+03  0.17923062559E+03  0.47000000000E+01 0. -1.
        -11    1    4    4    0    0  0.47755908391E+02  0.37331726443E+02 -0.43693770574E+02  0.74722353900E+02  0.00000000000E+00 0.  1.
         12    1    4    4    0    0 -0.30215899721E+02  0.27764222889E+02 -0.74614509394E+01  0.41707624227E+02  0.00000000000E+00 0. -1.
         -5    1    5    5    0  502 -0.50140876367E+02 -0.78559185307E+02  0.13788998712E+03  0.16649742228E+03  0.47000000000E+01 0.  1.
         11    1    6    6    0    0 -0.61822706880E+02  0.55281601501E+02  0.94605871960E+02  0.12581086424E+03  0.00000000000E+00 0. -1.
        -12    1    6    6    0    0  0.13687328423E+02 -0.43113229585E+01  0.60297990681E+02  0.61982079226E+02  0.00000000000E+00 0.  1.
</event>
<event>
12    1  0.8133495E-002  0.2083727E+03  0.7818608E-02  0.1144607E+00
         21   -1    0    0  503  502  0.00000000000E+00  0.00000000000E+00  0.26552225476E+03  0.26552225476E+03  0.00000000000E+00 0. -1.
         21   -1    0    0  501  503 -0.00000000000E+00 -0.00000000000E+00 -0.15968393853E+03  0.15968393853E+03  0.00000000000E+00 0. -1.
          6    2    1    2  501    0  0.10013537262E+03  0.19361337414E+02  0.23735629200E+02  0.20124182256E+03  0.17185149641E+03 0.  0.
         24    2    3    3    0    0 -0.12226467213E+02  0.13558331569E+02 -0.16394651228E+02  0.81695231921E+02  0.77923112581E+02 0.  0.
         -6    2    1    2    0  502 -0.10013537262E+03 -0.19361337414E+02  0.82102687032E+02  0.22396437072E+03  0.18170644980E+03 0.  0.
        -24    2    5    5    0    0 -0.86988102702E+02 -0.72562005364E+02  0.18998652063E+02  0.14025432948E+03  0.80486977346E+02 0.  0.
          5    1    3    3  501    0  0.11236183983E+03  0.58030058446E+01  0.40130280427E+02  0.11954659064E+03  0.47000000000E+01 0. -1.
        -11    1    4    4    0    0 -0.19628100958E+02  0.43632966013E+02 -0.16835240751E+02  0.50720049304E+02  0.00000000000E+00 0.  1.
         12    1    4    4    0    0  0.74016337447E+01 -0.30074634444E+02  0.44058952349E+00  0.30975182617E+02  0.00000000000E+00 0. -1.
         -5    1    5    5    0  502 -0.13147269915E+02  0.53200667950E+02  0.63104034969E+02  0.83710041249E+02  0.47000000000E+01 0.  1.
         13    1    6    6    0    0 -0.29273206357E+02  0.13073681848E+02 -0.89205192581E+01  0.33277882013E+02  0.00000000000E+00 0. -1.
        -14    1    6    6    0    0 -0.57714896346E+02 -0.85635687211E+02  0.27919171321E+02  0.10697644746E+03  0.00000000000E+00 0.  1.
</event>
<event>
12    1  0.8133495E-002  0.2671545E+03  0.7818608E-02  0.1103024E+00
         21   -1    0    0  501  502  0.00000000000E+00  0.00000000000E+00  0.17624084926E+03  0.17624084926E+03  0.00000000000E+00 0. -1.
         21   -1    0    0  502  503 -0.00000000000E+00 -0.00000000000E+00 -0.57839381271E+03  0.57839381271E+03  0.00000000000E+00 0.  1.
         -6    2    1    2    0  503  0.19730874624E+03 -0.51071269694E+02 -0.40852783205E+03  0.48812553926E+03  0.17272097900E+03 0.  0.
        -24    2    3    3    0    0  0.81335244802E+02 -0.34162511966E+01 -0.30242346120E+03  0.32380548164E+03  0.82237140241E+02 0.  0.
          6    2    1    2  501    0 -0.19730874624E+03  0.51071269694E+02  0.63748686016E+01  0.26650912270E+03  0.17160261537E+03 0.  0.
         24    2    5    5    0    0 -0.95314783356E+02 -0.22197846605E+02  0.53442746109E+02  0.13231297163E+03  0.71224595683E+02 0.  0.
          5    1    5    5  501    0 -0.10199396289E+03  0.73269116299E+02 -0.47067877507E+02  0.13419615107E+03  0.47000000000E+01 0. -1.
        -13    1    6    6    0    0 -0.17511932009E+02 -0.28622506509E+02  0.41450290623E+02  0.53329562480E+02  0.00000000000E+00 0.  1.
         14    1    6    6    0    0 -0.77802851347E+02  0.64246599043E+01  0.11992455486E+02  0.78983409151E+02  0.00000000000E+00 0. -1.
         -5    1    3    3    0  503  0.11597350144E+03 -0.47655018497E+02 -0.10610437085E+03  0.16432005763E+03  0.47000000000E+01 0.  1.
         11    1    4    4    0    0  0.51285361356E+01 -0.15575186338E+02 -0.16805634155E+03  0.16885444101E+03  0.00000000000E+00 0. -1.
        -12    1    4    4    0    0  0.76206708667E+02  0.12158935142E+02 -0.13436711965E+03  0.15495104063E+03  0.00000000000E+00 0.  1.
</event>
<event>
12    1  0.8133495E-002  0.3148819E+03  0.7818608E-02  0.1078398E+00
         21   -1    0    0  503  502  0.00000000000E+00  0.00000000000E+00  0.13341588630E+04  0.13341588630E+04  0.00000000000E+00 0. -1.
         21   -1    0    0  501  503 -0.00000000000E+00 -0.00000000000E+00 -0.13432602019E+03  0.13432602019E+03  0.00000000000E+00 0.  1.
          6    2    1    2  501    0 -0.12801475093E+03  0.22620884447E+03  0.10452731226E+03  0.32881613876E+03  0.17215073724E+03 0.  0.
         24    2    3    3    0    0 -0.17444409945E+02  0.86742347013E+02  0.83932990604E+02  0.14958745718E+03  0.86620541616E+02 0.  0.
         -6    2    1    2    0  502  0.12801475093E+03 -0.22620884447E+03  0.10953055305E+04  0.11396687444E+04  0.17774257788E+03 0.  0.
        -24    2    5    5    0    0  0.12514824572E+03 -0.22840416651E+03  0.82467303294E+03  0.86897135793E+03  0.84823716984E+02 0.  0.
          5    1    3    3  501    0 -0.11057034099E+03  0.13946649746E+03  0.20594321657E+02  0.17922868159E+03  0.47000000000E+01 0. -1.
        -13    1    4    4    0    0 -0.40779113940E+02  0.36294270858E+02  0.75347199986E+01  0.55108821764E+02  0.00000000000E+00 0.  1.
         14    1    4    4    0    0  0.23334703994E+02  0.50448076155E+02  0.76398270605E+02  0.94478635414E+02  0.00000000000E+00 0. -1.
         -5    1    5    5    0  502  0.28665052129E+01  0.21953220380E+01  0.27063249760E+03  0.27069738649E+03  0.47000000000E+01 0.  1.
         11    1    6    6    0    0  0.49482683254E+02 -0.11633650205E+03  0.52818128664E+03  0.54310053324E+03  0.00000000000E+00 0. -1.
        -12    1    6    6    0    0  0.75665562466E+02 -0.11206766446E+03  0.29649174630E+03  0.32587082469E+03  0.00000000000E+00 0.  1.
</event>
<event>
12    1  0.8133495E-002  0.1792157E+03  0.7818608E-02  0.1169751E+00
         21   -1    0    0  503  502  0.00000000000E+00  0.00000000000E+00  0.80366637678E+03  0.80366637678E+03  0.00000000000E+00 0.  1.
         21   -1    0    0  501  503 -0.00000000000E+00 -0.00000000000E+00 -0.40413698980E+02  0.40413698980E+02  0.00000000000E+00 0.  1.
          6    2    1    2  501    0 -0.11919518532E+02 -0.32074863881E+02  0.46828138230E+03  0.50140375176E+03  0.17591872400E+03 0.  0.
         24    2    3    3    0    0 -0.37908233610E+02 -0.35609021660E+02  0.12693306528E+03  0.15901703018E+03  0.80432432677E+02 0.  0.
         -6    2    1    2    0  502  0.11919518532E+02  0.32074863881E+02  0.29497129550E+03  0.34267632401E+03  0.17102083513E+03 0.  0.
        -24    2    5    5    0    0 -0.44887667040E+02  0.30902474906E+02  0.25939875851E+03  0.27547568251E+03  0.75028462153E+02 0.  0.
          5    1    3    3  501    0  0.25988715079E+02  0.35341577790E+01  0.34134831702E+03  0.34238672158E+03  0.47000000000E+01 0. -1.
        -11    1    4    4    0    0  0.73536370893E+01 -0.15676246775E+02  0.10231919218E+03  0.10377397448E+03  0.00000000000E+00 0.  1.
         12    1    4    4    0    0 -0.45261870700E+02 -0.19932774885E+02  0.24613873104E+02  0.55243055700E+02  0.00000000000E+00 0. -1.
         -5    1    5    5    0  502  0.56807185572E+02  0.11723889748E+01  0.35572536996E+02  0.67200641491E+02  0.47000000000E+01 0.  1.
         13    1    6    6    0    0 -0.19330416993E+02 -0.21683883000E+02  0.13405115456E+03  0.13716255992E+03  0.00000000000E+00 0. -1.
        -14    1    6    6    0    0 -0.25557250047E+02  0.52586357906E+02  0.12534760394E+03  0.13831312260E+03  0.00000000000E+00 0.  1.
</event>
<event>
12    1  0.8133495E-002  0.1828962E+03  0.7818608E-02  0.1166802E+00
         21   -1    0    0  501  502  0.00000000000E+00  0.00000000000E+00  0.87259192631E+03  0.87259192631E+03  0.00000000000E+00 0.  1.
         21   -1    0    0  502  503 -0.00000000000E+00 -0.00000000000E+00 -0.88508319981E+02  0.88508319981E+02  0.00000000000E+00 0.  1.
         -6    2    1    2    0  503  0.36221233878E+02  0.17592324143E+02  0.28157146836E+02  0.18505095885E+03  0.17840842133E+03 0.  0.
        -24    2    3    3    0    0  0.63693413193E+02  0.47558665934E+02  0.64503444450E+02  0.13031664030E+03  0.80641520347E+02 0.  0.
          6    2    1    2  501    0 -0.36221233878E+02 -0.17592324143E+02  0.75592645949E+03  0.77604928744E+03  0.17089826425E+03 0.  0.
         24    2    5    5    0    0  0.39244060013E+02 -0.26736165327E+02  0.52174779114E+03  0.52979665471E+03  0.78796059574E+02 0.  0.
          5    1    5    5  501    0 -0.75465293891E+02  0.91438411838E+01  0.23417866835E+03  0.24625263272E+03  0.47000000000E+01 0. -1.
        -11    1    6    6    0    0 -0.23026717157E+02 -0.17257520680E+02  0.18165943115E+03  0.18392444277E+03  0.00000000000E+00 0.  1.
         12    1    6    6    0    0  0.62270777170E+02 -0.94786446477E+01  0.34008835999E+03  0.34587221194E+03  0.00000000000E+00 0. -1.
         -5    1    3    3    0  503 -0.27472179315E+02 -0.29966341791E+02 -0.36346297614E+02  0.54734318548E+02  0.47000000000E+01 0.  1.
         13    1    4    4    0    0 -0.68585878146E+01  0.30975243035E+02  0.45364393557E+02  0.55357331138E+02  0.00000000000E+00 0. -1.
        -14    1    4    4    0    0  0.70552001007E+02  0.16583422899E+02  0.19139050893E+02  0.74959309163E+02  0.00000000000E+00 0.  1.
</event>
<event>
12    1  0.8133495E-002  0.3177939E+03  0.7818608E-02  0.1076703E+00
         21   -1    0    0  501  502  0.00000000000E+00  0.00000000000E+00  0.11788022521E+03  0.11788022521E+03  0.00000000000E+00 0. -1.
         21   -1    0    0  502  503 -0.00000000000E+00 -0.00000000000E+00 -0.95038489709E+03  0.95038489709E+03  0.00000000000E+00 0.  1.
         -6    2    1    2    0  503  0.25434274539E+03  0.80373277527E+02 -0.58478301440E+03  0.66555550686E+03  0.17275086949E+03 0.  0.
        -24    2    3    3    0    0  0.49821977502E+02  0.19110140570E+01 -0.12973771337E+03  0.16050760094E+03  0.80280347983E+02 0.  0.
          6    2    1    2  501    0 -0.25434274539E+03 -0.80373277527E+02 -0.24772165748E+03  0.40270961544E+03  0.17221764983E+03 0.  0.
         24    2    5    5    0    0 -0.16344801834E+03 -0.71015809508E+02 -0.24076284454E+03  0.31094944603E+03  0.83452446180E+02 0.  0.
          5    1    5    5  501    0 -0.90894727054E+02 -0.93574680187E+01 -0.69588129332E+01  0.91760169417E+02  0.47000000000E+01 0. -1.
        -11    1    6    6    0    0 -0.18343111844E+02 -0.45792162773E+02 -0.66128226263E+02  0.82500510496E+02  0.00000000000E+00 0.  1.
         12    1    6    6    0    0 -0.14510490649E+03 -0.25223646736E+02 -0.17463461828E+03  0.22844893553E+03  0.00000000000E+00 0. -1.
         -5    1    3    3    0  503  0.20452076789E+03  0.78462263470E+02 -0.45504530103E+03  0.50504790592E+03  0.47000000000E+01 0.  1.
         11    1    4    4    0    0  0.69548730852E+02 -0.98607900382E+01 -0.10830325416E+03  0.12908855877E+03  0.00000000000E+00 0. -1.
        -12    1    4    4    0    0 -0.19726753350E+02  0.11771804095E+02 -0.21434459209E+02  0.31419042171E+02  0.00000000000E+00 0.  1.
</event>
<event>
12    1  0.8133495E-002  0.1961698E+03  0.7818608E-02  0.1154942E+00
         21   -1    0    0  503  502  0.00000000000E+00  0.00000000000E+00  0.15714618257E+03  0.15714618257E+03  0.00000000000E+00 0. -1.
         21   -1    0    0  501  503 -0.00000000000E+00 -0.00000000000E+00 -0.23532654863E+03  0.23532654863E+03  0.00000000000E+00 0. -1.
          6    2    1    2  501    0 -0.75074460260E+02  0.11841043327E+02 -0.53954004165E+02  0.20345423808E+03  0.18084857626E+03 0.  0.
         24    2    3    3    0    0 -0.11242820339E+03  0.41748956204E+02 -0.56023128500E+02  0.15532777286E+03  0.81271457676E+02 0.  0.
         -6    2    1    2    0  502  0.75074460260E+02 -0.11841043327E+02 -0.24226361893E+02  0.18901849312E+03  0.17136128279E+03 0.  0.
        -24    2    5    5    0    0  0.10693460385E+03  0.10552373359E+02 -0.49269027233E+02  0.14248077779E+03  0.79542271229E+02 0.  0.
          5    1    3    3  501    0  0.37353743134E+02 -0.29907912877E+02  0.20691243355E+01  0.48126465217E+02  0.47000000000E+01 0. -1.
        -13    1    4    4    0    0 -0.66030321218E+02  0.59030683315E+02 -0.57838957516E+02  0.10578265406E+03  0.00000000000E+00 0.  1.
         14    1    4    4    0    0 -0.46397882176E+02 -0.17281727111E+02  0.18158290160E+01  0.49545118805E+02  0.00000000000E+00 0. -1.
         -5    1    5    5    0  502 -0.31860143589E+02 -0.22393416686E+02  0.25042665340E+02  0.46537715326E+02  0.47000000000E+01 0.  1.
         13    1    6    6    0    0  0.63372565975E+02 -0.30919272266E+02 -0.11460414944E+02  0.71438257442E+02  0.00000000000E+00 0. -1.
        -14    1    6    6    0    0  0.43562037874E+02  0.41471645625E+02 -0.37808612289E+02  0.71042520351E+02  0.00000000000E+00 0.  1.
</event>
<event>
12    1  0.8133495E-002  0.2338612E+03  0.7818608E-02  0.1124486E+00
         21   -1    0    0  503  502  0.00000000000E+00  0.00000000000E+00  0.28299575734E+03  0.28299575734E+03  0.00000000000E+00 0. -1.
         21   -1    0    0  501  503 -0.00000000000E+00 -0.00000000000E+00 -0.50859537801E+03  0.50859537801E+03  0.00000000000E+00 0. -1.
          6    2    1    2  501    0  0.15184420774E+03  0.30503212056E+02 -0.42542318811E+03  0.48398665349E+03  0.17108793764E+03 0.  0.
         24    2    3    3    0    0  0.15151138355E+03 -0.21891107521E+02 -0.28032846013E+03  0.32964986078E+03  0.81547932038E+02 0.  0.
         -6    2    1    2    0  502 -0.15184420774E+03 -0.30503212056E+02  0.19982356744E+03  0.30760448186E+03  0.17522542562E+03 0.  0.
        -24    2    5    5    0    0 -0.12862330181E+03  0.41422257941E+02  0.14625671453E+03  0.21484683291E+03  0.80674517964E+02 0.  0.
          5    1    3    3  501    0  0.33282418664E+00  0.52394319576E+02 -0.14509472799E+03  0.15433679271E+03  0.47000000000E+01 0. -1.
        -11    1    4    4    0    0  0.32077877429E+02  0.75070700027E+01 -0.13062858764E+02  0.35439873017E+02  0.00000000000E+00 0.  1.
         12    1    4    4    0    0  0.11943350612E+03 -0.29398177523E+02 -0.26726560136E+03  0.29420998776E+03  0.00000000000E+00 0. -1.
         -5    1    5    5    0  502 -0.23220905930E+02 -0.71925469996E+02  0.53566852919E+02  0.92757648946E+02  0.47000000000E+01 0.  1.
         13    1    6    6    0    0 -0.42411890521E+02 -0.21755850178E+02  0.64897389207E+02  0.80521777181E+02  0.00000000000E+00 0. -1.
        -14    1    6    6    0    0 -0.86211411286E+02  0.63178108118E+02  0.81359325319E+02  0.13432505573E+03  0.00000000000E+00 0.  1.
</event>
<event>
12    1  0.8133495E-002  0.1815213E+03  0.7818608E-02  0.1166643E+00
         21   -1    0    0  503  502  0.00000000000E+00  0.00000000000E+00  0.19209203658E+03  0.19209203658E+03  0.00000000000E+00 0.  1.
         21   -1    0    0  501  503 -0.00000000000E+00 -0.00000000000E+00 -0.34838774347E+03  0.34838774347E+03  0.00000000000E+00 0.  1.
          6    2    1    2  501    0  0.31881712328E+02  0.44275494037E+02 -0.27147266000E+03  0.32656911506E+03  0.17312775291E+03 0.  0.
         24    2    3    3    0    0  0.78181730555E+02  0.74963064272E+01 -0.22425841162E+03  0.25075568894E+03  0.80112438187E+02 0.  0.
         -6    2    1    2    0  502 -0.31881712328E+02 -0.44275494037E+02  0.11517695311E+03  0.21391066499E+03  0.17180011384E+03 0.  0.
        -24    2    5    5    0    0 -0.51957582914E+02  0.15844630210E+02  0.21083403001E+02  0.10036263070E+03  0.81716002291E+02 0.  0.
          5    1    3    3  501    0 -0.46300018226E+02  0.36779187610E+02 -0.47214248385E+02  0.75813426117E+02  0.47000000000E+01 0. -1.
        -11    1    4    4    0    0  0.52337057627E+02 -0.19523952292E+01 -0.43982859222E+02  0.68392041595E+02  0.00000000000E+00 0.  1.
         12    1    4    4    0    0  0.25844672928E+02  0.94487016564E+01 -0.18027555240E+03  0.18236364735E+03  0.00000000000E+00 0. -1.
         -5    1    5    5    0  502  0.20075870586E+02 -0.60120124247E+02  0.94093550105E+02  0.11354803429E+03  0.47000000000E+01 0.  1.
         13    1    6    6    0    0  0.10995561031E+02  0.30732726975E+02  0.13143877671E+02  0.35187560159E+02  0.00000000000E+00 0. -1.
        -14    1    6    6    0    0 -0.62953143945E+02 -0.14888096765E+02  0.79395253305E+01  0.65175070543E+02  0.00000000000E+00 0.  1.
</event>
<event>
12    1  0.8133495E-002  0.1735190E+03  0.7818608E-02  0.1174492E+00
         21   -1    0    0  503  502  0.00000000000E+00  0.00000000000E+00  0.68292666281E+03  0.68292666281E+03  0.00000000000E+00 0. -1.
         21   -1    0    0  501  503 -0.00000000000E+00 -0.00000000000E+00 -0.10996941959E+03  0.10996941959E+03  0.00000000000E+00 0. -1.
          6    2    1    2  501    0  0.54913472812E+01  0.49586287472E+01 -0.20646047257E+02  0.17474300218E+03  0.17336122591E+03 0.  0.
         24    2    3    3    0    0 -0.53150838911E+02  0.41049329472E+02  0.45302942653E+01  0.10127611948E+03  0.75672119596E+02 0.  0.
         -6    2    1    2    0  502 -0.54913472812E+01 -0.49586287472E+01  0.59360329047E+03  0.61815308023E+03  0.17231837175E+03 0.  0.
        -24    2    5    5    0    0  0.50232698063E+02 -0.38043985000E+02  0.40957239227E+03  0.42298835104E+03  0.84846519392E+02 0.  0.
          5    1    3    3  501    0  0.58642186192E+02 -0.36090700725E+02 -0.25176341522E+02  0.73466882693E+02  0.47000000000E+01 0. -1.
        -13    1    4    4    0    0 -0.43612350347E+02  0.16845634267E+02 -0.31835816763E+02  0.56562635420E+02  0.00000000000E+00 0.  1.
         14    1    4    4    0    0 -0.95384885640E+01  0.24203695204E+02  0.36366111029E+02  0.44713484062E+02  0.00000000000E+00 0. -1.
         -5    1    5    5    0  502 -0.55724045344E+02  0.33085356253E+02  0.18403089820E+03  0.19516472919E+03  0.47000000000E+01 0.  1.
         11    1    6    6    0    0 -0.16228849194E+02  0.87369957787E+01  0.14629435632E+03  0.14745083700E+03  0.00000000000E+00 0. -1.
        -12    1    6    6    0    0  0.66461547257E+02 -0.46780980779E+02  0.26327803595E+03  0.27553751404E+03  0.00000000000E+00 0.  1.
</event>
<event>
12    1  0.8133495E-002  0.2206831E+03  0.7818608E-02  0.1133622E+00
         21   -1    0    0  501  502  0.00000000000E+00  0.00000000000E+00  0.78475378834E+02  0.78475378834E+02  0.00000000000E+00 0.  1.
         21   -1    0    0  502  503 -0.00000000000E+00 -0.00000000000E+00 -0.71173513092E+03  0.71173513092E+03  0.00000000000E+00 0.  1.
         -6    2    1    2    0  503  0.10148428720E+03  0.87350667229E+02 -0.46005521143E+03  0.50967381355E+03  0.17374521300E+03 0.  0.
        -24    2    3    3    0    0  0.64892531870E+02  0.10478200893E+03 -0.20794572230E+03  0.25428373398E+03  0.78920744155E+02 0.  0.
          6    2    1    2  501    0 -0.10148428720E+03 -0.87350667229E+02 -0.17320454065E+03  0.28053669620E+03  0.17541899954E+03 0.  0.
         24    2    5    5    0    0 -0.13013633164E+03 -0.52090839740E+02 -0.13580083315E+03  0.22150007689E+03  0.10474491577E+03 0.  0.
          5    1    5    5  501    0  0.28652044444E+02 -0.35259827489E+02 -0.37403707504E+02  0.59036619317E+02  0.47000000000E+01 0. -1.
        -11    1    6    6    0    0  0.26303211287E+01 -0.36283291803E+02 -0.52830330578E+02  0.64143898247E+02  0.00000000000E+00 0.  1.
         12    1    6    6    0    0 -0.13276665277E+03 -0.15807547937E+02 -0.82970502570E+02  0.15735617864E+03  0.00000000000E+00 0. -1.
         -5    1    3    3    0  503  0.36591755326E+02 -0.17431341696E+02 -0.25210948913E+03  0.25539007957E+03  0.47000000000E+01 0.  1.
         13    1    4    4    0    0 -0.16719207480E+02  0.66273802104E+01 -0.34759376349E+02  0.39136534229E+02  0.00000000000E+00 0. -1.
        -14    1    4    4    0    0  0.81611739350E+02  0.98154628715E+02 -0.17318634595E+03  0.21514719975E+03  0.00000000000E+00 0.  1.
</event>
<event>
12    1  0.8133495E-002  0.1733954E+03  0.7818608E-02  0.1174382E+00
         21   -1    0    0  503  502  0.00000000000E+00  0.00000000000E+00  0.10373826231E+03  0.10373826231E+03  0.00000000000E+00 0.  1.
         21   -1    0    0  501  503 -0.00000000000E+00 -0.00000000000E+00 -0.46809400088E+03  0.46809400088E+03  0.00000000000E+00 0.  1.
          6    2    1    2  501    0  0.48178837824E+01 -0.15298652553E+02 -0.35868056016E+03  0.39834399399E+03  0.17253675706E+03 0.  0.
         24    2    3    3    0    0  0.16713352531E+02 -0.75397356652E+02 -0.21671955753E+03  0.24365600907E+03  0.80229586785E+02 0.  0.
         -6    2    1    2    0  502 -0.48178837824E+01  0.15298652553E+02 -0.56751784159E+01  0.17348826920E+03  0.17265199427E+03 0.  0.
        -24    2    5    5    0    0 -0.26053926465E+02 -0.53215403098E+01 -0.64066783851E+02  0.10785419689E+03  0.82588432114E+02 0.  0.
          5    1    3    3  501    0 -0.11895468749E+02  0.60098704099E+02 -0.14196100263E+03  0.15468798492E+03  0.47000000000E+01 0. -1.
        -11    1    4    4    0    0  0.16225178338E+02  0.12513035278E+02 -0.22297830810E+02  0.30282432577E+02  0.00000000000E+00 0.  1.
         12    1    4    4    0    0  0.48817419269E+00 -0.87910391930E+02 -0.19442172672E+03  0.21337357649E+03  0.00000000000E+00 0. -1.
         -5    1    5    5    0  502  0.21236042682E+02  0.20620192863E+02  0.58391605435E+02  0.65634072309E+02  0.47000000000E+01 0.  1.
         13    1    6    6    0    0 -0.33648983422E+01 -0.20425650431E+02  0.14116428767E+02  0.25056003223E+02  0.00000000000E+00 0. -1.
        -14    1    6    6    0    0 -0.22689028122E+02  0.15104110121E+02 -0.78183212619E+02  0.82798193670E+02  0.00000000000E+00 0.  1.
</event>
<event>
12    1  0.8133495E-002  0.1911287E+03  0.7818608E-02  0.1157846E+00
         21   -1    0    0  501  502  0.00000000000E+00  0.00000000000E+00  0.53099076195E+02  0.53099076195E+02  0.00000000000E+00 0. -1.
         21   -1    0    0  502  503 -0.00000000000E+00 -0.00000000000E+00 -0.20823691726E+04  0.20823691726E+04  0.00000000000E+00 0. -1.
         -6    2    1    2    0  503 -0.80532676035E+02 -0.14124276566E+02 -0.18888107199E+04  0.18982783932E+04  0.17079202353E+03 0.  0.
        -24    2    3    3    0    0  0.31147635298E+01 -0.34169052054E+02 -0.54542375854E+03  0.55213229965E+03  0.78649692095E+02 0.  0.
          6    2    1    2  501    0  0.80532676035E+02  0.14124276566E+02 -0.14045937653E+03  0.23718985564E+03  0.17275758758E+03 0.  0.
         24    2    5    5    0    0  0.28370075891E+02  0.67809772358E+02 -0.77340608761E+02  0.13916364406E+03  0.89341611979E+02 0.  0.
          5    1    5    5  501    0  0.52162600144E+02 -0.53685495792E+02 -0.63118767765E+02  0.98026211579E+02  0.47000000000E+01 0. -1.
        -13    1    6    6    0    0  0.85494025348E+01 -0.17411703726E+02 -0.39158151045E+02  0.43699204840E+02  0.00000000000E+00 0.  1.
         14    1    6    6    0    0  0.19820673357E+02  0.85221476084E+02 -0.38182457716E+02  0.95464439220E+02  0.00000000000E+00 0. -1.
         -5    1    3    3    0  503 -0.83647439565E+02  0.20044775488E+02 -0.13433869614E+04  0.13461460935E+04  0.47000000000E+01 0.  1.
         13    1    4    4    0    0  0.16658760504E+02  0.12653715300E+02 -0.35340788890E+03  0.35402650572E+03  0.00000000000E+00 0. -1.
        -14    1    4    4    0    0 -0.13543996974E+02 -0.46822767354E+02 -0.19201586963E+03  0.19810579392E+03  0.00000000000E+00 0.  1.
</event>
<event>
12    1  0.8133495E-002  0.2103481E+03  0.7818608E-02  0.1141552E+00
         21   -1    0    0  501  502  0.00000000000E+00  0.00000000000E+00  0.92233631559E+02  0.92233631559E+02  0.00000000000E+00 0.  1.
         21   -1    0    0  502  503 -0.00000000000E+00 -0.00000000000E+00 -0.65709185187E+03  0.65709185187E+03  0.00000000000E+00 0. -1.
         -6    2    1    2    0  503  0.76453960830E+02 -0.93516887639E+02 -0.47937316284E+03  0.52349302562E+03  0.17220831054E+03 0.  0.
        -24    2    3    3    0    0  0.48418872727E+02 -0.95827674876E+01 -0.10872520963E+03  0.14239868308E+03  0.77588640062E+02 0.  0.
          6    2    1    2  501    0 -0.76453960830E+02  0.93516887639E+02 -0.85485057467E+02  0.22583245781E+03  0.17059304660E+03 0.  0.
         24    2    5    5    0    0 -0.61872251042E+02  0.85978433881E+02 -0.12536040789E+03  0.18245518130E+03  0.79713203275E+02 0.  0.
          5    1    5    5  501    0 -0.14581709788E+02  0.75384537580E+01  0.39875350424E+02  0.43377276503E+02  0.47000000000E+01 0. -1.
        -13    1    6    6    0    0 -0.51193300299E+02  0.66121583624E+02 -0.37318657216E+02  0.91572375708E+02  0.00000000000E+00 0.  1.
         14    1    6    6    0    0 -0.10678950743E+02  0.19856850257E+02 -0.88041750675E+02  0.90882805596E+02  0.00000000000E+00 0. -1.
         -5    1    3    3    0  503  0.28035088103E+02 -0.83934120151E+02 -0.37064795322E+03  0.38109434254E+03  0.47000000000E+01 0.  1.
         11    1    4    4    0    0 -0.17033055818E+02 -0.32630409837E+01 -0.54421480144E+02  0.57118035050E+02  0.00000000000E+00 0. -1.
        -12    1    4    4    0    0  0.65451928544E+02 -0.63197265039E+01 -0.54303729484E+02  0.85280648034E+02  0.00000000000E+00 0.  1.
</event>
<event>
12    1  0.8133495E-002  0.1866359E+03  0.7818608E-02  0.1161531E+00
         21   -1    0    0  503  502  0.00000000000E+00  0.00000000000E+00  0.34685284745E+03  0.34685284745E+03  0.00000000000E+00 0. -1.
         21   -1    0    0  501  503 -0.00000000000E+00 -0.00000000000E+00 -0.10070549984E+03  0.10070549984E+03  0.00000000000E+00 0. -1.
          6    2    1    2  501    0  0.73484003378E+02 -0.10316218225E+02  0.11126684637E+03  0.21728524691E+03  0.17124907099E+03 0.  0.
         24    2    3    3    0    0  0.21382922081E+02  0.27471210849E+02  0.12362172830E+03  0.15158025794E+03  0.80513018244E+02 0.  0.
         -6    2    1    2    0  502 -0.73484003378E+02  0.10316218225E+02  0.13488050124E+03  0.23027310038E+03  0.17125019133E+03 0.  0.
        -24    2    5    5    0    0 -0.29573353158E+02 -0.55209619257E+02  0.44259233363E+02  0.11003964092E+03  0.78912340996E+02 0.  0.
          5    1    3    3  501    0  0.52101081297E+02 -0.37787429074E+02 -0.12354881930E+02  0.65704988972E+02  0.47000000000E+01 0. -1.
        -13    1    4    4    0    0 -0.12237963434E+02  0.30557465203E+02  0.12117178442E+02  0.35076380116E+02  0.00000000000E+00 0.  1.
         14    1    4    4    0    0  0.33620885515E+02 -0.30862543539E+01  0.11150454986E+03  0.11650387782E+03  0.00000000000E+00 0. -1.
         -5    1    5    5    0  502 -0.43910650220E+02  0.65525837482E+02  0.90621267874E+02  0.12023345945E+03  0.47000000000E+01 0.  1.
         11    1    6    6    0    0 -0.30149762974E+02 -0.12772784717E+02  0.56993305815E+02  0.65729667157E+02  0.00000000000E+00 0. -1.
        -12    1    6    6    0    0  0.57640981603E+00 -0.42436834540E+02 -0.12734072452E+02  0.44309973768E+02  0.00000000000E+00 0.  1.
</event>
<event>
12    1  0.8133495E-002  0.2709670E+03  0.7818608E-02  0.1100824E+00
         21   -1    0    0  503  502  0.00000000000E+00  0.00000000000E+00  0.18686833493E+04  0.18686833493E+04  0.00000000000E+00 0.  1.
         21   -1    0    0  501  503 -0.00000000000E+00 -0.00000000000E+00 -0.54341307928E+02  0.54341307928E+02  0.00000000000E+00 0.  1.
          6    2    1    2  501    0 -0.34827672520E+02  0.20519514210E+03  0.39869483362E+03  0.48167801438E+03  0.17244745887E+03 0.  0.
         24    2    3    3    0    0  0.30572724645E+02  0.17290094225E+03  0.32457359471E+03  0.37758106269E+03  0.79937558138E+02 0.  0.
         -6    2    1    2    0  502  0.34827672520E+02 -0.20519514210E+03  0.14156472077E+04  0.14413466428E+04  0.17350825601E+03 0.  0.
        -24    2    5    5    0    0 -0.47093412011E+02 -0.10285480784E+03  0.72285835577E+03  0.73624871238E+03  0.82103976936E+02 0.  0.
          5    1    3    3  501    0 -0.65400397165E+02  0.32294199853E+02  0.74121238913E+02  0.10409695169E+03  0.47000000000E+01 0. -1.
        -11    1    4    4    0    0 -0.18838389112E+02  0.11076219154E+03  0.21039812740E+03  0.23851733688E+03  0.00000000000E+00 0.  1.
         12    1    4    4    0    0  0.49411113756E+02  0.62138750707E+02  0.11417546731E+03  0.13906372581E+03  0.00000000000E+00 0. -1.
         -5    1    5    5    0  502  0.81921084531E+02 -0.10234033427E+03  0.69278885195E+03  0.70509793043E+03  0.47000000000E+01 0.  1.
         13    1    6    6    0    0 -0.41650318453E+02 -0.35923704803E+02  0.15571474734E+03  0.16514340475E+03  0.00000000000E+00 0. -1.
        -14    1    6    6    0    0 -0.54430935578E+01 -0.66931103032E+02  0.56714360843E+03  0.57110530763E+03  0.00000000000E+00 0.  1.
</event>
<event>
12    1  0.8133495E-002  0.2839311E+03  0.7818608E-02  0.1093562E+00
         21   -1    0    0  503  502  0.00000000000E+00  0.00000000000E+00  0.35035540494E+03  0.35035540494E+03  0.00000000000E+00 0. -1.
         21   -1    0    0  501  503 -0.00000000000E+00 -0.00000000000E+00 -0.39990128799E+03  0.39990128799E+03  0.00000000000E+00 0.  1.
          6    2    1    2  501    0  0.19743219519E+03 -0.10996433933E+03 -0.26921942347E+03  0.39127481363E+03  0.17188732992E+03 0.  0.
         24    2    3    3    0    0  0.90384150491E+02 -0.81879002564E+02 -0.23281222671E+03  0.27467445346E+03  0.79818899763E+02 0.  0.
         -6    2    1    2    0  502 -0.19743219519E+03  0.10996433933E+03  0.21967354041E+03  0.35898187930E+03  0.17187174780E+03 0.  0.
        -24    2    5    5    0    0 -0.10004344862E+03  0.34918115823E+02  0.19023958401E+03  0.23247120224E+03  0.81386695009E+02 0.  0.
          5    1    3    3  501    0  0.10704804470E+03 -0.28085336764E+02 -0.36407196760E+02  0.11660036016E+03  0.47000000000E+01 0. -1.
        -11    1    4    4    0    0  0.74642147475E+02 -0.27973051202E+02 -0.84877663067E+02  0.11643950988E+03  0.00000000000E+00 0.  1.
         12    1    4    4    0    0  0.15742003016E+02 -0.53905951362E+02 -0.14793456364E+03  0.15823494358E+03  0.00000000000E+00 0. -1.
         -5    1    5    5    0  502 -0.97388746570E+02  0.75046223504E+02  0.29433956401E+02  0.12651067706E+03  0.47000000000E+01 0.  1.
         13    1    6    6    0    0 -0.75362530729E+02 -0.11262030564E+02  0.80304139333E+02  0.11070275139E+03  0.00000000000E+00 0. -1.
        -14    1    6    6    0    0 -0.24680917889E+02  0.46180146387E+02  0.10993544468E+03  0.12176845086E+03  0.00000000000E+00 0.  1.
</event>
<event>
12    1  0.8133495E-002  0.2017289E+03  0.7818608E-02  0.1148305E+00
         21   -1    0    0  501  502  0.00000000000E+00  0.00000000000E+00  0.61628625643E+03  0.61628625643E+03  0.00000000000E+00 0.  1.
         21   -1    0    0  502  503 -0.00000000000E+00 -0.00000000000E+00 -0.16014243681E+03  0.16014243681E+03  0.00000000000E+00 0.  1.
         -6    2    1    2    0  503 -0.88312571449E+02 -0.57228391639E+02 -0.69590137938E+02  0.21332058024E+03  0.17201361449E+03 0.  0.
        -24    2    3    3    0    0 -0.98817068465E+02  0.13603492357E+02 -0.36782762093E+02  0.13441611802E+03  0.82248727488E+02 0.  0.
          6    2    1    2  501    0  0.88312571449E+02  0.57228391639E+02  0.52573395755E+03  0.56310811300E+03  0.17210564697E+03 0.  0.
         24    2    5    5    0    0  0.12788630603E+03  0.42068103290E+02  0.45160148105E+03  0.47758835573E+03  0.77602237469E+02 0.  0.
          5    1    5    5  501    0 -0.39573734579E+02  0.15160288350E+02  0.74132476508E+02  0.85519757276E+02  0.47000000000E+01 0. -1.
        -11    1    6    6    0    0  0.62704669801E+02  0.59955936053E+02  0.22602879081E+03  0.24210659669E+03  0.00000000000E+00 0.  1.
         12    1    6    6    0    0  0.65181636226E+02 -0.17887832764E+02  0.22557269023E+03  0.23548175904E+03  0.00000000000E+00 0. -1.
         -5    1    3    3    0  503  0.10504497016E+02 -0.70831883996E+02 -0.32807375845E+02  0.78904462217E+02  0.47000000000E+01 0.  1.
         11    1    4    4    0    0 -0.62861433775E+02 -0.57907475896E+01  0.18402272079E+02  0.65755123235E+02  0.00000000000E+00 0. -1.
        -12    1    4    4    0    0 -0.35955634689E+02  0.19394239947E+02 -0.55185034171E+02  0.68660994790E+02  0.00000000000E+00 0.  1.
</event>
<event>
12    1  0.8133495E-002  0.1968073E+03  0.7818608E-02  0.1154459E+00
         21   -1    0    0  501  502  0.00000000000E+00  0.00000000000E+00  0.52361125468E+02  0.52361125468E+02  0.00000000000E+00 0.  1.
         21   -1    0    0  502  503 -0.00000000000E+00 -0.00000000000E+00 -0.82929543116E+03  0.82929543116E+03  0.00000000000E+00 0.  1.
         -6    2    1    2    0  503 -0.42278272383E+02  0.62121871352E+02 -0.55053635615E+03  0.58167466135E+03  0.17207136019E+03 0.  0.
        -24    2    3    3    0    0 -0.60105742834E+02  0.16931753336E+01 -0.46367835480E+03  0.47426959441E+03  0.79488768459E+02 0.  0.
          6    2    1    2  501    0  0.42278272383E+02 -0.62121871352E+02 -0.22639794955E+03  0.29998189528E+03  0.18189702230E+03 0.  0.
         24    2    5    5    0    0  0.48179660722E+02 -0.14017056531E+02 -0.23277673610E+03  0.25087305177E+03  0.78958987144E+02 0.  0.
          5    1    5    5  501    0 -0.59013883395E+01 -0.48104814821E+02  0.63787865571E+01  0.49108843514E+02  0.47000000000E+01 0. -1.
        -11    1    6    6    0    0 -0.17636855974E+02 -0.64833077542E+01 -0.10778832723E+03  0.10941396371E+03  0.00000000000E+00 0.  1.
         12    1    6    6    0    0  0.65816516696E+02 -0.75337487769E+01 -0.12498840887E+03  0.14145908805E+03  0.00000000000E+00 0. -1.
         -5    1    3    3    0  503  0.17827470452E+02  0.60428696019E+02 -0.86858001348E+02  0.10740506694E+03  0.47000000000E+01 0.  1.
         11    1    4    4    0    0 -0.15993958280E+02 -0.30528199414E+02 -0.85797639381E+02  0.92460870557E+02  0.00000000000E+00 0. -1.
        -12    1    4    4    0    0 -0.44111784554E+02  0.32221374747E+02 -0.37788071542E+03  0.38180872385E+03  0.00000000000E+00 0.  1.
</event>
<event>
12    1  0.8133495E-002  0.1967136E+03  0.7818608E-02  0.1152658E+00
         21   -1    0    0  503  502  0.00000000000E+00  0.00000000000E+00  0.77332865960E+03  0.77332865960E+03  0.00000000000E+00 0. -1.
         21   -1    0    0  501  503 -0.00000000000E+00 -0.00000000000E+00 -0.65549027997E+02  0.65549027997E+02  0.00000000000E+00 0. -1.
          6    2    1    2  501    0  0.75181787722E+01  0.95197872474E+02  0.14932984813E+03  0.24697292554E+03  0.17197983740E+03 0.  0.
         24    2    3    3    0    0 -0.61833444441E+02  0.68828644046E+02  0.96989069997E+02  0.15605191089E+03  0.79903454867E+02 0.  0.
         -6    2    1    2    0  502 -0.75181787722E+01 -0.95197872474E+02  0.55844978347E+03  0.59190476206E+03  0.17136489941E+03 0.  0.
        -24    2    5    5    0    0  0.39361584416E+02 -0.99115182305E+02  0.29299620153E+03  0.32227399290E+03  0.81489868658E+02 0.  0.
          5    1    3    3  501    0  0.69351623213E+02  0.26369228428E+02  0.52340778133E+02  0.90921014655E+02  0.47000000000E+01 0. -1.
        -11    1    4    4    0    0  0.15823267367E+02  0.31289612619E+02  0.19600984223E+02  0.40169817408E+02  0.00000000000E+00 0.  1.
         12    1    4    4    0    0 -0.77656711808E+02  0.37539031426E+02  0.77388085774E+02  0.11588209348E+03  0.00000000000E+00 0. -1.
         -5    1    5    5    0  502 -0.46879763188E+02  0.39173098310E+01  0.26545358194E+03  0.26963076916E+03  0.47000000000E+01 0.  1.
         13    1    6    6    0    0 -0.54481211666E+00 -0.55735295059E+02  0.22719834934E+03  0.23393548230E+03  0.00000000000E+00 0. -1.
        -14    1    6    6    0    0  0.39906396532E+02 -0.43379887246E+02  0.65797852197E+02  0.88338510602E+02  0.00000000000E+00 0.  1.
</event>
<event>
12    1  0.8133495E-002  0.2064570E+03  0.7818608E-02  0.1144564E+00
         21   -1    0    0  503  502  0.00000000000E+00  0.00000000000E+00  0.22615932434E+03  0.22615932434E+03  0.00000000000E+00 0.  1.
         21   -1    0    0  501  503 -0.00000000000E+00 -0.00000000000E+00 -0.25566600988E+03  0.25566600988E+03  0.00000000000E+00 0. -1.
          6    2    1    2  501    0  0.10980584819E+03  0.30403784740E+02 -0.13890171532E+03  0.24817656891E+03  0.17121976643E+03 0.  0.
         24    2    3    3    0    0  0.95508243477E+02 -0.38626855543E+02 -0.10864936860E+03  0.17131991481E+03  0.83258449252E+02 0.  0.
         -6    2    1    2    0  502 -0.10980584819E+03 -0.30403784740E+02  0.10939502978E+03  0.23364876530E+03  0.17217072505E+03 0.  0.
        -24    2    5    5    0    0 -0.61967820496E+01  0.11066919403E+02  0.74425976303E+02  0.11660354930E+03  0.88861042914E+02 0.  0.
          5    1    3    3  501    0  0.14297604713E+02  0.69030640283E+02 -0.30252346716E+02  0.76856654105E+02  0.47000000000E+01 0. -1.
        -13    1    4    4    0    0  0.28091568807E+02  0.20584974597E+02 -0.66226388686E+01  0.35450483252E+02  0.00000000000E+00 0.  1.
         14    1    4    4    0    0  0.67416674671E+02 -0.59211830140E+02 -0.10202672973E+03  0.13586943156E+03  0.00000000000E+00 0. -1.
         -5    1    5    5    0  502 -0.10360906614E+03 -0.41470704143E+02  0.34969053473E+02  0.11704521600E+03  0.47000000000E+01 0.  1.
         11    1    6    6    0    0 -0.11920042226E+02  0.12495138635E+02 -0.17443025318E+02  0.24545366740E+02  0.00000000000E+00 0. -1.
        -12    1    6    6    0    0  0.57232601764E+01 -0.14282192326E+01  0.91869001621E+02  0.92058182559E+02  0.00000000000E+00 0.  1.
</event>
<event>
12    1  0.8133495E-002  0.2148764E+03  0.7818608E-02  0.1137846E+00
         21   -1    0    0  503  502  0.00000000000E+00  0.00000000000E+00  0.12202116954E+04  0.12202116954E+04  0.00000000000E+00 0.  1.
         21   -1    0    0  501  503 -0.00000000000E+00 -0.00000000000E+00 -0.12459219404E+03  0.12459219404E+03  0.00000000000E+00 0.  1.
          6    2    1    2  501    0 -0.12794378029E+03  0.64108533821E+01 -0.13351034295E+02  0.21529074740E+03  0.17251419026E+03 0.  0.
         24    2    3    3    0    0 -0.10298358919E+03 -0.25965701367E+02  0.48580590180E+02  0.14093438555E+03  0.78883394949E+02 0.  0.
         -6    2    1    2    0  502  0.12794378029E+03 -0.64108533821E+01  0.11089705357E+04  0.11295131421E+04  0.17196970416E+03 0.  0.
        -24    2    5    5    0    0  0.12625039762E+02 -0.35501622299E+01  0.26194404170E+03  0.27465492753E+03  0.81539272447E+02 0.  0.
          5    1    3    3  501    0 -0.24960191105E+02  0.32376554749E+02 -0.61931624475E+02  0.74356361850E+02  0.47000000000E+01 0. -1.
        -13    1    4    4    0    0 -0.54992628695E+02  0.73166353626E+01 -0.12028289323E+02  0.56766205685E+02  0.00000000000E+00 0.  1.
         14    1    4    4    0    0 -0.47990960494E+02 -0.33282336729E+02  0.60608879503E+02  0.84168179866E+02  0.00000000000E+00 0. -1.
         -5    1    5    5    0  502  0.11531874053E+03 -0.28606911522E+01  0.84702649397E+03  0.85485821453E+03  0.47000000000E+01 0.  1.
         11    1    6    6    0    0 -0.16138005589E+02 -0.28487579268E+02  0.19426001614E+03  0.19699982556E+03  0.00000000000E+00 0. -1.
        -12    1    6    6    0    0  0.28763045351E+02  0.24937417038E+02  0.67684025556E+02  0.77655101969E+02  0.00000000000E+00 0.  1.
</event>
<event>
12    1  0.8133495E-002  0.1940633E+03  0.7818608E-02  0.1155416E+00
         21   -1    0    0  501  502  0.00000000000E+00  0.00000000000E+00  0.76544079194E+03  0.76544079194E+03  0.00000000000E+00 0.  1.
         21   -1    0    0  502  503 -0.00000000000E+00 -0.00000000000E+00 -0.14616239874E+03  0.14616239874E+03  0.00000000000E+00 0.  1.
         -6    2    1    2    0  503 -0.50992071602E+02  0.70016454498E+02 -0.62157401793E+02  0.20377467099E+03  0.17366081502E+03 0.  0.
        -24    2    3    3    0    0 -0.56004164295E+02  0.10052519315E+03 -0.11222046500E+02  0.14400507482E+03  0.85847226927E+02 0.  0.
          6    2    1    2  501    0  0.50992071602E+02 -0.70016454498E+02  0.68143579499E+03  0.70782851968E+03  0.17077463312E+03 0.  0.
         24    2    5    5    0    0  0.86456196382E+02 -0.60689749914E+02  0.34907479951E+03  0.37341767524E+03  0.80184941798E+02 0.  0.
          5    1    5    5  501    0 -0.35464124781E+02 -0.93267045836E+01  0.33236099549E+03  0.33441084445E+03  0.47000000000E+01 0. -1.
        -11    1    6    6    0    0  0.39818872836E+02 -0.70010882668E+02  0.16967628866E+03  0.18782201484E+03  0.00000000000E+00 0.  1.
         12    1    6    6    0    0  0.46637323547E+02  0.93211327537E+01  0.17939851085E+03  0.18559566040E+03  0.00000000000E+00 0. -1.
         -5    1    3    3    0  503  0.50120926933E+01 -0.30508738651E+02 -0.50935355293E+02  0.59769596168E+02  0.47000000000E+01 0.  1.
         11    1    4    4    0    0  0.18555022649E+02  0.48527976981E+02  0.28016427558E+01  0.52029824308E+02  0.00000000000E+00 0. -1.
        -12    1    4    4    0    0 -0.74559186944E+02  0.51997216168E+02 -0.14023689256E+02  0.91975250515E+02  0.00000000000E+00 0.  1.
</event>
<event>
12    1  0.8133495E-002  0.1951780E+03  0.7818608E-02  0.1153878E+00
         21   -1    0    0  501  502  0.00000000000E+00  0.00000000000E+00  0.37880705045E+03  0.37880705045E+03  0.00000000000E+00 0. -1.
         21   -1    0    0  502  503 -0.00000000000E+00 -0.00000000000E+00 -0.10072291456E+03  0.10072291456E+03  0.00000000000E+00 0. -1.
         -6    2    1    2    0  503  0.10983502172E+02 -0.92527341429E+02  0.14894126265E+03  0.24549509815E+03  0.17147127242E+03 0.  0.
        -24    2    3    3    0    0  0.56558147584E+02 -0.37659604207E+02  0.26581942249E+02  0.10378620576E+03  0.73809938396E+02 0.  0.
          6    2    1    2  501    0 -0.10983502172E+02  0.92527341429E+02  0.12914287324E+03  0.23403486686E+03  0.17150070252E+03 0.  0.
         24    2    5    5    0    0  0.40430920115E+02  0.25339817185E+02  0.31045610349E+02  0.10440937083E+03  0.87525545754E+02 0.  0.
          5    1    5    5  501    0 -0.51414422287E+02  0.67187524244E+02  0.98097262890E+02  0.12962549602E+03  0.47000000000E+01 0. -1.
        -13    1    6    6    0    0  0.15462786185E+02 -0.14272395307E+02 -0.24147519436E+02  0.32029700581E+02  0.00000000000E+00 0.  1.
         14    1    6    6    0    0  0.24968133930E+02  0.39612212492E+02  0.55193129785E+02  0.72379670253E+02  0.00000000000E+00 0. -1.
         -5    1    3    3    0  503 -0.45574645412E+02 -0.54867737222E+02  0.12235932040E+03  0.14170889239E+03  0.47000000000E+01 0.  1.
         11    1    4    4    0    0  0.24663121870E+02 -0.39870192829E+02 -0.16882922985E+02  0.49829057237E+02  0.00000000000E+00 0. -1.
        -12    1    4    4    0    0  0.31895025714E+02  0.22105886218E+01  0.43464865234E+02  0.53957148527E+02  0.00000000000E+00 0.  1.
</event>
<event>
12    1  0.8133495E-002  0.3458296E+03  0.7818608E-02  0.1064680E+00
         21   -1    0    0  501  502  0.00000000000E+00  0.00000000000E+00  0.13055024064E+04  0.13055024064E+04  0.00000000000E+00 0.  1.
         21   -1    0    0  502  503 -0.00000000000E+00 -0.00000000000E+00 -0.91911920820E+02  0.91911920820E+02  0.00000000000E+00 0. -1.
         -6    2    1    2    0  503 -0.71636793022E+02 -0.29145321568E+03  0.53111004401E+03  0.63377914635E+03  0.17181769540E+03 0.  0.
        -24    2    3    3    0    0 -0.22025476898E+02 -0.20142832106E+03  0.23663937290E+03  0.32184833594E+03  0.80806363496E+02 0.  0.
          6    2    1    2  501    0  0.71636793022E+02  0.29145321568E+03  0.68248044156E+03  0.76363518086E+03  0.16517363379E+03 0.  0.
         24    2    5    5    0    0  0.33612381482E+02  0.64642292109E+02  0.27258770563E+03  0.29361050503E+03  0.81207470635E+02 0.  0.
          5    1    5    5  501    0  0.38024411540E+02  0.22681092357E+03  0.40989273593E+03  0.47002467583E+03  0.47000000000E+01 0. -1.
        -13    1    6    6    0    0 -0.21485903215E+02  0.45448803885E+02  0.14002634742E+03  0.14877706740E+03  0.00000000000E+00 0.  1.
         14    1    6    6    0    0  0.55098284697E+02  0.19193488224E+02  0.13256135821E+03  0.14483343763E+03  0.00000000000E+00 0. -1.
         -5    1    3    3    0  503 -0.49611316124E+02 -0.90024894618E+02  0.29447067111E+03  0.31193081041E+03  0.47000000000E+01 0.  1.
         11    1    4    4    0    0 -0.40546406354E+02 -0.13219973113E+03  0.11145748070E+03  0.17760503930E+03  0.00000000000E+00 0. -1.
        -12    1    4    4    0    0  0.18520929457E+02 -0.69228589930E+02  0.12518189220E+03  0.14424329664E+03  0.00000000000E+00 0.  1.
</event>
<event>
12    1  0.8133495E-002  0.2545430E+03  0.7818608E-02  0.1110518E+00
         21   -1    0    0  503  502  0.00000000000E+00  0.00000000000E+00  0.45519103861E+02  0.45519103861E+02  0.00000000000E+00 0. -1.
         21   -1    0    0  501  503 -0.00000000000E+00 -0.00000000000E+00 -0.20540740828E+04  0.20540740828E+04  0.00000000000E+00 0.  1.
          6    2    1    2  501    0  0.16640510998E+03 -0.86109934290E+02 -0.15872823376E+04  0.16075625478E+04  0.17229783660E+03 0.  0.
         24    2    3    3    0    0  0.66673641562E+02 -0.10637021779E+03 -0.10707870907E+04  0.10811157082E+04  0.80412581059E+02 0.  0.
         -6    2    1    2    0  502 -0.16640510998E+03  0.86109934290E+02 -0.42127264136E+03  0.49203063886E+03  0.17180782813E+03 0.  0.
        -24    2    5    5    0    0 -0.95100765970E+02  0.10406806700E+03 -0.36800767293E+03  0.40111281406E+03  0.74749742541E+02 0.  0.
          5    1    3    3  501    0  0.99731468417E+02  0.20260283499E+02 -0.51649524685E+03  0.52644683957E+03  0.47000000000E+01 0. -1.
        -13    1    4    4    0    0  0.26281065622E+01 -0.79533986477E+02 -0.55569113272E+03  0.56136013123E+03  0.00000000000E+00 0.  1.
         14    1    4    4    0    0  0.64045535000E+02 -0.26836231311E+02 -0.51509595801E+03  0.51975557700E+03  0.00000000000E+00 0. -1.
         -5    1    5    5    0  502 -0.71304344009E+02 -0.17958132706E+02 -0.53264968435E+02  0.90917824805E+02  0.47000000000E+01 0.  1.
         13    1    6    6    0    0  0.20563061602E+01 -0.41289229537E+01  0.79152388996E+00  0.46800544708E+01  0.00000000000E+00 0. -1.
        -14    1    6    6    0    0 -0.97157072130E+02  0.10819698995E+03 -0.36879919682E+03  0.39643275958E+03  0.00000000000E+00 0.  1.
</event>
<event>
12    1  0.8133495E-002  0.1771452E+03  0.7818608E-02  0.1171016E+00
         21   -1    0    0  503  502  0.00000000000E+00  0.00000000000E+00  0.93105160526E+03  0.93105160526E+03  0.00000000000E+00 0. -1.
         21   -1    0    0  501  503 -0.00000000000E+00 -0.00000000000E+00 -0.34163036751E+02  0.34163036751E+02  0.00000000000E+00 0. -1.
          6    2    1    2  501    0  0.32026212110E+02  0.22599460123E+02  0.37759692806E+03  0.41708495997E+03  0.17275418921E+03 0.  0.
         24    2    3    3    0    0  0.36188455582E+02 -0.50365072201E+02  0.17417860437E+03  0.20088539553E+03  0.78552600866E+02 0.  0.
         -6    2    1    2    0  502 -0.32026212110E+02 -0.22599460123E+02  0.51929164044E+03  0.54812968204E+03  0.17101440477E+03 0.  0.
        -24    2    5    5    0    0 -0.54401669398E+02  0.29053266757E+02  0.43033501426E+03  0.44275398928E+03  0.83900158405E+02 0.  0.
          5    1    3    3  501    0 -0.41622434724E+01  0.72964532323E+02  0.20341832370E+03  0.21619956444E+03  0.47000000000E+01 0. -1.
        -11    1    4    4    0    0 -0.22653460692E+02 -0.32743886728E+01  0.58540803763E+02  0.62856396713E+02  0.00000000000E+00 0.  1.
         12    1    4    4    0    0  0.58841916274E+02 -0.47090683528E+02  0.11563780060E+03  0.13802899882E+03  0.00000000000E+00 0. -1.
         -5    1    5    5    0  502  0.22375457289E+02 -0.51652726880E+02  0.88956626179E+02  0.10537569276E+03  0.47000000000E+01 0.  1.
         11    1    6    6    0    0 -0.46351464040E+01  0.45814000644E+02  0.27380623886E+03  0.27765133473E+03  0.00000000000E+00 0. -1.
        -12    1    6    6    0    0 -0.49766522994E+02 -0.16760733887E+02  0.15652877541E+03  0.16510265456E+03  0.00000000000E+00 0.  1.
</event>
<event>
12    1  0.8133495E-002  0.4421097E+03  0.7818608E-02  0.1030279E+00
         21   -1    0    0  501  502  0.00000000000E+00  0.00000000000E+00  0.22750614756E+03  0.22750614756E+03  0.00000000000E+00 0. -1.
         21   -1    0    0  502  503 -0.00000000000E+00 -0.00000000000E+00 -0.99247522139E+03  0.99247522139E+03  0.00000000000E+00 0.  1.
         -6    2    1    2    0  503 -0.30829609161E+03 -0.26254101013E+03 -0.60893710322E+03  0.75114565484E+03  0.17158419799E+03 0.  0.
        -24    2    3    3    0    0 -0.21852217879E+03 -0.20217792496E+03 -0.33227054822E+03  0.45404376973E+03  0.84404808258E+02 0.  0.
          6    2    1    2  501    0  0.30829609161E+03  0.26254101013E+03 -0.15603197060E+03  0.46883571412E+03  0.17744488970E+03 0.  0.
         24    2    5    5    0    0  0.30424097828E+03  0.21194509325E+03 -0.99546781355E+02  0.39274985897E+03  0.82822669756E+02 0.  0.
          5    1    5    5  501    0  0.40551133287E+01  0.50595916879E+02 -0.56485189250E+02  0.76085855147E+02  0.47000000000E+01 0. -1.
        -13    1    6    6    0    0  0.22742292590E+03  0.11108065686E+03 -0.68941072258E+02  0.26232226554E+03  0.00000000000E+00 0.  1.
         14    1    6    6    0    0  0.76818052387E+02  0.10086443638E+03 -0.30605709096E+02  0.13042759343E+03  0.00000000000E+00 0. -1.
         -5    1    3    3    0  503 -0.89773912823E+02 -0.60363085166E+02 -0.27666655501E+03  0.29710188511E+03  0.47000000000E+01 0.  1.
         11    1    4    4    0    0 -0.45449131744E+02 -0.96457191251E+02 -0.11521000959E+03  0.15698076197E+03  0.00000000000E+00 0. -1.
        -12    1    4    4    0    0 -0.17307304705E+03 -0.10572073371E+03 -0.21706053863E+03  0.29706300776E+03  0.00000000000E+00 0.  1.
</event>
<event>
12    1  0.8133495E-002  0.2777192E+03  0.7818608E-02  0.1097375E+00
         21   -1    0    0  503  502  0.00000000000E+00  0.00000000000E+00  0.52259207390E+03  0.52259207390E+03  0.00000000000E+00 0. -1.
         21   -1    0    0  501  503 -0.00000000000E+00 -0.00000000000E+00 -0.16112121995E+03  0.16112121995E+03  0.00000000000E+00 0. -1.
          6    2    1    2  501    0  0.12498250963E+03 -0.17809168065E+03  0.74846849243E+02  0.28461271539E+03  0.16752633372E+03 0.  0.
         24    2    3    3    0    0  0.27997595624E+02 -0.21857327572E+02  0.40449445520E+02  0.97475017401E+02  0.81262618990E+02 0.  0.
         -6    2    1    2    0  502 -0.12498250963E+03  0.17809168065E+03  0.28662400471E+03  0.39910057845E+03  0.17259976018E+03 0.  0.
        -24    2    5    5    0    0 -0.69410399716E+01  0.10872399960E+03  0.18173550509E+03  0.22656260847E+03  0.80210570500E+02 0.  0.
          5    1    3    3  501    0  0.96984914006E+02 -0.15623435308E+03  0.34397403723E+02  0.18713769799E+03  0.47000000000E+01 0. -1.
        -13    1    4    4    0    0 -0.11097046568E+02  0.15733723730E+02  0.38684470546E+02  0.43210910270E+02  0.00000000000E+00 0.  1.
         14    1    4    4    0    0  0.39094642191E+02 -0.37591051302E+02  0.17649749741E+01  0.54264107131E+02  0.00000000000E+00 0. -1.
         -5    1    5    5    0  502 -0.11804146966E+03  0.69367681049E+02  0.10488849962E+03  0.17253796998E+03  0.47000000000E+01 0.  1.
         13    1    6    6    0    0 -0.16119652569E+02  0.10784926433E+03  0.18660818548E+03  0.21613403689E+03  0.00000000000E+00 0. -1.
        -14    1    6    6    0    0  0.91786125971E+01  0.87473527455E+00 -0.48726803871E+01  0.10428571578E+02  0.00000000000E+00 0.  1.
</event>
<event>
12    1  0.8133495E-002  0.2454112E+03  0.7818608E-02  0.1117367E+00
         21   -1    0    0  501  502  0.00000000000E+00  0.00000000000E+00  0.14793275872E+03  0.14793275872E+03  0.00000000000E+00 0.  1.
         21   -1    0    0  502  503 -0.00000000000E+00 -0.00000000000E+00 -0.39991116486E+03  0.39991116486E+03  0.00000000000E+00 0. -1.
         -6    2    1    2    0  503 -0.10002100678E+03 -0.14370051500E+03 -0.15548169638E+03  0.29051889721E+03  0.17196695008E+03 0.  0.
        -24    2    3    3    0    0 -0.88396269420E+02 -0.12698778245E+03 -0.46671883924E+02  0.17972126531E+03  0.78623604073E+02 0.  0.
          6    2    1    2  501    0  0.10002100678E+03  0.14370051500E+03 -0.96496709768E+02  0.25732502637E+03  0.16202010489E+03 0.  0.
         24    2    5    5    0    0  0.80716563832E+02  0.68478285060E+02 -0.15361121004E+01  0.13456244858E+03  0.83067765869E+02 0.  0.
          5    1    5    5  501    0  0.19304442948E+02  0.75222229941E+02 -0.94960597668E+02  0.12276257778E+03  0.47000000000E+01 0. -1.
        -11    1    6    6    0    0  0.91667863036E+02  0.42008568004E+02  0.14278827023E+02  0.10184106147E+03  0.00000000000E+00 0.  1.
         12    1    6    6    0    0 -0.10951299204E+02  0.26469717056E+02 -0.15814939124E+02  0.32721387116E+02  0.00000000000E+00 0. -1.
         -5    1    3    3    0  503 -0.11624737359E+02 -0.16712732553E+02 -0.10880981246E+03  0.11079763190E+03  0.47000000000E+01 0.  1.
         11    1    4    4    0    0 -0.11750880325E+01 -0.22055751604E+01 -0.25954399711E+02  0.26074436868E+02  0.00000000000E+00 0. -1.
        -12    1    4    4    0    0 -0.87221181388E+02 -0.12478220729E+03 -0.20717484213E+02  0.15364682844E+03  0.00000000000E+00 0.  1.
</event>
<event>
12    1  0.8133495E-002  0.1777189E+03  0.7818608E-02  0.1170411E+00
         21   -1    0    0  501  502  0.00000000000E+00  0.00000000000E+00  0.38181400753E+02  0.38181400753E+02  0.00000000000E+00 0.  1.
         21   -1    0    0  502  503 -0.00000000000E+00 -0.00000000000E+00 -0.11747953995E+04  0.11747953995E+04  0.00000000000E+00 0.  1.
         -6    2    1    2    0  503 -0.19299524543E+02  0.39947003143E+02 -0.90331824437E+03  0.92063448634E+03  0.17209233603E+03 0.  0.
        -24    2    3    3    0    0 -0.54339841442E+02 -0.21399143126E+02 -0.64851511803E+03  0.65617674556E+03  0.81149993198E+02 0.  0.
          6    2    1    2  501    0  0.19299524543E+02 -0.39947003143E+02 -0.23329575438E+03  0.29234231392E+03  0.17049599639E+03 0.  0.
         24    2    5    5    0    0 -0.41250567884E+02 -0.63162936533E+02 -0.16449902720E+03  0.19768306753E+03  0.79545580236E+02 0.  0.
          5    1    5    5  501    0  0.60550092427E+02  0.23215933390E+02 -0.68796727185E+02  0.94659246392E+02  0.47000000000E+01 0. -1.
        -13    1    6    6    0    0  0.17079015541E+02 -0.85256543314E+01 -0.57257805146E+01  0.19928976796E+02  0.00000000000E+00 0.  1.
         14    1    6    6    0    0 -0.58329583425E+02 -0.54637282202E+02 -0.15877324668E+03  0.17775409073E+03  0.00000000000E+00 0. -1.
         -5    1    3    3    0  503  0.35040316899E+02  0.61346146269E+02 -0.25480312634E+03  0.26445774079E+03  0.47000000000E+01 0.  1.
         11    1    4    4    0    0 -0.39122906410E+02 -0.49829300159E+01 -0.10439432219E+03  0.11159572529E+03  0.00000000000E+00 0. -1.
        -12    1    4    4    0    0 -0.15216935032E+02 -0.16416213110E+02 -0.54412079584E+03  0.54458102027E+03  0.00000000000E+00 0.  1.
</event>
<event>
12    1  0.8133495E-002  0.1738603E+03  0.7818608E-02  0.1174563E+00
         21   -1    0    0  501  502  0.00000000000E+00  0.00000000000E+00  0.26487706238E+03  0.26487706238E+03  0.00000000000E+00 0.  1.
         21   -1    0    0  502  503 -0.00000000000E+00 -0.00000000000E+00 -0.27089877952E+03  0.27089877952E+03  0.00000000000E+00 0.  1.
         -6    2    1    2    0  503  0.17194516634E+02  0.14427599976E+02 -0.20792602304E+03  0.26933118817E+03  0.16971225890E+03 0.  0.
        -24    2    3    3    0    0  0.29146602322E+02  0.32479494385E+02 -0.46541484102E+02  0.10643311374E+03  0.85190703576E+02 0.  0.
          6    2    1    2  501    0 -0.17194516634E+02 -0.14427599976E+02  0.20190430591E+03  0.26644465373E+03  0.17240532972E+03 0.  0.
         24    2    5    5    0    0 -0.55205494863E+02 -0.58820600813E+02  0.15010442893E+03  0.18820853519E+03  0.79897455480E+02 0.  0.
          5    1    5    5  501    0  0.38010978229E+02  0.44393000837E+02  0.51799876976E+02  0.78236118538E+02  0.47000000000E+01 0. -1.
        -11    1    6    6    0    0 -0.25948498764E+02  0.91463204842E+01  0.86041722680E+02  0.90333591804E+02  0.00000000000E+00 0.  1.
         12    1    6    6    0    0 -0.29256996099E+02 -0.67966921297E+02  0.64062706250E+02  0.97874943389E+02  0.00000000000E+00 0. -1.
         -5    1    3    3    0  503 -0.11952085688E+02 -0.18051894408E+02 -0.16138453894E+03  0.16289807443E+03  0.47000000000E+01 0.  1.
         13    1    4    4    0    0 -0.26151170057E+01 -0.27417528262E+02 -0.92324117868E+01  0.29048186180E+02  0.00000000000E+00 0. -1.
        -14    1    4    4    0    0  0.31761719328E+02  0.59897022647E+02 -0.37309072315E+02  0.77384927561E+02  0.00000000000E+00 0.  1.
</event>
<event>
12    1  0.8133495E-002  0.2191012E+03  0.7818608E-02  0.1134943E+00
         21   -1    0    0  503  502  0.00000000000E+00  0.00000000000E+00  0.16743723260E+03  0.16743723260E+03  0.00000000000E+00 0. -1.
         21   -1    0    0  501  503 -0.00000000000E+00 -0.00000000000E+00 -0.45255921236E+03  0.45255921236E+03  0.00000000000E+00 0. -1.
          6    2    1    2  501    0 -0.19878346979E+02 -0.13496868499E+03 -0.33131831050E+03  0.39607804441E+03  0.16880254674E+03 0.  0.
         24    2    3    3    0    0 -0.53969956125E+02 -0.15006705626E+03 -0.26994558058E+03  0.32411346557E+03  0.82134308003E+02 0.  0.
         -6    2    1    2    0  502  0.19878346979E+02  0.13496868499E+03  0.46196330740E+02  0.22391840055E+03  0.17144577722E+03 0.  0.
        -24    2    5    5    0    0  0.42077346667E+02  0.13581264704E+02  0.41980959533E+02  0.10035642928E+03  0.79712345849E+02 0.  0.
          5    1    3    3  501    0  0.34091609146E+02  0.15098371275E+02 -0.61372729919E+02  0.71964578836E+02  0.47000000000E+01 0. -1.
        -13    1    4    4    0    0 -0.30125552536E+02 -0.29905727250E+02 -0.22592604247E+02  0.48086663480E+02  0.00000000000E+00 0.  1.
         14    1    4    4    0    0 -0.23844403589E+02 -0.12016132901E+03 -0.24735297633E+03  0.27602680209E+03  0.00000000000E+00 0. -1.
         -5    1    5    5    0  502 -0.22198999688E+02  0.12138742028E+03  0.42153712075E+01  0.12356197127E+03  0.47000000000E+01 0.  1.
         11    1    6    6    0    0 -0.15752872121E+02 -0.88466612737E+01 -0.88909069467E+01  0.20136152117E+02  0.00000000000E+00 0. -1.
        -12    1    6    6    0    0  0.57830218788E+02  0.22427925978E+02  0.50871866479E+02  0.80220277161E+02  0.00000000000E+00 0.  1.
</event>
<event>
12    1  0.8133495E-002  0.1768104E+03  0.7818608E-02  0.1171188E+00
         21   -1    0    0  503  502  0.00000000000E+00  0.00000000000E+00  0.69772803245E+03  0.69772803245E+03  0.00000000000E+00 0.  1.
         21   -1    0    0  501  503 -0.00000000000E+00 -0.00000000000E+00 -0.54826022527E+02  0.54826022527E+02  0.00000000000E+00 0.  1.
          6    2    1    2  501    0 -0.23952891548E+02  0.27629161105E+02  0.48522229379E+03  0.51643256324E+03  0.17298787941E+03 0.  0.
         24    2    3    3    0    0 -0.13160381751E+02  0.15062650997E+02  0.49134947231E+03  0.49815613687E+03  0.79593678502E+02 0.  0.
         -6    2    1    2    0  502  0.23952891548E+02 -0.27629161105E+02  0.15767971613E+03  0.23612149174E+03  0.17191089095E+03 0.  0.
        -24    2    5    5    0    0  0.42050469190E+01  0.26860493079E+02  0.21565244839E+02  0.88106833427E+02  0.80985096181E+02 0.  0.
          5    1    3    3  501    0 -0.10792509797E+02  0.12566510108E+02 -0.61271785224E+01  0.18276426365E+02  0.47000000000E+01 0. -1.
        -13    1    4    4    0    0 -0.24386071141E+02 -0.25224602622E+02  0.14013141618E+03  0.14445682692E+03  0.00000000000E+00 0.  1.
         14    1    4    4    0    0  0.11225689390E+02  0.40287253619E+02  0.35121805613E+03  0.35369930995E+03  0.00000000000E+00 0. -1.
         -5    1    5    5    0  502  0.19747844629E+02 -0.54489654184E+02  0.13611447129E+03  0.14801465831E+03  0.47000000000E+01 0.  1.
         13    1    6    6    0    0 -0.35040431694E+01  0.94111835874E+00  0.49263646415E+02  0.49397073601E+02  0.00000000000E+00 0. -1.
        -14    1    6    6    0    0  0.77090900885E+01  0.25919374720E+02 -0.27698401576E+02  0.38709759825E+02  0.00000000000E+00 0.  1.
</event>
<event>
12    1  0.8133495E-002  0.1874329E+03  0.7818608E-02  0.1160859E+00
         21   -1    0    0  503  502  0.00000000000E+00  0.00000000000E+00  0.15493142457E+03  0.15493142457E+03  0.00000000000E+00 0. -1.
         21   -1    0    0  501  503 -0.00000000000E+00 -0.00000000000E+00 -0.39213594004E+03  0.39213594004E+03  0.00000000000E+00 0. -1.
          6    2    1    2  501    0  0.17702933276E+01  0.72844421811E+02 -0.29636705584E+03  0.35051892428E+03  0.17239675393E+03 0.  0.
         24    2    3    3    0    0 -0.59938203196E+02  0.75591320148E+02 -0.21330436254E+03  0.24689950037E+03  0.78447283705E+02 0.  0.
         -6    2    1    2    0  502 -0.17702933276E+01 -0.72844421811E+02  0.59162540364E+02  0.19654844033E+03  0.17268943073E+03 0.  0.
        -24    2    5    5    0    0 -0.22249525767E+02 -0.78411511070E+02  0.10017889715E+03  0.15012836958E+03  0.76546126314E+02 0.  0.
          5    1    3    3  501    0  0.61708496524E+02 -0.27468983373E+01 -0.83062693299E+02  0.10361942391E+03  0.47000000000E+01 0. -1.
        -11    1    4    4    0    0 -0.32988751318E+02 -0.79246597816E+01 -0.38585074832E+02  0.51379625786E+02  0.00000000000E+00 0.  1.
         12    1    4    4    0    0 -0.26949451878E+02  0.83515979930E+02 -0.17471928771E+03  0.19551987458E+03  0.00000000000E+00 0. -1.
         -5    1    5    5    0  502  0.20479232439E+02  0.55670892592E+01 -0.41016356788E+02  0.46420070749E+02  0.47000000000E+01 0.  1.
         13    1    6    6    0    0 -0.22824400156E+02 -0.82558391189E+02  0.48804296758E+02  0.98583470117E+02  0.00000000000E+00 0. -1.
        -14    1    6    6    0    0  0.57487438890E+00  0.41468801190E+01  0.51374600394E+02  0.51544899465E+02  0.00000000000E+00 0.  1.
</event>
<event>
12    1  0.8133495E-002  0.1789728E+03  0.7818608E-02  0.1169671E+00
         21   -1    0    0  501  502  0.00000000000E+00  0.00000000000E+00  0.19763267189E+04  0.19763267189E+04  0.00000000000E+00 0.  1.
         21   -1    0    0  502  503 -0.00000000000E+00 -0.00000000000E+00 -0.16867217617E+02  0.16867217617E+02  0.00000000000E+00 0.  1.
         -6    2    1    2    0  503 -0.11781919087E+02  0.26992274180E+02  0.12288780420E+04  0.12418423899E+04  0.17653295121E+03 0.  0.
        -24    2    3    3    0    0  0.22967859695E+02  0.66498211145E+02  0.10386253090E+04  0.10443925011E+04  0.84045399846E+02 0.  0.
          6    2    1    2  501    0  0.11781919087E+02 -0.26992274180E+02  0.73058145929E+03  0.75135154659E+03  0.17295225183E+03 0.  0.
         24    2    5    5    0    0  0.66865196239E+02 -0.49952516093E+02  0.50229052432E+03  0.51534268845E+03  0.79473941510E+02 0.  0.
          5    1    5    5  501    0 -0.55083277152E+02  0.22960241913E+02  0.22829093497E+03  0.23600885814E+03  0.47000000000E+01 0. -1.
        -11    1    6    6    0    0  0.44968993415E+02  0.61939633407E+01  0.11938651173E+03  0.12772515310E+03  0.00000000000E+00 0.  1.
         12    1    6    6    0    0  0.21896202824E+02 -0.56146479434E+02  0.38290401259E+03  0.38761753535E+03  0.00000000000E+00 0. -1.
         -5    1    3    3    0  503 -0.34749778781E+02 -0.39505936965E+02  0.19025273294E+03  0.19744988876E+03  0.47000000000E+01 0.  1.
         13    1    4    4    0    0  0.16597945224E+02  0.66318493450E+01  0.71448695150E+03  0.71471048480E+03  0.00000000000E+00 0. -1.
        -14    1    4    4    0    0  0.63699144712E+01  0.59866361800E+02  0.32413835751E+03  0.32968201634E+03  0.00000000000E+00 0.  1.
</event>
<event>
12    1  0.8133495E-002  0.2062856E+03  0.7818608E-02  0.1144571E+00
         21   -1    0    0  503  502  0.00000000000E+00  0.00000000000E+00  0.96458166271E+03  0.96458166271E+03  0.00000000000E+00 0. -1.
         21   -1    0    0  501  503 -0.00000000000E+00 -0.00000000000E+00 -0.58631321575E+02  0.58631321575E+02  0.00000000000E+00 0. -1.
          6    2    1    2  501    0  0.26280624949E+02  0.11122566050E+03  0.19802506914E+03  0.28584472465E+03  0.17155599611E+03 0.  0.
         24    2    3    3    0    0  0.76409598492E+02  0.65139075815E+02  0.88414686943E+02  0.15671915335E+03  0.81622363488E+02 0.  0.
         -6    2    1    2    0  502 -0.26280624949E+02 -0.11122566050E+03  0.70792527200E+03  0.73736825964E+03  0.17173217749E+03 0.  0.
        -24    2    5    5    0    0 -0.82132097988E+02 -0.84849045878E+02  0.53709842660E+03  0.55565691176E+03  0.79591718304E+02 0.  0.
          5    1    3    3  501    0 -0.50128973543E+02  0.46086584688E+02  0.10961038219E+03  0.12912557129E+03  0.47000000000E+01 0. -1.
        -13    1    4    4    0    0 -0.79915409166E+01  0.25259594859E+01  0.40256995500E+02  0.41120200440E+02  0.00000000000E+00 0.  1.
         14    1    4    4    0    0  0.84401139409E+02  0.62613116329E+02  0.48157691443E+02  0.11559895292E+03  0.00000000000E+00 0. -1.
         -5    1    5    5    0  502  0.55851473039E+02 -0.26376614625E+02  0.17082684540E+03  0.18171134788E+03  0.47000000000E+01 0.  1.
         13    1    6    6    0    0 -0.16916000692E+02 -0.66380013131E+02  0.35045349104E+03  0.35708557323E+03  0.00000000000E+00 0. -1.
        -14    1    6    6    0    0 -0.65216097296E+02 -0.18469032748E+02  0.18664493556E+03  0.19857133853E+03  0.00000000000E+00 0.  1.
</event>
<event>
12    1  0.8133495E-002  0.2192426E+03  0.7818608E-02  0.1135574E+00
         21   -1    0    0  503  502  0.00000000000E+00  0.00000000000E+00  0.40505965585E+02  0.40505965585E+02  0.00000000000E+00 0. -1.
         21   -1    0    0  501  503 -0.00000000000E+00 -0.00000000000E+00 -0.16929102208E+04  0.16929102208E+04  0.00000000000E+00 0.  1.
          6    2    1    2  501    0 -0.12637271265E+03  0.46607144809E+02 -0.13070837407E+04  0.13243763873E+04  0.16541650955E+03 0.  0.
         24    2    3    3    0    0 -0.10395862200E+03 -0.13230172765E+02 -0.59930259849E+03  0.61370126372E+03  0.80518345563E+02 0.  0.
         -6    2    1    2    0  502  0.12637271265E+03 -0.46607144809E+02 -0.34532051448E+03  0.40903979903E+03  0.17298847078E+03 0.  0.
        -24    2    5    5    0    0 -0.18125209033E+01  0.72397442831E+00 -0.15519400014E+03  0.17485638714E+03  0.80534272673E+02 0.  0.
          5    1    3    3  501    0 -0.22414090643E+02  0.59837317574E+02 -0.70778114221E+03  0.71067512360E+03  0.47000000000E+01 0. -1.
        -11    1    4    4    0    0 -0.10351814113E+03 -0.35835917061E+02 -0.49546842134E+03  0.50743391199E+03  0.00000000000E+00 0.  1.
         12    1    4    4    0    0 -0.44048087719E+00  0.22605744296E+02 -0.10383417715E+03  0.10626735173E+03  0.00000000000E+00 0. -1.
         -5    1    5    5    0  502  0.12818523355E+03 -0.47331119237E+02 -0.19012651435E+03  0.23418341189E+03  0.47000000000E+01 0.  1.
         13    1    6    6    0    0  0.23960233707E+02  0.17250542460E+02 -0.18648341535E+02  0.34920404586E+02  0.00000000000E+00 0. -1.
        -14    1    6    6    0    0 -0.25772754610E+02 -0.16526568031E+02 -0.13654565860E+03  0.13993598255E+03  0.00000000000E+00 0.  1.
</event>
<event>
12    1  0.8133495E-002  0.2267549E+03  0.7818608E-02  0.1129318E+00
         21   -1    0    0  503  502  0.00000000000E+00  0.00000000000E+00  0.87902093137E+02  0.87902093137E+02  0.00000000000E+00 0. -1.
         21   -1    0    0  501  503 -0.00000000000E+00 -0.00000000000E+00 -0.58109166679E+03  0.58109166679E+03  0.00000000000E+00 0.  1.
          6    2    1    2  501    0  0.34414233164E+02 -0.14253112866E+03 -0.26232979045E+03  0.34539831384E+03  0.17024574639E+03 0.  0.
         24    2    3    3    0    0 -0.23874358104E+02 -0.25568714527E+02 -0.67020389862E+02  0.11035444953E+03  0.80390470434E+02 0.  0.
         -6    2    1    2    0  502 -0.34414233164E+02  0.14253112866E+03 -0.23085978320E+03  0.32359544609E+03  0.17296910461E+03 0.  0.
        -24    2    5    5    0    0  0.24046112497E+02  0.17011528457E+02 -0.69977311671E+02  0.11127954538E+03  0.81355426639E+02 0.  0.
          5    1    3    3  501    0  0.58288591269E+02 -0.11696241413E+03 -0.19530940059E+03  0.23504386431E+03  0.47000000000E+01 0. -1.
        -11    1    4    4    0    0  0.79797639891E+01 -0.42617909988E+02 -0.59213676124E+02  0.73390887208E+02  0.00000000000E+00 0.  1.
         12    1    4    4    0    0 -0.31854122094E+02  0.17049195460E+02 -0.78067137373E+01  0.36963562323E+02  0.00000000000E+00 0. -1.
         -5    1    5    5    0  502 -0.58460345662E+02  0.12551960020E+03 -0.16088247153E+03  0.21231590071E+03  0.47000000000E+01 0.  1.
         13    1    6    6    0    0  0.21668951366E+02  0.48931430574E+02 -0.51756808203E+02  0.74448610106E+02  0.00000000000E+00 0. -1.
        -14    1    6    6    0    0  0.23771611308E+01 -0.31919902117E+02 -0.18220503467E+02  0.36830935269E+02  0.00000000000E+00 0.  1.
</event>
<event>
12    1  0.8133495E-002  0.2117747E+03  0.7818608E-02  0.1140360E+00
         21   -1    0    0  501  502  0.00000000000E+00  0.00000000000E+00  0.70216100380E+02  0.70216100380E+02  0.00000000000E+00 0. -1.
         21   -1    0    0  502  503 -0.00000000000E+00 -0.00000000000E+00 -0.10190931282E+04  0.10190931282E+04  0.00000000000E+00 0. -1.
         -6    2    1    2    0  503 -0.12049155451E+03  0.20436014885E+02 -0.80915981022E+03  0.83641385283E+03  0.17295285286E+03 0.  0.
        -24    2    3    3    0    0 -0.14572730936E+03  0.75120807600E+01 -0.52226461888E+03  0.54808277193E+03  0.79633615403E+02 0.  0.
          6    2    1    2  501    0  0.12049155451E+03 -0.20436014885E+02 -0.13971721756E+03  0.25289537572E+03  0.17175367467E+03 0.  0.
         24    2    5    5    0    0  0.13723319438E+03 -0.23251673913E+02 -0.15741553552E+03  0.22792477500E+03  0.88297577856E+02 0.  0.
          5    1    5    5  501    0 -0.16741639874E+02  0.28156590276E+01  0.17698317961E+02  0.24970600715E+02  0.47000000000E+01 0. -1.
        -13    1    6    6    0    0  0.96520376111E+02 -0.41847869655E+02 -0.14897679161E+03  0.18237738796E+03  0.00000000000E+00 0.  1.
         14    1    6    6    0    0  0.40712818273E+02  0.18596195742E+02 -0.84387439114E+01  0.45547387045E+02  0.00000000000E+00 0. -1.
         -5    1    3    3    0  503  0.25235754852E+02  0.12923934125E+02 -0.28689519134E+03  0.28833108090E+03  0.47000000000E+01 0.  1.
         13    1    4    4    0    0 -0.89474069509E+02 -0.29889372147E+02 -0.36356519640E+03  0.37560436062E+03  0.00000000000E+00 0. -1.
        -14    1    4    4    0    0 -0.56253239854E+02  0.37401452907E+02 -0.15869942248E+03  0.17247841132E+03  0.00000000000E+00 0.  1.
</event>
<event>
12    1  0.8133495E-002  0.2276172E+03  0.7818608E-02  0.1128512E+00
         21   -1    0    0  501  502  0.00000000000E+00  0.00000000000E+00  0.26166726574E+03  0.26166726574E+03  0.00000000000E+00 0.  1.
         21   -1    0    0  502  503 -0.00000000000E+00 -0.00000000000E+00 -0.27166384194E+03  0.27166384194E+03  0.00000000000E+00 0.  1.
         -6    2    1    2    0  503 -0.49659980821E+02  0.14141063676E+03  0.13469657768E+03  0.26448584015E+03  0.17130823015E+03 0.  0.
        -24    2    3    3    0    0 -0.16397249960E+02  0.12137630454E+03  0.20937671997E+02  0.14419052705E+03  0.73153570459E+02 0.  0.
          6    2    1    2  501    0  0.49659980821E+02 -0.14141063676E+03 -0.14469315388E+03  0.26884526753E+03  0.16993700953E+03 0.  0.
         24    2    5    5    0    0 -0.28262432178E+02 -0.79957704113E+02 -0.38187317207E+02  0.12319517785E+03  0.80788496273E+02 0.  0.
          5    1    5    5  501    0  0.77922412999E+02 -0.61452932646E+02 -0.10650583667E+03  0.14565008968E+03  0.47000000000E+01 0. -1.
        -11    1    6    6    0    0  0.18333563344E+02  0.57194756993E+01 -0.10121677292E+02  0.21708991187E+02  0.00000000000E+00 0.  1.
         12    1    6    6    0    0 -0.46595995522E+02 -0.85677179813E+02 -0.28065639916E+02  0.10148618666E+03  0.00000000000E+00 0. -1.
         -5    1    3    3    0  503 -0.33262730861E+02  0.20034332219E+02  0.11375890569E+03  0.12029531310E+03  0.47000000000E+01 0.  1.
         13    1    4    4    0    0  0.18262651285E+02  0.27298928741E+02 -0.17013101733E+02  0.36989208872E+02  0.00000000000E+00 0. -1.
        -14    1    4    4    0    0 -0.34659901245E+02  0.94077375800E+02  0.37950773730E+02  0.10720131817E+03  0.00000000000E+00 0.  1.
</event>
<event>
12    1  0.8133495E-002  0.2836984E+03  0.7818608E-02  0.1093701E+00
         21   -1    0    0  503  502  0.00000000000E+00  0.00000000000E+00  0.80869682992E+03  0.80869682992E+03  0.00000000000E+00 0.  1.
         21   -1    0    0  501  503 -0.00000000000E+00 -0.00000000000E+00 -0.10255472135E+03  0.10255472135E+03  0.00000000000E+00 0. -1.
          6    2    1    2  501    0  0.33138269296E+02  0.22283691261E+03  0.27430049206E+03  0.39462073137E+03  0.17242484499E+03 0.  0.
         24    2    3    3    0    0  0.39789107148E+02  0.17911753286E+03  0.28551211985E+03  0.34875780072E+03  0.80302984736E+02 0.  0.
         -6    2    1    2    0  502 -0.33138269296E+02 -0.22283691261E+03  0.43184161650E+03  0.51663081990E+03  0.17223759116E+03 0.  0.
        -24    2    5    5    0    0  0.31209470883E+02 -0.20163488370E+03  0.31486755317E+03  0.38137114672E+03  0.68349967902E+02 0.  0.
          5    1    3    3  501    0 -0.66508378519E+01  0.43719379752E+02 -0.11211627792E+02  0.45862930650E+02  0.47000000000E+01 0. -1.
        -13    1    4    4    0    0 -0.92703448777E+01  0.40947933445E+02  0.12256317015E+03  0.12955463413E+03  0.00000000000E+00 0.  1.
         14    1    4    4    0    0  0.49059452025E+02  0.13816959941E+03  0.16294894970E+03  0.21920316659E+03  0.00000000000E+00 0. -1.
         -5    1    5    5    0  502 -0.64347740179E+02 -0.21202028911E+02  0.11697406333E+03  0.13525967318E+03  0.47000000000E+01 0.  1.
         11    1    6    6    0    0  0.54622369243E+01 -0.57333483328E+02  0.40842403364E+02  0.70605001631E+02  0.00000000000E+00 0. -1.
        -12    1    6    6    0    0  0.25747233959E+02 -0.14430140037E+03  0.27402514981E+03  0.31076614509E+03  0.00000000000E+00 0.  1.
</event>
<event>
12    1  0.8133495E-002  0.1834490E+03  0.7818608E-02  0.1164588E+00
         21   -1    0    0  501  502  0.00000000000E+00  0.00000000000E+00  0.71361227472E+03  0.71361227472E+03  0.00000000000E+00 0.  1.
         21   -1    0    0  502  503 -0.00000000000E+00 -0.00000000000E+00 -0.54329533958E+02  0.54329533958E+02  0.00000000000E+00 0.  1.
         -6    2    1    2    0  503  0.10339258172E+02  0.63192146476E+02  0.18955716440E+03  0.26379056005E+03  0.17191100418E+03 0.  0.
        -24    2    3    3    0    0  0.54518297498E+02  0.48652905695E+01  0.15535188731E+03  0.18288381981E+03  0.79475573868E+02 0.  0.
          6    2    1    2  501    0 -0.10339258172E+02 -0.63192146476E+02  0.46972557636E+03  0.50415124863E+03  0.17154071462E+03 0.  0.
         24    2    5    5    0    0  0.36876240398E+02 -0.85508503273E+02  0.25496022897E+03  0.28307757872E+03  0.80353195218E+02 0.  0.
          5    1    5    5  501    0 -0.47215498570E+02  0.22316356797E+02  0.21476534740E+03  0.22107366991E+03  0.47000000000E+01 0. -1.
        -13    1    6    6    0    0  0.50433876842E+02 -0.26358438704E+02  0.82254450422E+02  0.10002068705E+03  0.00000000000E+00 0.  1.
         14    1    6    6    0    0 -0.13557636445E+02 -0.59150064569E+02  0.17270577854E+03  0.18305689167E+03  0.00000000000E+00 0. -1.
         -5    1    3    3    0  503 -0.44179039326E+02  0.58326855907E+02  0.34205277093E+02  0.80906740243E+02  0.47000000000E+01 0.  1.
         13    1    4    4    0    0  0.61514446498E+02  0.23389087429E+02  0.14762278110E+03  0.16162785044E+03  0.00000000000E+00 0. -1.
        -14    1    4    4    0    0 -0.69961489995E+01 -0.18523796859E+02  0.77291062141E+01  0.21255969368E+02  0.00000000000E+00 0.  1.
</event>
<event>
12    1  0.8133495E-002  0.2020369E+03  0.7818608E-02  0.1148305E+00
         21   -1    0    0  503  502  0.00000000000E+00  0.00000000000E+00  0.11821832510E+04  0.11821832510E+04  0.00000000000E+00 0.  1.
         21   -1    0    0  501  503 -0.00000000000E+00 -0.00000000000E+00 -0.45391194379E+02  0.45391194379E+02  0.00000000000E+00 0.  1.
          6    2    1    2  501    0  0.88417449957E+02 -0.54705692772E+02  0.87032939390E+03  0.89317759839E+03  0.17170500892E+03 0.  0.
         24    2    3    3    0    0  0.92649628299E+02 -0.31479708572E+02  0.33508030606E+03  0.35738749610E+03  0.76629532041E+02 0.  0.
         -6    2    1    2    0  502 -0.88417449957E+02  0.54705692772E+02  0.26646266271E+03  0.33439684698E+03  0.17322973872E+03 0.  0.
        -24    2    5    5    0    0 -0.43798782992E+02  0.67158520567E+02  0.69740305705E+02  0.13223929925E+03  0.78707825211E+02 0.  0.
          5    1    3    3  501    0 -0.42321783424E+01 -0.23225984200E+02  0.53524908784E+03  0.53579010229E+03  0.47000000000E+01 0. -1.
        -11    1    4    4    0    0  0.60237196979E+02 -0.55136054784E+02  0.18880654394E+03  0.20570954152E+03  0.00000000000E+00 0.  1.
         12    1    4    4    0    0  0.32412431320E+02  0.23656346212E+02  0.14627376212E+03  0.15167795458E+03  0.00000000000E+00 0. -1.
         -5    1    5    5    0  502 -0.44618666965E+02 -0.12452827795E+02  0.19672235700E+03  0.20215754773E+03  0.47000000000E+01 0.  1.
         13    1    6    6    0    0 -0.24125648265E+02 -0.14100602618E+02  0.10861101977E+02  0.29980617648E+02  0.00000000000E+00 0. -1.
        -14    1    6    6    0    0 -0.19673134727E+02  0.81259123185E+02  0.58879203728E+02  0.10225868160E+03  0.00000000000E+00 0.  1.
</event>
<event>
12    1  0.8133495E-002  0.2340951E+03  0.7818608E-02  0.1123812E+00
         21   -1    0    0  503  502  0.00000000000E+00  0.00000000000E+00  0.12705337903E+04  0.12705337903E+04  0.00000000000E+00 0. -1.
         21   -1    0    0  501  503 -0.00000000000E+00 -0.00000000000E+00 -0.66294225800E+02  0.66294225800E+02  0.00000000000E+00 0.  1.
          6    2    1    2  501    0 -0.65417853986E+02 -0.14405338579E+03  0.20671744021E+03  0.31220570227E+03  0.17236422735E+03 0.  0.
         24    2    3    3    0    0  0.30235635376E+01 -0.12359515127E+03  0.70209559880E+02  0.15806531696E+03  0.69067783898E+02 0.  0.
         -6    2    1    2    0  502  0.65417853986E+02  0.14405338579E+03  0.99752212429E+03  0.10246223138E+04  0.17253876077E+03 0.  0.
        -24    2    5    5    0    0  0.88743158109E+02  0.12636646068E+03  0.96539497053E+03  0.98090571354E+03  0.79653871399E+02 0.  0.
          5    1    3    3  501    0 -0.68441417523E+02 -0.20458234512E+02  0.13650788033E+03  0.15414038531E+03  0.47000000000E+01 0. -1.
        -13    1    4    4    0    0  0.17025781593E+02 -0.14361138299E+02  0.36738906541E+02  0.42963551831E+02  0.00000000000E+00 0.  1.
         14    1    4    4    0    0 -0.14002218056E+02 -0.10923401297E+03  0.33470653339E+02  0.11510176513E+03  0.00000000000E+00 0. -1.
         -5    1    5    5    0  502 -0.23325304123E+02  0.17686925109E+02  0.32127153757E+02  0.43716600289E+02  0.47000000000E+01 0.  1.
         13    1    6    6    0    0  0.20918526681E+02  0.93936405548E+02  0.46091743010E+03  0.47085720810E+03  0.00000000000E+00 0. -1.
        -14    1    6    6    0    0  0.67824631428E+02  0.32430055128E+02  0.50447754043E+03  0.51004850544E+03  0.00000000000E+00 0.  1.
</event>
<event>
12    1  0.8133495E-002  0.2721681E+03  0.7818608E-02  0.1101748E+00
         21   -1    0    0  503  502  0.00000000000E+00  0.00000000000E+00  0.43069064802E+03  0.43069064802E+03  0.00000000000E+00 0.  1.
         21   -1    0    0  501  503 -0.00000000000E+00 -0.00000000000E+00 -0.23091163722E+03  0.23091163722E+03  0.00000000000E+00 0.  1.
          6    2    1    2  501    0 -0.15584833036E+03 -0.11787357540E+03 -0.78854006416E+02  0.27210026513E+03  0.17215608646E+03 0.  0.
         24    2    3    3    0    0 -0.94242710602E+02 -0.22874530808E+02  0.15069213798E+02  0.12491421908E+03  0.77275793502E+02 0.  0.
         -6    2    1    2    0  502  0.15584833036E+03  0.11787357540E+03  0.27863301722E+03  0.38950202011E+03  0.18945338089E+03 0.  0.
        -24    2    5    5    0    0  0.80073594357E+02  0.91529141515E+02  0.27231467751E+03  0.30889276984E+03  0.80436903267E+02 0.  0.
          5    1    3    3  501    0 -0.61605619758E+02 -0.94999044588E+02 -0.93923220214E+02  0.14718604606E+03  0.47000000000E+01 0. -1.
        -11    1    4    4    0    0 -0.43297154289E+02  0.28167565129E+02  0.25228995309E+01  0.51714797852E+02  0.00000000000E+00 0.  1.
         12    1    4    4    0    0 -0.50945556313E+02 -0.51042095937E+02  0.12546314267E+02  0.73199421223E+02  0.00000000000E+00 0. -1.
         -5    1    5    5    0  502  0.75774736003E+02  0.26344433882E+02  0.63183397044E+01  0.80609250273E+02  0.47000000000E+01 0.  1.
         11    1    6    6    0    0  0.41008441582E+02  0.75200807431E+02  0.10103416091E+03  0.13245661701E+03  0.00000000000E+00 0. -1.
        -12    1    6    6    0    0  0.39065152775E+02  0.16328334083E+02  0.17128051660E+03  0.17643615282E+03  0.00000000000E+00 0.  1.
</event>
<event>
12    1  0.8133495E-002  0.1809663E+03  0.7818608E-02  0.1167158E+00
         21   -1    0    0  501  502  0.00000000000E+00  0.00000000000E+00  0.16858618752E+04  0.16858618752E+04  0.00000000000E+00 0.  1.
         21   -1    0    0  502  503 -0.00000000000E+00 -0.00000000000E+00 -0.64329560011E+02  0.64329560011E+02  0.00000000000E+00 0.  1.
         -6    2    1    2    0  503  0.18589133877E+02 -0.48958279436E+02  0.77801070367E+02  0.19588935612E+03  0.17198012754E+03 0.  0.
        -24    2    3    3    0    0 -0.94892957535E+00  0.34551059321E+02  0.11961198890E+02  0.87664939935E+02  0.79670541904E+02 0.  0.
          6    2    1    2  501    0 -0.18589133877E+02  0.48958279436E+02  0.15437312448E+04  0.15543020791E+04  0.17322334656E+03 0.  0.
         24    2    5    5    0    0 -0.62273220874E+02  0.88160373885E+01  0.12761902523E+04  0.12802218504E+04  0.79691591406E+02 0.  0.
          5    1    5    5  501    0  0.43684086996E+02  0.40142242047E+02  0.26754099256E+03  0.27408022868E+03  0.47000000000E+01 0. -1.
        -11    1    6    6    0    0 -0.16175755476E+02  0.25192025703E+02  0.14939747435E+03  0.15236764278E+03  0.00000000000E+00 0.  1.
         12    1    6    6    0    0 -0.46097465398E+02 -0.16375988315E+02  0.11267927779E+04  0.11278542076E+04  0.00000000000E+00 0. -1.
         -5    1    3    3    0  503  0.19538063453E+02 -0.83509338757E+02  0.65839871477E+02  0.10822441619E+03  0.47000000000E+01 0.  1.
         13    1    4    4    0    0 -0.28694667703E+02  0.47542797465E+02  0.24474333588E+01  0.55584993257E+02  0.00000000000E+00 0. -1.
        -14    1    4    4    0    0  0.27745738128E+02 -0.12991738143E+02  0.95137655309E+01  0.32079946677E+02  0.00000000000E+00 0.  1.
</event>
<event>
12    1  0.8133495E-002  0.1993358E+03  0.7818608E-02  0.1150469E+00
         21   -1    0    0  501  502  0.00000000000E+00  0.00000000000E+00  0.40970030844E+03  0.40970030844E+03  0.00000000000E+00 0.  1.
         21   -1    0    0  502  503 -0.00000000000E+00 -0.00000000000E+00 -0.47352620310E+03  0.47352620310E+03  0.00000000000E+00 0.  1.
         -6    2    1    2    0  503  0.93489395837E+02 -0.40731438193E+02 -0.42590252386E+03  0.46990549367E+03  0.17034933508E+03 0.  0.
        -24    2    3    3    0    0  0.37333362308E+02  0.65075435309E+01 -0.89618575023E+02  0.12567591078E+03  0.79541294281E+02 0.  0.
          6    2    1    2  501    0 -0.93489395837E+02  0.40731438193E+02  0.36207662921E+03  0.41332101787E+03  0.17127597964E+03 0.  0.
         24    2    5    5    0    0 -0.39717862471E+02  0.42669482522E+02  0.82376556487E+02  0.12845376019E+03  0.79475015636E+02 0.  0.
          5    1    5    5  501    0 -0.53771533366E+02 -0.19380443284E+01  0.27970007272E+03  0.28486725768E+03  0.47000000000E+01 0. -1.
        -11    1    6    6    0    0 -0.39670088927E+02 -0.11582046709E+02  0.51499793943E+02  0.66030966505E+02  0.00000000000E+00 0.  1.
         12    1    6    6    0    0 -0.47773543478E-01  0.54251529231E+02  0.30876762544E+02  0.62422793685E+02  0.00000000000E+00 0. -1.
         -5    1    3    3    0  503  0.56156033528E+02 -0.47238981724E+02 -0.33628394884E+03  0.34422958290E+03  0.47000000000E+01 0.  1.
         13    1    4    4    0    0  0.74841907711E+01 -0.35205590696E+02 -0.28665052528E+02  0.46012302314E+02  0.00000000000E+00 0. -1.
        -14    1    4    4    0    0  0.29849171537E+02  0.41713134227E+02 -0.60953522495E+02  0.79663608461E+02  0.00000000000E+00 0.  1.
</event>
<event>
12    1  0.8133495E-002  0.1812637E+03  0.7818608E-02  0.1166765E+00
         21   -1    0    0  501  502  0.00000000000E+00  0.00000000000E+00  0.28559258195E+03  0.28559258195E+03  0.00000000000E+00 0.  1.
         21   -1    0    0  502  503 -0.00000000000E+00 -0.00000000000E+00 -0.14067073946E+03  0.14067073946E+03  0.00000000000E+00 0.  1.
         -6    2    1    2    0  503 -0.55467299451E+02 -0.36047413729E+01 -0.19219001948E+02  0.18227973055E+03  0.17253090930E+03 0.  0.
        -24    2    3    3    0    0 -0.17355224505E+02 -0.53947452769E+02  0.29102014494E+02  0.10263094225E+03  0.80465219699E+02 0.  0.
          6    2    1    2  501    0  0.55467299451E+02  0.36047413729E+01  0.16414084444E+03  0.24398359086E+03  0.17174446229E+03 0.  0.
         24    2    5    5    0    0  0.51548472153E+02  0.24820980379E+02  0.18784674095E+03  0.21158690069E+03  0.78799063516E+02 0.  0.
          5    1    5    5  501    0  0.39188272984E+01 -0.21216239006E+02 -0.23705896507E+02  0.32396690173E+02  0.47000000000E+01 0. -1.
        -13    1    6    6    0    0  0.32126525919E+02  0.53567215217E+02  0.12751929369E+03  0.14199552978E+03  0.00000000000E+00 0.  1.
         14    1    6    6    0    0  0.19421946234E+02 -0.28746234838E+02  0.60327447253E+02  0.69591370908E+02  0.00000000000E+00 0. -1.
         -5    1    3    3    0  503 -0.38112074946E+02  0.50342711396E+02 -0.48321016442E+02  0.79648788298E+02  0.47000000000E+01 0.  1.
         11    1    4    4    0    0  0.25604983542E+02 -0.47894975078E+02  0.99788869792E+01  0.55218855523E+02  0.00000000000E+00 0. -1.
        -12    1    4    4    0    0 -0.42960208047E+02 -0.60524776905E+01  0.19123127515E+02  0.47412086725E+02  0.00000000000E+00 0.  1.
</event>
<event>
12    1  0.8133495E-002  0.1871134E+03  0.7818608E-02  0.1161994E+00
         21   -1    0    0  503  502  0.00000000000E+00  0.00000000000E+00  0.30279200585E+02  0.30279200585E+02  0.00000000000E+00 0. -1.
         21   -1    0    0  501  503 -0.00000000000E+00 -0.00000000000E+00 -0.15736280101E+04  0.15736280101E+04  0.00000000000E+00 0. -1.
          6    2    1    2  501    0 -0.43058599007E+02 -0.42278722259E+02 -0.34123465231E+03  0.38731776512E+03  0.17300991283E+03 0.  0.
         24    2    3    3    0    0  0.32219561731E+00  0.73160317293E+01 -0.29895804848E+03  0.30888987342E+03  0.77352511384E+02 0.  0.
         -6    2    1    2    0  502  0.43058599007E+02  0.42278722259E+02 -0.12021141572E+04  0.12165894456E+04  0.17711549566E+03 0.  0.
        -24    2    5    5    0    0  0.59508502088E+02 -0.14515221488E+02 -0.10106396651E+04  0.10161381485E+04  0.85978199235E+02 0.  0.
          5    1    3    3  501    0 -0.43380794624E+02 -0.49594753988E+02 -0.42276603824E+02  0.78427891698E+02  0.47000000000E+01 0. -1.
        -13    1    4    4    0    0  0.28494099277E+02  0.29731305967E+02 -0.14164494084E+03  0.14750984209E+03  0.00000000000E+00 0.  1.
         14    1    4    4    0    0 -0.28171903659E+02 -0.22415274238E+02 -0.15731310764E+03  0.16138003133E+03  0.00000000000E+00 0. -1.
         -5    1    5    5    0  502 -0.16449903082E+02  0.56793943748E+02 -0.19147449213E+03  0.20045129707E+03  0.47000000000E+01 0.  1.
         13    1    6    6    0    0  0.54183360775E+02  0.24486515319E+02 -0.41996490782E+03  0.42415321503E+03  0.00000000000E+00 0. -1.
        -14    1    6    6    0    0  0.53251413134E+01 -0.39001736807E+02 -0.59067475726E+03  0.59198493348E+03  0.00000000000E+00 0.  1.
</event>
<event>
12    1  0.8133495E-002  0.2102029E+03  0.7818608E-02  0.1141809E+00
         21   -1    0    0  501  502  0.00000000000E+00  0.00000000000E+00  0.22963835463E+03  0.22963835463E+03  0.00000000000E+00 0.  1.
         21   -1    0    0  502  503 -0.00000000000E+00 -0.00000000000E+00 -0.29653247408E+03  0.29653247408E+03  0.00000000000E+00 0.  1.
         -6    2    1    2    0  503 -0.53985716649E+02 -0.10851122336E+03 -0.19082602649E+03  0.28390106565E+03  0.17174428518E+03 0.  0.
        -24    2    3    3    0    0  0.11625024138E+02 -0.27482868657E+02 -0.14959649908E+03  0.17168552527E+03  0.78780440429E+02 0.  0.
          6    2    1    2  501    0  0.53985716649E+02  0.10851122336E+03  0.12393190705E+03  0.24226976305E+03  0.16925240710E+03 0.  0.
         24    2    5    5    0    0  0.44080776669E+02  0.14877667860E+02  0.11425514486E+03  0.14750120140E+03  0.80857321343E+02 0.  0.
          5    1    5    5  501    0  0.99049399799E+01  0.93633555501E+02  0.96767621868E+01  0.94768561655E+02  0.47000000000E+01 0. -1.
        -13    1    6    6    0    0  0.25554603434E+02  0.43798112042E+02  0.36439804160E+02  0.62443347943E+02  0.00000000000E+00 0.  1.
         14    1    6    6    0    0  0.18526173235E+02 -0.28920444182E+02  0.77815340699E+02  0.85057853456E+02  0.00000000000E+00 0. -1.
         -5    1    3    3    0  503 -0.65610740787E+02 -0.81028354705E+02 -0.41229527414E+02  0.11221554038E+03  0.47000000000E+01 0.  1.
         11    1    4    4    0    0 -0.11112618859E+02 -0.37260343478E+01  0.56379952370E+01  0.13006176231E+02  0.00000000000E+00 0. -1.
        -12    1    4    4    0    0  0.22737642997E+02 -0.23756834309E+02 -0.15523449431E+03  0.15867934904E+03  0.00000000000E+00 0.  1.
</event>
<event>
12    1  0.8133495E-002  0.1949438E+03  0.7818608E-02  0.1155349E+00
         21   -1    0    0  503  502  0.00000000000E+00  0.00000000000E+00  0.26035905083E+02  0.26035905083E+02  0.00000000000E+00 0. -1.
         21   -1    0    0  501  503 -0.00000000000E+00 -0.00000000000E+00 -0.16519316544E+04  0.16519316544E+04  0.00000000000E+00 0. -1.
          6    2    1    2  501    0  0.69681968314E+02 -0.42192706570E+02 -0.11397609594E+04  0.11563122975E+04  0.17710811314E+03 0.  0.
         24    2    3    3    0    0  0.43246125097E+02 -0.67038465723E+02 -0.10823346882E+04  0.10882238832E+04  0.80115287723E+02 0.  0.
         -6    2    1    2    0  502 -0.69681968314E+02  0.42192706570E+02 -0.48613478997E+03  0.52165526197E+03  0.17076702587E+03 0.  0.
        -24    2    5    5    0    0 -0.49712753754E+02 -0.92043333488E+01 -0.13441902779E+03  0.16561243785E+03  0.82479857535E+02 0.  0.
          5    1    3    3  501    0  0.26435843217E+02  0.24845759153E+02 -0.57426271134E+02  0.68088414366E+02  0.47000000000E+01 0. -1.
        -13    1    4    4    0    0  0.28008487451E+01  0.10800082697E+02 -0.26519243156E+02  0.28770762894E+02  0.00000000000E+00 0.  1.
         14    1    4    4    0    0  0.40445276352E+02 -0.77838548419E+02 -0.10558154451E+04  0.10594531203E+04  0.00000000000E+00 0. -1.
         -5    1    5    5    0  502 -0.19969214560E+02  0.51397039919E+02 -0.35171576218E+03  0.35604282412E+03  0.47000000000E+01 0.  1.
         11    1    6    6    0    0 -0.31553271766E+02  0.29462029768E+02 -0.29379247106E+02  0.52218390608E+02  0.00000000000E+00 0. -1.
        -12    1    6    6    0    0 -0.18159481988E+02 -0.38666363117E+02 -0.10503978068E+03  0.11339404724E+03  0.00000000000E+00 0.  1.
</event>
<event>
12    1  0.8133495E-002  0.2445066E+03  0.7818608E-02  0.1117200E+00
         21   -1    0    0  503  502  0.00000000000E+00  0.00000000000E+00  0.12965305371E+03  0.12965305371E+03  0.00000000000E+00 0. -1.
         21   -1    0    0  501  503 -0.00000000000E+00 -0.00000000000E+00 -0.47673572914E+03  0.47673572914E+03  0.00000000000E+00 0.  1.
          6    2    1    2  501    0 -0.17359788940E+03 -0.16601584602E+02 -0.11076820783E+03  0.26634759962E+03  0.16810594320E+03 0.  0.
         24    2    3    3    0    0 -0.19321900865E+03 -0.10775563505E+02 -0.71257080609E+02  0.22160220861E+03  0.81118858774E+02 0.  0.
         -6    2    1    2    0  502  0.17359788940E+03  0.16601584602E+02 -0.23631446760E+03  0.34004118324E+03  0.17138155934E+03 0.  0.
        -24    2    5    5    0    0  0.12060755209E+03  0.51207490171E+02 -0.22957621510E+03  0.27622082131E+03  0.80151824180E+02 0.  0.
          5    1    3    3  501    0  0.19621119252E+02 -0.58260210970E+01 -0.39511127221E+02  0.44745391011E+02  0.47000000000E+01 0. -1.
        -11    1    4    4    0    0 -0.59052553871E+02 -0.41499585533E+02 -0.23155252110E+02  0.75799639962E+02  0.00000000000E+00 0.  1.
         12    1    4    4    0    0 -0.13416645478E+03  0.30724022029E+02 -0.48101828499E+02  0.14580256864E+03  0.00000000000E+00 0. -1.
         -5    1    5    5    0  502  0.52990337314E+02 -0.34605905569E+02 -0.67382525041E+01  0.63820361921E+02  0.47000000000E+01 0.  1.
         13    1    6    6    0    0  0.12128291863E+03  0.31997061996E+02 -0.15599069913E+03  0.20016607241E+03  0.00000000000E+00 0. -1.
        -14    1    6    6    0    0 -0.67536654863E+00  0.19210428174E+02 -0.73585515972E+02  0.76054748908E+02  0.00000000000E+00 0.  1.
</event>
<event>
12    1  0.8133495E-002  0.2487489E+03  0.7818608E-02  0.1114203E+00
         21   -1    0    0  501  502  0.00000000000E+00  0.00000000000E+00  0.15372244705E+03  0.15372244705E+03  0.00000000000E+00 0. -1.
         21   -1    0    0  502  503 -0.00000000000E+00 -0.00000000000E+00 -0.43804998037E+03  0.43804998037E+03  0.00000000000E+00 0.  1.
         -6    2    1    2    0  503  0.15942187818E+03  0.81155297480E+02 -0.22785897473E+03  0.33733625731E+03  0.17284247332E+03 0.  0.
        -24    2    3    3    0    0  0.71049332780E+02  0.11096621752E+03 -0.18001696696E+03  0.23241082931E+03  0.65170361891E+02 0.  0.
          6    2    1    2  501    0 -0.15942187818E+03 -0.81155297480E+02 -0.56468558588E+02  0.25443617011E+03  0.17189400513E+03 0.  0.
         24    2    5    5    0    0 -0.10606116710E+03 -0.11852733617E+03 -0.64362286857E+02  0.18864532189E+03  0.78401868077E+02 0.  0.
          5    1    5    5  501    0 -0.53360711081E+02  0.37372038690E+02  0.78937282683E+01  0.65790848216E+02  0.47000000000E+01 0. -1.
        -11    1    6    6    0    0 -0.32757043755E+02 -0.94387210346E+02 -0.41162713554E+02  0.10805710703E+03  0.00000000000E+00 0.  1.
         12    1    6    6    0    0 -0.73304123343E+02 -0.24140125824E+02 -0.23199573302E+02  0.80588214866E+02  0.00000000000E+00 0. -1.
         -5    1    3    3    0  503  0.88372545399E+02 -0.29810920037E+02 -0.47842007768E+02  0.10492542800E+03  0.47000000000E+01 0.  1.
         13    1    4    4    0    0  0.42359654845E+02  0.53227660149E+02 -0.41659444557E+02  0.79768624686E+02  0.00000000000E+00 0. -1.
        -14    1    4    4    0    0  0.28689677934E+02  0.57738557367E+02 -0.13835752241E+03  0.15264220463E+03  0.00000000000E+00 0.  1.
</event>
<event>
12    1  0.8133495E-002  0.4251746E+03  0.7818608E-02  0.1035402E+00
         21   -1    0    0  503  502  0.00000000000E+00  0.00000000000E+00  0.42371169462E+03  0.42371169462E+03  0.00000000000E+00 0. -1.
         21   -1    0    0  501  503 -0.00000000000E+00 -0.00000000000E+00 -0.59243521902E+03  0.59243521902E+03  0.00000000000E+00 0.  1.
          6    2    1    2  501    0 -0.37058300577E+03 -0.11594073005E+03 -0.35321370665E+03  0.55275074381E+03  0.17320347908E+03 0.  0.
         24    2    3    3    0    0 -0.26212577695E+03 -0.44669566960E+02 -0.15692876438E+03  0.31739480542E+03  0.73535925000E+02 0.  0.
         -6    2    1    2    0  502  0.37058300577E+03  0.11594073005E+03  0.18449018225E+03  0.46339616982E+03  0.17298949623E+03 0.  0.
        -24    2    5    5    0    0  0.26509813320E+03  0.14499741725E+03  0.16252946254E+03  0.35170144021E+03  0.77309802855E+02 0.  0.
          5    1    3    3  501    0 -0.10845722882E+03 -0.71271163088E+02 -0.19628494228E+03  0.23535593839E+03  0.47000000000E+01 0. -1.
        -11    1    4    4    0    0 -0.18382166153E+03 -0.57250219860E+02 -0.85497575782E+02  0.21066045283E+03  0.00000000000E+00 0.  1.
         12    1    4    4    0    0 -0.78304115418E+02  0.12580652900E+02 -0.71431188595E+02  0.10673435259E+03  0.00000000000E+00 0. -1.
         -5    1    5    5    0  502  0.10548487257E+03 -0.29056687203E+02  0.21960719719E+02  0.11169472961E+03  0.47000000000E+01 0.  1.
         11    1    6    6    0    0  0.13286842627E+03  0.96399817292E+02  0.50615162757E+02  0.17178136737E+03  0.00000000000E+00 0. -1.
        -12    1    6    6    0    0  0.13222970693E+03  0.48597599958E+02  0.11191429978E+03  0.17992007284E+03  0.00000000000E+00 0.  1.
</event>
<event>
12    1  0.8133495E-002  0.1838644E+03  0.7818608E-02  0.1164374E+00
         21   -1    0    0  503  502  0.00000000000E+00  0.00000000000E+00  0.67518463773E+02  0.67518463773E+02  0.00000000000E+00 0. -1.
         21   -1    0    0  501  503 -0.00000000000E+00 -0.00000000000E+00 -0.60838664340E+03  0.60838664340E+03  0.00000000000E+00 0. -1.
          6    2    1    2  501    0  0.55825803121E+02  0.26733505947E+02 -0.41391743573E+03  0.45247143593E+03  0.17196382208E+03 0.  0.
         24    2    3    3    0    0 -0.22966415117E+02 -0.89749044319E+01 -0.14080068606E+03  0.16594368305E+03  0.84288003983E+02 0.  0.
         -6    2    1    2    0  502 -0.55825803121E+02 -0.26733505947E+02 -0.12695074390E+03  0.22343367124E+03  0.17313264693E+03 0.  0.
        -24    2    5    5    0    0 -0.10224672292E+03 -0.39089776835E+02 -0.98556974837E+02  0.16743478422E+03  0.79614864673E+02 0.  0.
          5    1    3    3  501    0  0.78792218237E+02  0.35708410379E+02 -0.27311674966E+03  0.28652775288E+03  0.47000000000E+01 0. -1.
        -11    1    4    4    0    0 -0.27870492973E+02  0.29953376298E+02 -0.10553479300E+03  0.11318816927E+03  0.00000000000E+00 0.  1.
         12    1    4    4    0    0  0.49040778568E+01 -0.38928280730E+02 -0.35265893066E+02  0.52755513778E+02  0.00000000000E+00 0. -1.
         -5    1    5    5    0  502  0.46420919802E+02  0.12356270889E+02 -0.28393769064E+02  0.55998887017E+02  0.47000000000E+01 0.  1.
         11    1    6    6    0    0 -0.32785281768E+01  0.16379711359E+02  0.66039717638E+00  0.16717649824E+02  0.00000000000E+00 0. -1.
        -12    1    6    6    0    0 -0.98968194745E+02 -0.55469488194E+02 -0.99217372013E+02  0.15071713440E+03  0.00000000000E+00 0.  1.
</event>
<event>
12    1  0.8133495E-002  0.3043204E+03  0.7818608E-02  0.1083225E+00
         21   -1    0    0  503  502  0.00000000000E+00  0.00000000000E+00  0.29950284459E+03  0.29950284459E+03  0.00000000000E+00 0. -1.
         21   -1    0    0  501  503 -0.00000000000E+00 -0.00000000000E+00 -0.31620701460E+03  0.31620701460E+03  0.00000000000E+00 0.  1.
          6    2    1    2  501    0  0.21376610088E+03  0.13015605997E+03  0.40686347135E+02  0.30602522520E+03  0.17134618112E+03 0.  0.
         24    2    3    3    0    0  0.13576221966E+03  0.11074912899E+02  0.40975023220E+02  0.16359243962E+03  0.80805320321E+02 0.  0.
         -6    2    1    2    0  502 -0.21376610088E+03 -0.13015605997E+03 -0.57390517146E+02  0.30968463398E+03  0.17313103486E+03 0.  0.
        -24    2    5    5    0    0 -0.21099830807E+03 -0.77365138402E+02 -0.10232627027E+02  0.23868816451E+03  0.79760156549E+02 0.  0.
          5    1    3    3  501    0  0.78003881225E+02  0.11908114707E+03 -0.28867608489E+00  0.14243278558E+03  0.47000000000E+01 0. -1.
        -13    1    4    4    0    0  0.19272677072E+02  0.34523898567E+02  0.93398025648E+01  0.40627177673E+02  0.00000000000E+00 0.  1.
         14    1    4    4    0    0  0.11648954258E+03 -0.23448985668E+02  0.31635220656E+02  0.12296526195E+03  0.00000000000E+00 0. -1.
         -5    1    5    5    0  502 -0.27677928120E+01 -0.52790921570E+02 -0.47157890118E+02  0.70996469473E+02  0.47000000000E+01 0.  1.
         11    1    6    6    0    0 -0.40512960551E+01 -0.22210815607E+02 -0.95563110637E+01  0.24516451839E+02  0.00000000000E+00 0. -1.
        -12    1    6    6    0    0 -0.20694701201E+03 -0.55154322795E+02 -0.67631596368E+00  0.21417171267E+03  0.00000000000E+00 0.  1.
</event>
<event>
12    1  0.8133495E-002  0.1886232E+03  0.7818608E-02  0.1159904E+00
         21   -1    0    0  501  502  0.00000000000E+00  0.00000000000E+00  0.30805826498E+03  0.30805826498E+03  0.00000000000E+00 0.  1.
         21   -1    0    0  502  503 -0.00000000000E+00 -0.00000000000E+00 -0.29418229746E+03  0.29418229746E+03  0.00000000000E+00 0.  1.
         -6    2    1    2    0  503  0.73600076108E+02 -0.19109294976E+02 -0.22808114881E+03  0.29597249487E+03  0.17261683267E+03 0.  0.
        -24    2    3    3    0    0  0.54710436014E+02 -0.69278667322E+02 -0.20615355856E+03  0.23786316998E+03  0.79289547696E+02 0.  0.
          6    2    1    2  501    0 -0.73600076108E+02  0.19109294976E+02  0.24195711632E+03  0.30626806757E+03  0.17168210948E+03 0.  0.
         24    2    5    5    0    0 -0.30524924698E+01 -0.23348781634E+01  0.21201483494E+03  0.22654702685E+03  0.79740176665E+02 0.  0.
          5    1    5    5  501    0 -0.70547583638E+02  0.21444173140E+02  0.29942281387E+02  0.79721040720E+02  0.47000000000E+01 0. -1.
        -13    1    6    6    0    0 -0.81503414623E+01 -0.38459182467E+02  0.14511989768E+03  0.15035066174E+03  0.00000000000E+00 0.  1.
         14    1    6    6    0    0  0.50978489925E+01  0.36124304304E+02  0.66894937259E+02  0.76196365115E+02  0.00000000000E+00 0. -1.
         -5    1    3    3    0  503  0.18889640094E+02  0.50169372345E+02 -0.21927590250E+02  0.58109324885E+02  0.47000000000E+01 0.  1.
         13    1    4    4    0    0  0.21399451256E+02  0.10786064570E+02 -0.15845767201E+02  0.28729149677E+02  0.00000000000E+00 0. -1.
        -14    1    4    4    0    0  0.33310984758E+02 -0.80064731892E+02 -0.19030779136E+03  0.20913402031E+03  0.00000000000E+00 0.  1.
</event>
<event>
12    1  0.8133495E-002  0.1962749E+03  0.7818608E-02  0.1153012E+00
         21   -1    0    0  501  502  0.00000000000E+00  0.00000000000E+00  0.87543662793E+02  0.87543662793E+02  0.00000000000E+00 0.  1.
         21   -1    0    0  502  503 -0.00000000000E+00 -0.00000000000E+00 -0.12236593565E+04  0.12236593565E+04  0.00000000000E+00 0.  1.
         -6    2    1    2    0  503  0.87315155264E+02 -0.26510342166E+02 -0.10932313835E+04  0.11107109009E+04  0.17377316543E+03 0.  0.
        -24    2    3    3    0    0  0.73914458011E+02  0.18554674107E+02 -0.10037291499E+04  0.10095023331E+04  0.76257007586E+02 0.  0.
          6    2    1    2  501    0 -0.87315155264E+02  0.26510342166E+02 -0.42884310187E+02  0.20049211833E+03  0.17329538618E+03 0.  0.
         24    2    5    5    0    0 -0.98992881756E+02  0.34997620056E+01 -0.82840520815E+02  0.15269625174E+03  0.81496959664E+02 0.  0.
          5    1    5    5  501    0  0.11677726492E+02  0.23010580160E+02  0.39956210627E+02  0.47795866590E+02  0.47000000000E+01 0. -1.
        -11    1    6    6    0    0 -0.67248881149E+02  0.41253734063E+02 -0.48858445473E+02  0.92797792452E+02  0.00000000000E+00 0.  1.
         12    1    6    6    0    0 -0.31744000607E+02 -0.37753972058E+02 -0.33982075341E+02  0.59898459289E+02  0.00000000000E+00 0. -1.
         -5    1    3    3    0  503  0.13400697253E+02 -0.45065016273E+02 -0.89502233580E+02  0.10120856779E+03  0.47000000000E+01 0.  1.
         13    1    4    4    0    0  0.85585513925E+02  0.24097005701E+02 -0.71847168722E+03  0.72395242331E+03  0.00000000000E+00 0. -1.
        -14    1    4    4    0    0 -0.11671055914E+02 -0.55423315937E+01 -0.28525746268E+03  0.28554990983E+03  0.00000000000E+00 0.  1.
</event>
<event>
12    1  0.8133495E-002  0.1931655E+03  0.7818608E-02  0.1155768E+00
         21   -1    0    0  501  502  0.00000000000E+00  0.00000000000E+00  0.47821163817E+03  0.47821163817E+03  0.00000000000E+00 0. -1.
         21   -1    0    0  502  503 -0.00000000000E+00 -0.00000000000E+00 -0.18368431566E+03  0.18368431566E+03  0.00000000000E+00 0. -1.
         -6    2    1    2    0  503 -0.41960249892E+01  0.87064441844E+02 -0.10392522813E+03  0.21934759118E+03  0.17238065163E+03 0.  0.
        -24    2    3    3    0    0 -0.22071655379E+02  0.11388630740E+03 -0.11798603859E+03  0.18386876616E+03  0.80185839655E+02 0.  0.
          6    2    1    2  501    0  0.41960249892E+01 -0.87064441844E+02  0.39845255064E+03  0.44254836265E+03  0.17171719340E+03 0.  0.
         24    2    5    5    0    0 -0.67738406447E+01 -0.84606649664E+02  0.13482635958E+03  0.17864073239E+03  0.80809615435E+02 0.  0.
          5    1    5    5  501    0  0.10969865634E+02 -0.24577921805E+01  0.26362619106E+03  0.26390763026E+03  0.47000000000E+01 0. -1.
        -11    1    6    6    0    0  0.35407652108E+02 -0.32558270041E+02  0.40136503381E+02  0.62647279905E+02  0.00000000000E+00 0.  1.
         12    1    6    6    0    0 -0.42181492753E+02 -0.52048379623E+02  0.94689856203E+02  0.11599345249E+03  0.00000000000E+00 0. -1.
         -5    1    3    3    0  503  0.17875630389E+02 -0.26821865559E+02  0.14060810467E+02  0.35478825021E+02  0.47000000000E+01 0.  1.
         13    1    4    4    0    0 -0.31584038015E+02  0.12245917237E+03 -0.97405867862E+02  0.15962989522E+03  0.00000000000E+00 0. -1.
        -14    1    4    4    0    0  0.95123826364E+01 -0.85728649633E+01 -0.20580170732E+02  0.24238870940E+02  0.00000000000E+00 0.  1.
</event>
<event>
12    1  0.8133495E-002  0.1885348E+03  0.7818608E-02  0.1159830E+00
         21   -1    0    0  501  502  0.00000000000E+00  0.00000000000E+00  0.50086547027E+03  0.50086547027E+03  0.00000000000E+00 0.  1.
         21   -1    0    0  502  503 -0.00000000000E+00 -0.00000000000E+00 -0.10589330759E+03  0.10589330759E+03  0.00000000000E+00 0.  1.
         -6    2    1    2    0  503 -0.76892917641E+02  0.15471151738E+02  0.23024337879E+02  0.18975689063E+03  0.17124742359E+03 0.  0.
        -24    2    3    3    0    0  0.23399124433E+02 -0.84791932646E+01  0.11967970108E+02  0.85947228279E+02  0.81389667635E+02 0.  0.
          6    2    1    2  501    0  0.76892917641E+02 -0.15471151738E+02  0.37194782479E+03  0.41700188723E+03  0.17144536232E+03 0.  0.
         24    2    5    5    0    0  0.12567394933E+02 -0.45827662320E+01  0.60395504198E+02  0.98657312467E+02  0.76855105322E+02 0.  0.
          5    1    5    5  501    0  0.64325522708E+02 -0.10888385506E+02  0.31155232060E+03  0.31834457476E+03  0.47000000000E+01 0. -1.
        -11    1    6    6    0    0  0.32726564302E+02  0.23881047315E+02  0.19667179830E+02  0.45034768727E+02  0.00000000000E+00 0.  1.
         12    1    6    6    0    0 -0.20159169369E+02 -0.28463813547E+02  0.40728324368E+02  0.53622543740E+02  0.00000000000E+00 0. -1.
         -5    1    3    3    0  503 -0.10029204207E+03  0.23950345002E+02  0.11056367770E+02  0.10380966235E+03  0.47000000000E+01 0.  1.
         13    1    4    4    0    0  0.50376236070E+02 -0.89935135422E+01  0.23858647741E+02  0.56461345348E+02  0.00000000000E+00 0. -1.
        -14    1    4    4    0    0 -0.26977111638E+02  0.51432027762E+00 -0.11890677633E+02  0.29485882931E+02  0.00000000000E+00 0.  1.
</event>
<event>
12    1  0.8133495E-002  0.1764429E+03  0.7818608E-02  0.1171501E+00
         21   -1    0    0  501  502  0.00000000000E+00  0.00000000000E+00  0.28953145748E+03  0.28953145748E+03  0.00000000000E+00 0. -1.
         21   -1    0    0  502  503 -0.00000000000E+00 -0.00000000000E+00 -0.24324820894E+03  0.24324820894E+03  0.00000000000E+00 0. -1.
         -6    2    1    2    0  503  0.19709291412E+02  0.61074022891E+01 -0.17619400854E+03  0.24935203599E+03  0.17523228206E+03 0.  0.
        -24    2    3    3    0    0 -0.73846964776E+01  0.36714648260E+02 -0.18702340425E+03  0.20680496209E+03  0.79925211726E+02 0.  0.
          6    2    1    2  501    0 -0.19709291412E+02 -0.61074022891E+01  0.22247725708E+03  0.28342763043E+03  0.17438272634E+03 0.  0.
         24    2    5    5    0    0  0.56435481941E+02 -0.12684108871E+02  0.12120214152E+03  0.15646299516E+03  0.80279882321E+02 0.  0.
          5    1    5    5  501    0 -0.76144773353E+02  0.65767065824E+01  0.10127511556E+03  0.12696463527E+03  0.47000000000E+01 0. -1.
        -11    1    6    6    0    0  0.40581001912E+02  0.29355682805E+01  0.84756969805E+01  0.41560470601E+02  0.00000000000E+00 0.  1.
         12    1    6    6    0    0  0.15854480029E+02 -0.15619677152E+02  0.11272644454E+03  0.11490252456E+03  0.00000000000E+00 0. -1.
         -5    1    3    3    0  503  0.27093987890E+02 -0.30607245971E+02  0.10829395708E+02  0.42547073896E+02  0.47000000000E+01 0.  1.
         13    1    4    4    0    0 -0.19074681419E+02 -0.16799305366E+02 -0.10598822410E+03  0.10899341164E+03  0.00000000000E+00 0. -1.
        -14    1    4    4    0    0  0.11689984942E+02  0.53513953627E+02 -0.81035180150E+02  0.97811550457E+02  0.00000000000E+00 0.  1.
</event>
<event>
12    1  0.8133495E-002  0.1776756E+03  0.7818608E-02  0.1170174E+00
         21   -1    0    0  503  502  0.00000000000E+00  0.00000000000E+00  0.89156710805E+03  0.89156710805E+03  0.00000000000E+00 0. -1.
         21   -1    0    0  501  503 -0.00000000000E+00 -0.00000000000E+00 -0.41650217920E+02  0.41650217920E+02  0.00000000000E+00 0. -1.
          6    2    1    2  501    0 -0.66743018156E+01  0.42969867784E+02  0.24270263713E+03  0.30054222334E+03  0.17184324863E+03 0.  0.
         24    2    3    3    0    0 -0.10693979236E+02 -0.13562678479E+02  0.22681096696E+03  0.24149375364E+03  0.81103087941E+02 0.  0.
         -6    2    1    2    0  502  0.66743018156E+01 -0.42969867784E+02  0.60721425300E+03  0.63267510263E+03  0.17227211207E+03 0.  0.
        -24    2    5    5    0    0 -0.57813855693E+02 -0.49312436265E+02  0.33374333377E+03  0.35159258040E+03  0.80365238007E+02 0.  0.
          5    1    3    3  501    0  0.40196774207E+01  0.56532546263E+02  0.15891670169E+02  0.59048469704E+02  0.47000000000E+01 0. -1.
        -11    1    4    4    0    0  0.25611260175E+02  0.19669065472E+02  0.11236591992E+03  0.11691410841E+03  0.00000000000E+00 0.  1.
         12    1    4    4    0    0 -0.36305239412E+02 -0.33231743951E+02  0.11444504703E+03  0.12457964523E+03  0.00000000000E+00 0. -1.
         -5    1    5    5    0  502  0.64488157509E+02  0.63425684809E+01  0.27347091923E+03  0.28108252223E+03  0.47000000000E+01 0.  1.
         13    1    6    6    0    0 -0.36052286877E+01 -0.55512131743E+02  0.18360875129E+03  0.19185090043E+03  0.00000000000E+00 0. -1.
        -14    1    6    6    0    0 -0.54208627005E+02  0.61996954777E+01  0.15013458248E+03  0.15974167998E+03  0.00000000000E+00 0.  1.
</event>
<event>
12    1  0.8133495E-002  0.3018858E+03  0.7818608E-02  0.1084488E+00
         21   -1    0    0  501  502  0.00000000000E+00  0.00000000000E+00  0.19047310962E+04  0.19047310962E+04  0.00000000000E+00 0.  1.
         21   -1    0    0  502  503 -0.00000000000E+00 -0.00000000000E+00 -0.54766142162E+02  0.54766142162E+02  0.00000000000E+00 0. -1.
         -6    2    1    2    0  503  0.22898637708E+03  0.98310647625E+02  0.57281541193E+03  0.64749713921E+03  0.17039749065E+03 0.  0.
        -24    2    3    3    0    0  0.18496321539E+03  0.11116668701E+02  0.33958506670E+03  0.39459535460E+03  0.77797846841E+02 0.  0.
          6    2    1    2  501    0 -0.22898637708E+03 -0.98310647625E+02  0.12771495421E+04  0.13120000991E+04  0.16773062612E+03 0.  0.
         24    2    5    5    0    0 -0.73665726727E+02  0.22354383831E+01  0.60669828468E+03  0.61647080543E+03  0.80757716862E+02 0.  0.
          5    1    5    5  501    0 -0.15532065035E+03 -0.10054608601E+03  0.67045125742E+03  0.69552929372E+03  0.47000000000E+01 0. -1.
        -11    1    6    6    0    0 -0.58527791091E+02 -0.18338932927E+02  0.55907904813E+03  0.56243328569E+03  0.00000000000E+00 0.  1.
         12    1    6    6    0    0 -0.15137935636E+02  0.20574371310E+02  0.47619236546E+02  0.54037519738E+02  0.00000000000E+00 0. -1.
         -5    1    3    3    0  503  0.44023161689E+02  0.87193978924E+02  0.23323034523E+03  0.25290178462E+03  0.47000000000E+01 0.  1.
         13    1    4    4    0    0  0.14110574811E+03 -0.32642046944E+01  0.18156382187E+03  0.22997153866E+03  0.00000000000E+00 0. -1.
        -14    1    4    4    0    0  0.43857467279E+02  0.14380873395E+02  0.15802124482E+03  0.16462381593E+03  0.00000000000E+00 0.  1.
</event>
<event>
12    1  0.8133495E-002  0.2399811E+03  0.7818608E-02  0.1119864E+00
         21   -1    0    0  503  502  0.00000000000E+00  0.00000000000E+00  0.38461190830E+03  0.38461190830E+03  0.00000000000E+00 0. -1.
         21   -1    0    0  501  503 -0.00000000000E+00 -0.00000000000E+00 -0.72376834855E+03  0.72376834855E+03  0.00000000000E+00 0. -1.
          6    2    1    2  501    0  0.13121204535E+03 -0.10176674323E+03 -0.66324234402E+03  0.70532357001E+03  0.17325663232E+03 0.  0.
         24    2    3    3    0    0  0.44383596381E+02  0.36892953598E+01 -0.19439799601E+03  0.21696174894E+03  0.85430118346E+02 0.  0.
         -6    2    1    2    0  502 -0.13121204535E+03  0.10176674323E+03  0.32408590378E+03  0.40305668684E+03  0.17277137757E+03 0.  0.
        -24    2    5    5    0    0 -0.10649077752E+03  0.13403439928E+03  0.20081707902E+03  0.27317352447E+03  0.70645377457E+02 0.  0.
          5    1    3    3  501    0  0.86828448967E+02 -0.10545603859E+03 -0.46884434801E+03  0.48836182108E+03  0.47000000000E+01 0. -1.
        -11    1    4    4    0    0 -0.21580729491E+02  0.18844497258E+02 -0.59175784167E+02  0.65746607471E+02  0.00000000000E+00 0.  1.
         12    1    4    4    0    0  0.65964325872E+02 -0.15155201898E+02 -0.13522221184E+03  0.15121514146E+03  0.00000000000E+00 0. -1.
         -5    1    5    5    0  502 -0.24721267824E+02 -0.32267656055E+02  0.12326882476E+03  0.12988316237E+03  0.47000000000E+01 0.  1.
         11    1    6    6    0    0 -0.43484926809E+02  0.36105272021E+02  0.11624070007E+03  0.12925335540E+03  0.00000000000E+00 0. -1.
        -12    1    6    6    0    0 -0.63005850715E+02  0.97929127261E+02  0.84576378943E+02  0.14392016907E+03  0.00000000000E+00 0.  1.
</event>
<event>
12    1  0.8133495E-002  0.2495385E+03  0.7818608E-02  0.1113731E+00
         21   -1    0    0  503  502  0.00000000000E+00  0.00000000000E+00  0.22125896574E+03  0.22125896574E+03  0.00000000000E+00 0.  1.
         21   -1    0    0  501  503 -0.00000000000E+00 -0.00000000000E+00 -0.72575136695E+03  0.72575136695E+03  0.00000000000E+00 0.  1.
          6    2    1    2  501    0 -0.14371232555E+03 -0.11396397767E+03 -0.62330005901E+03  0.67139589094E+03  0.16919946246E+03 0.  0.
         24    2    3    3    0    0 -0.15518765179E+03 -0.57212173577E+02 -0.39757036170E+03  0.43831127835E+03  0.81842190547E+02 0.  0.
         -6    2    1    2    0  502  0.14371232555E+03  0.11396397767E+03  0.11880765780E+03  0.27561444174E+03  0.16794951689E+03 0.  0.
        -24    2    5    5    0    0  0.12072361957E+03  0.11513943387E+03  0.36556456129E+02  0.19007373520E+03  0.83428824589E+02 0.  0.
          5    1    3    3  501    0  0.11475326245E+02 -0.56751804098E+02 -0.22572969731E+03  0.23308461259E+03  0.47000000000E+01 0. -1.
        -11    1    4    4    0    0 -0.60518097783E+02 -0.64591186043E+02 -0.16833595405E+03  0.19018794625E+03  0.00000000000E+00 0.  1.
         12    1    4    4    0    0 -0.94669554011E+02  0.73790124661E+01 -0.22923440765E+03  0.24812333210E+03  0.00000000000E+00 0. -1.
         -5    1    5    5    0  502  0.22988705980E+02 -0.11754561993E+01  0.82251201670E+02  0.85540706544E+02  0.47000000000E+01 0.  1.
         13    1    6    6    0    0  0.21932473531E+02 -0.12371546333E+02  0.63014976524E+01  0.25957608258E+02  0.00000000000E+00 0. -1.
        -14    1    6    6    0    0  0.98791146038E+02  0.12751098021E+03  0.30254958476E+02  0.16411612694E+03  0.00000000000E+00 0.  1.
</event>
<event>
12    1  0.8133495E-002  0.1907758E+03  0.7818608E-02  0.1157870E+00
         21   -1    0    0  503  502  0.00000000000E+00  0.00000000000E+00  0.88636992770E+02  0.88636992770E+02  0.00000000000E+00 0. -1.
         21   -1    0    0  501  503 -0.00000000000E+00 -0.00000000000E+00 -0.42741213752E+03  0.42741213752E+03  0.00000000000E+00 0.  1.
          6    2    1    2  501    0  0.47485108690E+01  0.78586093554E+02 -0.11690299706E+03  0.22374472373E+03  0.17377303651E+03 0.  0.
         24    2    3    3    0    0 -0.51572698251E+02  0.60765296726E+01 -0.54349185465E+02  0.11254766983E+03  0.83764411330E+02 0.  0.
         -6    2    1    2    0  502 -0.47485108690E+01 -0.78586093554E+02 -0.22187214769E+03  0.29230440657E+03  0.17325211029E+03 0.  0.
        -24    2    5    5    0    0 -0.56021225884E+02 -0.90473663213E+02 -0.18518924075E+03  0.22797765257E+03  0.79717587133E+02 0.  0.
          5    1    3    3  501    0  0.56321209120E+02  0.72509563881E+02 -0.62553811595E+02  0.11119705390E+03  0.47000000000E+01 0. -1.
        -11    1    4    4    0    0 -0.68072917883E+02  0.24504346259E+02 -0.48587539939E+02  0.87150066965E+02  0.00000000000E+00 0.  1.
         12    1    4    4    0    0  0.16500219632E+02 -0.18427816586E+02 -0.57616455253E+01  0.25397602863E+02  0.00000000000E+00 0. -1.
         -5    1    5    5    0  502  0.51272715015E+02  0.11887569659E+02 -0.36682906944E+02  0.64326753993E+02  0.47000000000E+01 0.  1.
         13    1    6    6    0    0 -0.21554847246E+02  0.39308832289E+01 -0.63117106243E+01  0.22801337104E+02  0.00000000000E+00 0. -1.
        -14    1    6    6    0    0 -0.34466378639E+02 -0.94404546442E+02 -0.17887753013E+03  0.20517631547E+03  0.00000000000E+00 0.  1.
</event>
<event>
12    1  0.8133495E-002  0.3326131E+03  0.7818608E-02  0.1070113E+00
         21   -1    0    0  503  502  0.00000000000E+00  0.00000000000E+00  0.57864033870E+03  0.57864033870E+03  0.00000000000E+00 0.  1.
         21   -1    0    0  501  503 -0.00000000000E+00 -0.00000000000E+00 -0.22206021558E+03  0.22206021558E+03  0.00000000000E+00 0. -1.
          6    2    1    2  501    0 -0.24140706964E+03  0.15044397762E+03  0.27692474264E+02  0.33376394954E+03  0.17239703364E+03 0.  0.
         24    2    3    3    0    0 -0.24692906752E+03  0.17013996694E+03  0.37352620954E+02  0.31065912558E+03  0.72057624712E+02 0.  0.
         -6    2    1    2    0  502  0.24140706964E+03 -0.15044397762E+03  0.32888764885E+03  0.46693660475E+03  0.17015270674E+03 0.  0.
        -24    2    5    5    0    0  0.19091649635E+03 -0.12000496958E+03  0.33029765010E+03  0.40777657343E+03  0.79592052839E+02 0.  0.
          5    1    3    3  501    0  0.55219978802E+01 -0.19695989323E+02 -0.96601466903E+01  0.23104823957E+02  0.47000000000E+01 0. -1.
        -11    1    4    4    0    0 -0.73138369403E+01  0.24463401921E+02 -0.76348163272E+01  0.26650340799E+02  0.00000000000E+00 0.  1.
         12    1    4    4    0    0 -0.23961523058E+03  0.14567656502E+03  0.44987437281E+02  0.28400878478E+03  0.00000000000E+00 0. -1.
         -5    1    5    5    0  502  0.50490573291E+02 -0.30439008036E+02 -0.14100012486E+01  0.59160031314E+02  0.47000000000E+01 0.  1.
         11    1    6    6    0    0 -0.73404733099E+01 -0.92288723078E+01  0.12656870379E+02  0.17298872804E+02  0.00000000000E+00 0. -1.
        -12    1    6    6    0    0  0.19825696966E+03 -0.11077609727E+03  0.31764077972E+03  0.39047770063E+03  0.00000000000E+00 0.  1.
</event>
<event>
12    1  0.8133495E-002  0.2275698E+03  0.7818608E-02  0.1128771E+00
         21   -1    0    0  503  502  0.00000000000E+00  0.00000000000E+00  0.16915196176E+03  0.16915196176E+03  0.00000000000E+00 0.  1.
         21   -1    0    0  501  503 -0.00000000000E+00 -0.00000000000E+00 -0.31136583276E+03  0.31136583276E+03  0.00000000000E+00 0. -1.
          6    2    1    2  501    0  0.14572054584E+03  0.21323536293E+02 -0.11059874181E+03  0.25302189267E+03  0.17349013172E+03 0.  0.
         24    2    3    3    0    0  0.16284387652E+03  0.44282129784E+02 -0.62289718505E+02  0.19666448676E+03  0.79485068948E+02 0.  0.
         -6    2    1    2    0  502 -0.14572054584E+03 -0.21323536293E+02 -0.31615129196E+02  0.22749590185E+03  0.17048665134E+03 0.  0.
        -24    2    5    5    0    0 -0.10777431122E+03 -0.54043007254E+02 -0.75878012533E+02  0.16047520845E+03  0.73884172535E+02 0.  0.
          5    1    3    3  501    0 -0.17123330677E+02 -0.22958593491E+02 -0.48309023301E+02  0.56357405910E+02  0.47000000000E+01 0. -1.
        -13    1    4    4    0    0  0.10129702315E+03  0.66233119952E+02 -0.44398794127E+02  0.12891534431E+03  0.00000000000E+00 0.  1.
         14    1    4    4    0    0  0.61546853366E+02 -0.21950990169E+02 -0.17890924378E+02  0.67749142457E+02  0.00000000000E+00 0. -1.
         -5    1    5    5    0  502 -0.37946234621E+02  0.32719470960E+02  0.44262883337E+02  0.67020693395E+02  0.47000000000E+01 0.  1.
         11    1    6    6    0    0 -0.16320511455E+02 -0.35323813257E+02  0.19164790908E+01  0.38959001132E+02  0.00000000000E+00 0. -1.
        -12    1    6    6    0    0 -0.91453799763E+02 -0.18719193997E+02 -0.77794491624E+02  0.12151620732E+03  0.00000000000E+00 0.  1.
</event>
<event>
12    1  0.8133495E-002  0.1957862E+03  0.7818608E-02  0.1153614E+00
         21   -1    0    0  503  502  0.00000000000E+00  0.00000000000E+00  0.25538329904E+03  0.25538329904E+03  0.00000000000E+00 0.  1.
         21   -1    0    0  501  503 -0.00000000000E+00 -0.00000000000E+00 -0.15243221042E+03  0.15243221042E+03  0.00000000000E+00 0.  1.
          6    2    1    2  501    0 -0.12961873501E+02  0.90617424112E+02  0.21373316742E+02  0.19571368551E+03  0.17166100405E+03 0.  0.
         24    2    3    3    0    0  0.44389655657E+02  0.80359381170E+02  0.49078555114E+02  0.13102910022E+03  0.79572915366E+02 0.  0.
         -6    2    1    2    0  502  0.12961873501E+02 -0.90617424112E+02  0.81577771872E+02  0.21210182395E+03  0.17306855041E+03 0.  0.
        -24    2    5    5    0    0  0.66544655293E+02 -0.61480226939E+02  0.14435659038E+02  0.12127096972E+03  0.79311098799E+02 0.  0.
          5    1    3    3  501    0 -0.57351529158E+02  0.10258042942E+02 -0.27705238371E+02  0.64684585297E+02  0.47000000000E+01 0. -1.
        -11    1    4    4    0    0 -0.84799172110E+01  0.65084094194E+02  0.19077111283E+02  0.68350453458E+02  0.00000000000E+00 0.  1.
         12    1    4    4    0    0  0.52869572868E+02  0.15275286976E+02  0.30001443831E+02  0.62678646758E+02  0.00000000000E+00 0. -1.
         -5    1    5    5    0  502 -0.53582781792E+02 -0.29137197174E+02  0.67142112834E+02  0.90830854227E+02  0.47000000000E+01 0.  1.
         11    1    6    6    0    0  0.46913879523E+02 -0.18594506153E+02  0.42854629814E+02  0.66205642112E+02  0.00000000000E+00 0. -1.
        -12    1    6    6    0    0  0.19630775770E+02 -0.42885720786E+02 -0.28418970777E+02  0.55065327609E+02  0.00000000000E+00 0.  1.
</event>
<event>
12    1  0.8133495E-002  0.1944791E+03  0.7818608E-02  0.1154484E+00
         21   -1    0    0  503  502  0.00000000000E+00  0.00000000000E+00  0.76130313715E+03  0.76130313715E+03  0.00000000000E+00 0.  1.
         21   -1    0    0  501  503 -0.00000000000E+00 -0.00000000000E+00 -0.56108347742E+02  0.56108347742E+02  0.00000000000E+00 0.  1.
          6    2    1    2  501    0 -0.37758769029E+02  0.82121462403E+02  0.21425086143E+03  0.28935368608E+03  0.17219891055E+03 0.  0.
         24    2    3    3    0    0 -0.49813791100E+02  0.58246151822E+02  0.23241439476E+03  0.25668324140E+03  0.77432599961E+02 0.  0.
         -6    2    1    2    0  502  0.37758769029E+02 -0.82121462403E+02  0.49094392797E+03  0.52805779881E+03  0.17219012530E+03 0.  0.
        -24    2    5    5    0    0 -0.17204189742E+02 -0.31737666955E+02  0.11266634944E+03  0.14247321652E+03  0.79382916812E+02 0.  0.
          5    1    3    3  501    0  0.12055022072E+02  0.23875310581E+02 -0.18163533328E+02  0.32670444678E+02  0.47000000000E+01 0. -1.
        -11    1    4    4    0    0 -0.36665865705E+02  0.58034370769E+02  0.87695636552E+02  0.11136830145E+03  0.00000000000E+00 0.  1.
         12    1    4    4    0    0 -0.13147925395E+02  0.21178105262E+00  0.14471875821E+03  0.14531493994E+03  0.00000000000E+00 0. -1.
         -5    1    5    5    0  502  0.54962958770E+02 -0.50383795448E+02  0.37827757854E+03  0.38558458230E+03  0.47000000000E+01 0.  1.
         11    1    6    6    0    0  0.26503278368E+02 -0.23220726755E+02  0.22214975583E+02  0.41654904338E+02  0.00000000000E+00 0. -1.
        -12    1    6    6    0    0 -0.43707468110E+02 -0.85169401999E+01  0.90451373854E+02  0.10081831218E+03  0.00000000000E+00 0.  1.
</event>
<event>
12    1  0.8133495E-002  0.1969037E+03  0.7818608E-02  0.1152770E+00
         21   -1    0    0  501  502  0.00000000000E+00  0.00000000000E+00  0.42538513363E+03  0.42538513363E+03  0.00000000000E+00 0. -1.
         21   -1    0    0  502  503 -0.00000000000E+00 -0.00000000000E+00 -0.16694137817E+03  0.16694137817E+03  0.00000000000E+00 0.  1.
         -6    2    1    2    0  503  0.93715137326E+02  0.20028878106E+02 -0.71114411442E+02  0.20935212848E+03  0.17200979990E+03 0.  0.
        -24    2    3    3    0    0  0.10852030499E+03 -0.29465918600E+02 -0.73338000397E+02  0.15742947217E+03  0.82223351008E+02 0.  0.
          6    2    1    2  501    0 -0.93715137326E+02 -0.20028878106E+02  0.32955816690E+03  0.38297438332E+03  0.16993266310E+03 0.  0.
         24    2    5    5    0    0 -0.90736438790E+02 -0.73607006638E+02  0.21388253408E+03  0.25537175588E+03  0.76275176603E+02 0.  0.
          5    1    5    5  501    0 -0.29786985359E+01  0.53578128533E+02  0.11567563283E+03  0.12760262745E+03  0.47000000000E+01 0. -1.
        -13    1    6    6    0    0  0.80666076295E+01 -0.93946646749E+01  0.61548319092E+02  0.62781569477E+02  0.00000000000E+00 0.  1.
         14    1    6    6    0    0 -0.98803046420E+02 -0.64212341963E+02  0.15233421498E+03  0.19259018640E+03  0.00000000000E+00 0. -1.
         -5    1    3    3    0  503 -0.14805167662E+02  0.49494796706E+02  0.22235889549E+01  0.51922656310E+02  0.47000000000E+01 0.  1.
         13    1    4    4    0    0  0.37835660994E+00 -0.27153001804E+02 -0.75343792489E+00  0.27166087855E+02  0.00000000000E+00 0. -1.
        -14    1    4    4    0    0  0.10814194838E+03 -0.23129167966E+01 -0.72584562472E+02  0.13026338431E+03  0.00000000000E+00 0.  1.
</event>
<event>
12    1  0.8133495E-002  0.1917202E+03  0.7818608E-02  0.1157518E+00
         21   -1    0    0  501  502  0.00000000000E+00  0.00000000000E+00  0.31635914814E+03  0.31635914814E+03  0.00000000000E+00 0. -1.
         21   -1    0    0  502  503 -0.00000000000E+00 -0.00000000000E+00 -0.11640952031E+03  0.11640952031E+03  0.00000000000E+00 0. -1.
         -6    2    1    2    0  503  0.80665064375E+02  0.25830034236E+02  0.72112847265E+02  0.20233672111E+03  0.16901432687E+03 0.  0.
        -24    2    3    3    0    0  0.16778858663E+02  0.50318912238E+02  0.90273540646E+02  0.13139270649E+03  0.79380149605E+02 0.  0.
          6    2    1    2  501    0 -0.80665064375E+02 -0.25830034236E+02  0.12783678056E+03  0.23043194734E+03  0.17199592034E+03 0.  0.
         24    2    5    5    0    0 -0.11931555438E+03 -0.37643208202E+02  0.82033580803E+02  0.16916666708E+03  0.78959738041E+02 0.  0.
          5    1    5    5  501    0  0.38650490008E+02  0.11813173966E+02  0.45803199760E+02  0.61265280259E+02  0.47000000000E+01 0. -1.
        -11    1    6    6    0    0 -0.70444780052E+02 -0.91757470615E+01  0.18758438698E+01  0.71064619614E+02  0.00000000000E+00 0.  1.
         12    1    6    6    0    0 -0.48870774330E+02 -0.28467461141E+02  0.80157736933E+02  0.98102047469E+02  0.00000000000E+00 0. -1.
         -5    1    3    3    0  503  0.63886205711E+02 -0.24488878001E+02 -0.18160693381E+02  0.70944014617E+02  0.47000000000E+01 0.  1.
         13    1    4    4    0    0  0.44167570490E+02  0.50296677328E+02  0.72845287371E+02  0.98929095445E+02  0.00000000000E+00 0. -1.
        -14    1    4    4    0    0 -0.27388711827E+02  0.22234909498E-01  0.17428253274E+02  0.32463611046E+02  0.00000000000E+00 0.  1.
</event>
<event>
12    1  0.8133495E-002  0.2635926E+03  0.7818608E-02  0.1105085E+00
         21   -1    0    0  503  502  0.00000000000E+00  0.00000000000E+00  0.56379798124E+03  0.56379798124E+03  0.00000000000E+00 0. -1.
         21   -1    0    0  501  503 -0.00000000000E+00 -0.00000000000E+00 -0.18984584263E+03  0.18984584263E+03  0.00000000000E+00 0.  1.
          6    2    1    2  501    0 -0.50227588353E+01  0.19876551469E+03 -0.36529055728E+02  0.26611170864E+03  0.17305522709E+03 0.  0.
         24    2    3    3    0    0  0.43117248066E+02  0.18136018527E+03 -0.14889018786E+01  0.20389990800E+03  0.82597468313E+02 0.  0.
         -6    2    1    2    0  502  0.50227588353E+01 -0.19876551469E+03  0.41048119433E+03  0.48753211524E+03  0.17222019205E+03 0.  0.
        -24    2    5    5    0    0  0.27726129250E+02 -0.14779668133E+03  0.16890249787E+03  0.23954900778E+03  0.79013138679E+02 0.  0.
          5    1    3    3  501    0 -0.48140006901E+02  0.17405329427E+02 -0.35040153849E+02  0.62211800638E+02  0.47000000000E+01 0. -1.
        -13    1    4    4    0    0  0.11618399547E+02  0.42529721385E+02 -0.36571180109E+02  0.57281896125E+02  0.00000000000E+00 0.  1.
         14    1    4    4    0    0  0.31498848519E+02  0.13883046388E+03  0.35082278230E+02  0.14661801187E+03  0.00000000000E+00 0. -1.
         -5    1    5    5    0  502 -0.22703370415E+02 -0.50968833362E+02  0.24157869646E+03  0.24798310746E+03  0.47000000000E+01 0.  1.
         11    1    6    6    0    0  0.38750708331E+02 -0.63680869280E+02  0.12101290312E+03  0.14213019816E+03  0.00000000000E+00 0. -1.
        -12    1    6    6    0    0 -0.11024579081E+02 -0.84115812052E+02  0.47889594752E+02  0.97418809614E+02  0.00000000000E+00 0.  1.
</event>
<event>
12    1  0.8133495E-002  0.1826114E+03  0.7818608E-02  0.1166415E+00
         21   -1    0    0  503  502  0.00000000000E+00  0.00000000000E+00  0.15702707116E+04  0.15702707116E+04  0.00000000000E+00 0. -1.
         21   -1    0    0  501  503 -0.00000000000E+00 -0.00000000000E+00 -0.25728355109E+02  0.25728355109E+02  0.00000000000E+00 0. -1.
          6    2    1    2  501    0  0.41568216661E+02  0.95552835957E+00  0.41156281731E+03  0.44839740798E+03  0.17305332479E+03 0.  0.
         24    2    3    3    0    0  0.47120905274E+02  0.63534256298E+02  0.22610976406E+03  0.25253558296E+03  0.79947569190E+02 0.  0.
         -6    2    1    2    0  502 -0.41568216661E+02 -0.95552835957E+00  0.11329795392E+04  0.11476016587E+04  0.17781479479E+03 0.  0.
        -24    2    5    5    0    0 -0.22618991043E+02  0.38610313743E+01  0.11214733925E+04  0.11244337108E+04  0.78243681120E+02 0.  0.
          5    1    3    3  501    0 -0.55526886134E+01 -0.62578727938E+02  0.18545305325E+03  0.19586182502E+03  0.47000000000E+01 0. -1.
        -13    1    4    4    0    0  0.62592341345E+02  0.45655244867E+02  0.11317523722E+03  0.13715260441E+03  0.00000000000E+00 0.  1.
         14    1    4    4    0    0 -0.15471436071E+02  0.17879011430E+02  0.11293452685E+03  0.11538297855E+03  0.00000000000E+00 0. -1.
         -5    1    5    5    0  502 -0.18949225618E+02 -0.48165597339E+01  0.11506146705E+02  0.23167947928E+02  0.47000000000E+01 0.  1.
         13    1    6    6    0    0  0.51615564444E+01 -0.18324800432E+01  0.98641890579E+03  0.98643411202E+03  0.00000000000E+00 0. -1.
        -14    1    6    6    0    0 -0.27780547487E+02  0.56935114175E+01  0.13505448669E+03  0.13799959879E+03  0.00000000000E+00 0.  1.
</event>
<event>
12    1  0.8133495E-002  0.2303326E+03  0.7818608E-02  0.1126959E+00
         21   -1    0    0  501  502  0.00000000000E+00  0.00000000000E+00  0.57225160364E+02  0.57225160364E+02  0.00000000000E+00 0.  1.
         21   -1    0    0  502  503 -0.00000000000E+00 -0.00000000000E+00 -0.14212605202E+04  0.14212605202E+04  0.00000000000E+00 0.  1.
         -6    2    1    2    0  503 -0.13550925026E+03 -0.62954435786E+02 -0.11264062373E+04  0.11497147905E+04  0.17529138622E+03 0.  0.
        -24    2    3    3    0    0 -0.55170510002E+02 -0.81519373026E+02 -0.89831747926E+03  0.90713379033E+03  0.78919114665E+02 0.  0.
          6    2    1    2  501    0  0.13550925026E+03  0.62954435786E+02 -0.23762912252E+03  0.32877089009E+03  0.17116273079E+03 0.  0.
         24    2    5    5    0    0  0.63002212664E+02 -0.31010533048E+02 -0.12772565930E+03  0.16694522125E+03  0.81399821212E+02 0.  0.
          5    1    5    5  501    0  0.72507037592E+02  0.93964968834E+02 -0.10990346322E+03  0.16182566884E+03  0.47000000000E+01 0. -1.
        -11    1    6    6    0    0  0.71057270866E+02  0.30803942137E+01 -0.72617904951E+02  0.10164637077E+03  0.00000000000E+00 0.  1.
         12    1    6    6    0    0 -0.80550582018E+01 -0.34090927261E+02 -0.55107754349E+02  0.65298850477E+02  0.00000000000E+00 0. -1.
         -5    1    3    3    0  503 -0.80338740254E+02  0.18564937240E+02 -0.22808875805E+03  0.24258100014E+03  0.47000000000E+01 0.  1.
         11    1    4    4    0    0  0.23057009307E+00  0.14700422959E+02 -0.13163567187E+03  0.13245416455E+03  0.00000000000E+00 0. -1.
        -12    1    4    4    0    0 -0.55401080095E+02 -0.96219795985E+02 -0.76668180739E+03  0.77467962578E+03  0.00000000000E+00 0.  1.
</event>
<event>
12    1  0.8133495E-002  0.1943419E+03  0.7818608E-02  0.1155533E+00
         21   -1    0    0  503  502  0.00000000000E+00  0.00000000000E+00  0.88752914766E+03  0.88752914766E+03  0.00000000000E+00 0.  1.
         21   -1    0    0  501  503 -0.00000000000E+00 -0.00000000000E+00 -0.61354134449E+02  0.61354134449E+02  0.00000000000E+00 0.  1.
          6    2    1    2  501    0  0.44440030870E+02 -0.51579403738E+02  0.14722741768E+03  0.24381284125E+03  0.18202592619E+03 0.  0.
         24    2    3    3    0    0 -0.12523812879E+02  0.26708092344E+02  0.11628913673E+03  0.14206276132E+03  0.76082171011E+02 0.  0.
         -6    2    1    2    0  502 -0.44440030870E+02  0.51579403738E+02  0.67894759553E+03  0.70507044086E+03  0.17753630015E+03 0.  0.
        -24    2    5    5    0    0 -0.41011340586E+02  0.10407726902E+03  0.47342643209E+03  0.49287048705E+03  0.79213145494E+02 0.  0.
          5    1    3    3  501    0  0.56963843749E+02 -0.78287496082E+02  0.30938280951E+02  0.10175007993E+03  0.47000000000E+01 0. -1.
        -13    1    4    4    0    0  0.13780382683E+02  0.20561264698E+02  0.22343061624E+01  0.24852699589E+02  0.00000000000E+00 0.  1.
         14    1    4    4    0    0 -0.26304195562E+02  0.61468276460E+01  0.11405483057E+03  0.11721006173E+03  0.00000000000E+00 0. -1.
         -5    1    5    5    0  502 -0.34286902849E+01 -0.52497865287E+02  0.20552116343E+03  0.21219995381E+03  0.47000000000E+01 0.  1.
         13    1    6    6    0    0  0.22223700635E+02  0.12503987928E+02  0.10131503148E+03  0.10447477298E+03  0.00000000000E+00 0. -1.
        -14    1    6    6    0    0 -0.63235041221E+02  0.91573281097E+02  0.37211140061E+03  0.38839571408E+03  0.00000000000E+00 0.  1.
</event>
<event>
12    1  0.8133495E-002  0.1839651E+03  0.7818608E-02  0.1164617E+00
         21   -1    0    0  501  502  0.00000000000E+00  0.00000000000E+00  0.43282029359E+03  0.43282029359E+03  0.00000000000E+00 0.  1.
         21   -1    0    0  502  503 -0.00000000000E+00 -0.00000000000E+00 -0.46074299439E+03  0.46074299439E+03  0.00000000000E+00 0.  1.
         -6    2    1    2    0  503 -0.53692139535E+02  0.33333301223E+02 -0.42161976223E+03  0.45900543906E+03  0.17008472701E+03 0.  0.
        -24    2    3    3    0    0 -0.22042365270E+02  0.83873711918E+02 -0.31766297663E+03  0.33906735254E+03  0.80847000081E+02 0.  0.
          6    2    1    2  501    0  0.53692139535E+02 -0.33333301223E+02  0.39369706143E+03  0.43455784892E+03  0.17276919013E+03 0.  0.
         24    2    5    5    0    0  0.61340784832E+02 -0.51048444804E+00  0.11031905206E+03  0.14914406987E+03  0.79439963823E+02 0.  0.
          5    1    5    5  501    0 -0.76486452974E+01 -0.32822816775E+02  0.28337800937E+03  0.28541377904E+03  0.47000000000E+01 0. -1.
        -11    1    6    6    0    0  0.52533734789E+01  0.19150632141E+02  0.79992108474E+02  0.82420155680E+02  0.00000000000E+00 0.  1.
         12    1    6    6    0    0  0.56087411353E+02 -0.19661116589E+02  0.30326943591E+02  0.66723914194E+02  0.00000000000E+00 0. -1.
         -5    1    3    3    0  503 -0.31649774265E+02 -0.50540410695E+02 -0.10395678560E+03  0.11993808652E+03  0.47000000000E+01 0.  1.
         13    1    4    4    0    0  0.23173300293E+02  0.48163497887E+02 -0.94308908748E+02  0.10840154355E+03  0.00000000000E+00 0. -1.
        -14    1    4    4    0    0 -0.45215665563E+02  0.35710214031E+02 -0.22335406788E+03  0.23066580899E+03  0.00000000000E+00 0.  1.
</event>
<event>
12    1  0.8133495E-002  0.2391194E+03  0.7818608E-02  0.1120394E+00
         21   -1    0    0  501  502  0.00000000000E+00  0.00000000000E+00  0.93735229396E+03  0.93735229396E+03  0.00000000000E+00 0.  1.
         21   -1    0    0  502  503 -0.00000000000E+00 -0.00000000000E+00 -0.69059435838E+02  0.69059435838E+02  0.00000000000E+00 0. -1.
         -6    2    1    2    0  503 -0.13098200772E+03  0.10266255204E+03  0.26208732090E+03  0.35477861940E+03  0.17170387027E+03 0.  0.
        -24    2    3    3    0    0 -0.58712087660E+02  0.58770567033E+01  0.49963463761E+02  0.11062908690E+03  0.79125205362E+02 0.  0.
          6    2    1    2  501    0  0.13098200772E+03 -0.10266255204E+03  0.60620553722E+03  0.65163311041E+03  0.17159449664E+03 0.  0.
         24    2    5    5    0    0  0.14215751841E+03 -0.72532346070E+02  0.34254454708E+03  0.38597933370E+03  0.78572120036E+02 0.  0.
          5    1    5    5  501    0 -0.11175510690E+02 -0.30130205966E+02  0.26366099015E+03  0.26565377670E+03  0.47000000000E+01 0. -1.
        -13    1    6    6    0    0  0.23113633297E+01 -0.78504847707E+01  0.88381984898E+02  0.88760057267E+02  0.00000000000E+00 0.  1.
         14    1    6    6    0    0  0.13984615508E+03 -0.64681861300E+02  0.25416256218E+03  0.29721927643E+03  0.00000000000E+00 0. -1.
         -5    1    3    3    0  503 -0.72269920058E+02  0.96785495333E+02  0.21212385714E+03  0.24414953250E+03  0.47000000000E+01 0.  1.
         13    1    4    4    0    0 -0.30316774036E+02  0.42442207860E+02  0.22533451758E+02  0.56817288251E+02  0.00000000000E+00 0. -1.
        -14    1    4    4    0    0 -0.28395313623E+02 -0.36565151157E+02  0.27430012003E+02  0.53811798645E+02  0.00000000000E+00 0.  1.
</event>
<event>
12    1  0.8133495E-002  0.2120622E+03  0.7818608E-02  0.1141161E+00
         21   -1    0    0  501  502  0.00000000000E+00  0.00000000000E+00  0.68510053902E+02  0.68510053902E+02  0.00000000000E+00 0.  1.
         21   -1    0    0  502  503 -0.00000000000E+00 -0.00000000000E+00 -0.78830664038E+03  0.78830664038E+03  0.00000000000E+00 0. -1.
         -6    2    1    2    0  503  0.10106394531E+03 -0.52590083379E+02 -0.54295256242E+03  0.58069320792E+03  0.17154439300E+03 0.  0.
        -24    2    3    3    0    0  0.13209966054E+03 -0.54926474428E+02 -0.50715461007E+03  0.53302500325E+03  0.80265918493E+02 0.  0.
          6    2    1    2  501    0 -0.10106394531E+03  0.52590083379E+02 -0.17684402405E+03  0.27612348636E+03  0.17885953418E+03 0.  0.
         24    2    5    5    0    0 -0.11487437510E+03  0.49082257566E+02 -0.54480957968E+02  0.15284395540E+03  0.69194724211E+02 0.  0.
          5    1    5    5  501    0  0.13810429792E+02  0.35078258135E+01 -0.12236306608E+03  0.12327953096E+03  0.47000000000E+01 0. -1.
        -11    1    6    6    0    0 -0.92554153704E+02  0.62283389065E+02 -0.26438967139E+02  0.11464951332E+03  0.00000000000E+00 0.  1.
         12    1    6    6    0    0 -0.22320221396E+02 -0.13201131500E+02 -0.28041990828E+02  0.38194442078E+02  0.00000000000E+00 0. -1.
         -5    1    3    3    0  503 -0.31035715232E+02  0.23363910487E+01 -0.35797952353E+02  0.47668204663E+02  0.47000000000E+01 0.  1.
         11    1    4    4    0    0  0.10063013453E+03 -0.59095393065E+00 -0.28933343459E+03  0.30633414693E+03  0.00000000000E+00 0. -1.
        -12    1    4    4    0    0  0.31469526011E+02 -0.54335520497E+02 -0.21782117548E+03  0.22669085633E+03  0.00000000000E+00 0.  1.
</event>
<event>
12    1  0.8133495E-002  0.1805643E+03  0.7818608E-02  0.1167521E+00
         21   -1    0    0  503  502  0.00000000000E+00  0.00000000000E+00  0.32616939576E+02  0.32616939576E+02  0.00000000000E+00 0. -1.
         21   -1    0    0  501  503 -0.00000000000E+00 -0.00000000000E+00 -0.14877835802E+04  0.14877835802E+04  0.00000000000E+00 0. -1.
          6    2    1    2  501    0 -0.26760277294E+02  0.46344377889E+02 -0.11642540388E+04  0.11780066007E+04  0.17131307775E+03 0.  0.
         24    2    3    3    0    0  0.31342711352E+02  0.30073321066E+01 -0.89488879354E+03  0.89901953615E+03  0.80117189012E+02 0.  0.
         -6    2    1    2    0  502  0.26760277294E+02 -0.46344377889E+02 -0.29091260180E+03  0.34239391906E+03  0.17245155877E+03 0.  0.
        -24    2    5    5    0    0 -0.36877094462E+02 -0.70523658263E+02 -0.16564282158E+03  0.19974413631E+03  0.78273042468E+02 0.  0.
          5    1    3    3  501    0 -0.58102988646E+02  0.43337045783E+02 -0.26936524524E+03  0.27898706452E+03  0.47000000000E+01 0. -1.
        -13    1    4    4    0    0  0.26719611085E+02 -0.34321114846E+02 -0.32603288965E+03  0.32892145213E+03  0.00000000000E+00 0.  1.
         14    1    4    4    0    0  0.46231002669E+01  0.37328446952E+02 -0.56885590389E+03  0.57009808402E+03  0.00000000000E+00 0. -1.
         -5    1    5    5    0  502  0.63637371756E+02  0.24179280374E+02 -0.12526978022E+03  0.14264978276E+03  0.47000000000E+01 0.  1.
         13    1    6    6    0    0  0.14937128771E+02 -0.49484463372E+02 -0.10631147549E+03  0.11821150431E+03  0.00000000000E+00 0. -1.
        -14    1    6    6    0    0 -0.51814223233E+02 -0.21039194891E+02 -0.59331346088E+02  0.81532631992E+02  0.00000000000E+00 0.  1.
</event>
<event>
12    1  0.8133495E-002  0.1762332E+03  0.7818608E-02  0.1171532E+00
         21   -1    0    0  501  502  0.00000000000E+00  0.00000000000E+00  0.62052022802E+03  0.62052022802E+03  0.00000000000E+00 0. -1.
         21   -1    0    0  502  503 -0.00000000000E+00 -0.00000000000E+00 -0.16132287392E+03  0.16132287392E+03  0.00000000000E+00 0.  1.
         -6    2    1    2    0  503  0.26576344782E+02 -0.30853299745E+02 -0.95091965738E+02  0.20025140845E+03  0.17146403830E+03 0.  0.
        -24    2    3    3    0    0 -0.25124623070E+02 -0.24702613951E+01 -0.11099049063E+03  0.13898608354E+03  0.79755210053E+02 0.  0.
          6    2    1    2  501    0 -0.26576344782E+02  0.30853299745E+02  0.55428931984E+03  0.58159169348E+03  0.17133014807E+03 0.  0.
         24    2    5    5    0    0  0.50283320839E+02  0.13510492067E+02  0.33604259977E+03  0.34951002252E+03  0.80756926832E+02 0.  0.
          5    1    5    5  501    0 -0.76859665621E+02  0.17342807678E+02  0.21824672007E+03  0.23208167097E+03  0.47000000000E+01 0. -1.
        -11    1    6    6    0    0  0.32437469686E+02  0.47397908806E+02  0.21601688440E+03  0.22352191289E+03  0.00000000000E+00 0.  1.
         12    1    6    6    0    0  0.17845851153E+02 -0.33887416738E+02  0.12002571537E+03  0.12598810962E+03  0.00000000000E+00 0. -1.
         -5    1    3    3    0  503  0.51700967853E+02 -0.28383038350E+02  0.15898524892E+02  0.61265324912E+02  0.47000000000E+01 0.  1.
         13    1    4    4    0    0 -0.16197869855E+02  0.16450246724E+02  0.28297432998E+01  0.23259171358E+02  0.00000000000E+00 0. -1.
        -14    1    4    4    0    0 -0.89267532158E+01 -0.18920508119E+02 -0.11382023393E+03  0.11572691218E+03  0.00000000000E+00 0.  1.
</event>
<event>
12    1  0.8133495E-002  0.1831267E+03  0.7818608E-02  0.1165108E+00
         21   -1    0    0  501  502  0.00000000000E+00  0.00000000000E+00  0.10713257527E+03  0.10713257527E+03  0.00000000000E+00 0.  1.
         21   -1    0    0  502  503 -0.00000000000E+00 -0.00000000000E+00 -0.31919603264E+03  0.31919603264E+03  0.00000000000E+00 0. -1.
         -6    2    1    2    0  503  0.17166146618E+02  0.56419183438E+02 -0.71292502643E+02  0.19534842913E+03  0.17204821121E+03 0.  0.
        -24    2    3    3    0    0 -0.43257863242E+02  0.48227161486E+02 -0.20060787165E+01  0.10293160852E+03  0.79961177103E+02 0.  0.
          6    2    1    2  501    0 -0.17166146618E+02 -0.56419183438E+02 -0.14077095472E+03  0.23098017878E+03  0.17337122150E+03 0.  0.
         24    2    5    5    0    0 -0.40325367679E+02  0.23588021694E+02 -0.10603278028E+03  0.14061241264E+03  0.79664107648E+02 0.  0.
          5    1    5    5  501    0  0.23159221061E+02 -0.80007205133E+02 -0.34738174445E+02  0.90367766139E+02  0.47000000000E+01 0. -1.
        -11    1    6    6    0    0 -0.17287944586E+02  0.31250942345E+02 -0.42405902079E+01  0.35964941690E+02  0.00000000000E+00 0.  1.
         12    1    6    6    0    0 -0.23037423093E+02 -0.76629206506E+01 -0.10179219007E+03  0.10464747095E+03  0.00000000000E+00 0. -1.
         -5    1    3    3    0  503  0.60424009861E+02  0.81920219528E+01 -0.69286423926E+02  0.92416820611E+02  0.47000000000E+01 0.  1.
         11    1    4    4    0    0  0.38621583754E+01 -0.12352318456E+02 -0.20262197759E+02  0.24042726480E+02  0.00000000000E+00 0. -1.
        -12    1    4    4    0    0 -0.47120021618E+02  0.60579479942E+02  0.18256119043E+02  0.78888882041E+02  0.00000000000E+00 0.  1.
</event>
<event>
12    1  0.8133495E-002  0.1903127E+03  0.7818608E-02  0.1158465E+00
         21   -1    0    0  503  502  0.00000000000E+00  0.00000000000E+00  0.30395915506E+03  0.30395915506E+03  0.00000000000E+00 0.  1.
         21   -1    0    0  501  503 -0.00000000000E+00 -0.00000000000E+00 -0.14370841642E+03  0.14370841642E+03  0.00000000000E+00 0.  1.
          6    2    1    2  501    0 -0.45918670462E+02 -0.65700323281E+02 -0.14089012239E+02  0.18957212401E+03  0.17121341407E+03 0.  0.
         24    2    3    3    0    0 -0.94591461318E+02 -0.45551154995E+02  0.66052890662E+01  0.13277975076E+03  0.81020862082E+02 0.  0.
         -6    2    1    2    0  502  0.45918670462E+02  0.65700323281E+02  0.17433975088E+03  0.25809544747E+03  0.17260896412E+03 0.  0.
        -24    2    5    5    0    0  0.51063195325E+02  0.43448300794E+01  0.27323458372E+02  0.98637481402E+02  0.79727372304E+02 0.  0.
          5    1    3    3  501    0  0.48672790856E+02 -0.20149168287E+02 -0.20694301305E+02  0.56792373245E+02  0.47000000000E+01 0. -1.
        -13    1    4    4    0    0 -0.88240608029E+02 -0.19842218150E+01  0.87809976322E+01  0.88698635620E+02  0.00000000000E+00 0.  1.
         14    1    4    4    0    0 -0.63508532892E+01 -0.43566933180E+02 -0.21757085660E+01  0.44081115139E+02  0.00000000000E+00 0. -1.
         -5    1    5    5    0  502 -0.51445248631E+01  0.61355493202E+02  0.14701629250E+03  0.15945796607E+03  0.47000000000E+01 0.  1.
         11    1    6    6    0    0 -0.29226434762E+01 -0.12980873191E+02 -0.20516303281E+02  0.24453294543E+02  0.00000000000E+00 0. -1.
        -12    1    6    6    0    0  0.53985838802E+02  0.17325703270E+02  0.47839761653E+02  0.74184186859E+02  0.00000000000E+00 0.  1.
</event>
<event>
12    1  0.8133495E-002  0.2060752E+03  0.7818608E-02  0.1144720E+00
         21   -1    0    0  501  502  0.00000000000E+00  0.00000000000E+00  0.23650658725E+03  0.23650658725E+03  0.00000000000E+00 0. -1.
         21   -1    0    0  502  503 -0.00000000000E+00 -0.00000000000E+00 -0.27255285166E+03  0.27255285166E+03  0.00000000000E+00 0. -1.
         -6    2    1    2    0  503 -0.83841061349E+02 -0.78239984580E+02 -0.16672517794E+03  0.26504313071E+03  0.17117171910E+03 0.  0.
        -24    2    3    3    0    0 -0.10509627482E+03 -0.10720328919E+03 -0.13757922345E+03  0.21854330515E+03  0.79343312912E+02 0.  0.
          6    2    1    2  501    0  0.83841061349E+02  0.78239984580E+02  0.13067891353E+03  0.24401630820E+03  0.17121962934E+03 0.  0.
         24    2    5    5    0    0  0.60828768595E+02 -0.80332872331E+01  0.11521732065E+03  0.15327605307E+03  0.80335824357E+02 0.  0.
          5    1    5    5  501    0  0.23012292754E+02  0.86273271813E+02  0.15461592881E+02  0.90740255133E+02  0.47000000000E+01 0. -1.
        -13    1    6    6    0    0 -0.13801230432E+02 -0.14521921653E+01  0.56242944300E+02  0.57929712644E+02  0.00000000000E+00 0.  1.
         14    1    6    6    0    0  0.74629999027E+02 -0.65810950678E+01  0.58974376345E+02  0.95346340425E+02  0.00000000000E+00 0. -1.
         -5    1    3    3    0  503  0.21255213475E+02  0.28963304612E+02 -0.29145954487E+02  0.46499825558E+02  0.47000000000E+01 0.  1.
         11    1    4    4    0    0 -0.27891108079E+02 -0.82404823918E+02 -0.55671317215E+02  0.10328487051E+03  0.00000000000E+00 0. -1.
        -12    1    4    4    0    0 -0.77205166746E+02 -0.24798465274E+02 -0.81907906237E+02  0.11525843464E+03  0.00000000000E+00 0.  1.
</event>
<event>
12    1  0.8133495E-002  0.2146561E+03  0.7818608E-02  0.1138521E+00
         21   -1    0    0  501  502  0.00000000000E+00  0.00000000000E+00  0.28416434016E+03  0.28416434016E+03  0.00000000000E+00 0.  1.
         21   -1    0    0  502  503 -0.00000000000E+00 -0.00000000000E+00 -0.17861897388E+03  0.17861897388E+03  0.00000000000E+00 0.  1.
         -6    2    1    2    0  503 -0.11983262406E+03  0.97847721654E+01 -0.21878100422E+02  0.21576811740E+03  0.17782471608E+03 0.  0.
        -24    2    3    3    0    0 -0.52093827226E+02  0.61041032911E+02 -0.15631484344E+02  0.13046360946E+03  0.10166924587E+03 0.  0.
          6    2    1    2  501    0  0.11983262406E+03 -0.97847721654E+01  0.12742346671E+03  0.24701519665E+03  0.17413835864E+03 0.  0.
         24    2    5    5    0    0  0.12176312960E+03 -0.33973511767E+02  0.15132682985E+03  0.21263085799E+03  0.79571433994E+02 0.  0.
          5    1    5    5  501    0 -0.19305055340E+01  0.24188739602E+02 -0.23903363143E+02  0.34384338654E+02  0.47000000000E+01 0. -1.
        -13    1    6    6    0    0  0.63446335170E+02  0.59029260316E+01  0.11889870702E+03  0.13489694034E+03  0.00000000000E+00 0.  1.
         14    1    6    6    0    0  0.58316794426E+02 -0.39876437799E+02  0.32428122833E+02  0.77733917655E+02  0.00000000000E+00 0. -1.
         -5    1    3    3    0  503 -0.67738796836E+02 -0.51256260745E+02 -0.62466160783E+01  0.85304507939E+02  0.47000000000E+01 0.  1.
         13    1    4    4    0    0  0.28880211977E+02  0.20567568716E+01 -0.77603866357E+01  0.29975331414E+02  0.00000000000E+00 0. -1.
        -14    1    4    4    0    0 -0.80974039203E+02  0.58984276039E+02 -0.78710977083E+01  0.10048827804E+03  0.00000000000E+00 0.  1.
</event>
<event>
12    1  0.8133495E-002  0.1800519E+03  0.7818608E-02  0.1168376E+00
         21   -1    0    0  501  502  0.00000000000E+00  0.00000000000E+00  0.71446900077E+03  0.71446900077E+03  0.00000000000E+00 0. -1.
         21   -1    0    0  502  503 -0.00000000000E+00 -0.00000000000E+00 -0.51366086301E+02  0.51366086301E+02  0.00000000000E+00 0. -1.
         -6    2    1    2    0  503  0.28404142253E+02  0.44624619673E+02  0.46709019730E+03  0.49967787888E+03  0.16943015745E+03 0.  0.
        -24    2    3    3    0    0  0.43734465002E+02  0.88038687542E+02  0.38607215045E+03  0.40637292724E+03  0.80148217153E+02 0.  0.
          6    2    1    2  501    0 -0.28404142253E+02 -0.44624619673E+02  0.19601271717E+03  0.26615720819E+03  0.17210613644E+03 0.  0.
         24    2    5    5    0    0  0.40559632915E+02  0.10336251839E+02  0.99902943424E+02  0.13563564563E+03  0.81636440005E+02 0.  0.
          5    1    5    5  501    0 -0.68963775169E+02 -0.54960871511E+02  0.96109773748E+02  0.13052156256E+03  0.47000000000E+01 0. -1.
        -13    1    6    6    0    0 -0.11616869145E+02 -0.20078011884E+02  0.57042739760E+02  0.61578830528E+02  0.00000000000E+00 0.  1.
         14    1    6    6    0    0  0.52176502060E+02  0.30414263723E+02  0.42860203665E+02  0.74056815103E+02  0.00000000000E+00 0. -1.
         -5    1    3    3    0  503 -0.15330322748E+02 -0.43414067869E+02  0.81018046849E+02  0.93304951636E+02  0.47000000000E+01 0.  1.
         13    1    4    4    0    0  0.10789703217E+02  0.20310505141E+02  0.24826066128E+03  0.24932366565E+03  0.00000000000E+00 0. -1.
        -14    1    4    4    0    0  0.32944761785E+02  0.67728182401E+02  0.13781148917E+03  0.15704926159E+03  0.00000000000E+00 0.  1.
</event>
<event>
12    1  0.8133495E-002  0.1923791E+03  0.7818608E-02  0.1158612E+00
         21   -1    0    0  503  502  0.00000000000E+00  0.00000000000E+00  0.17995350449E+03  0.17995350449E+03  0.00000000000E+00 0. -1.
         21   -1    0    0  501  503 -0.00000000000E+00 -0.00000000000E+00 -0.22956089003E+03  0.22956089003E+03  0.00000000000E+00 0. -1.
          6    2    1    2  501    0 -0.35925843090E+02 -0.48148172394E+02 -0.10464132662E+03  0.21899667014E+03  0.18275891658E+03 0.  0.
         24    2    3    3    0    0  0.45741076245E+02 -0.16076199027E+01 -0.22498209146E+02  0.94076333571E+02  0.79052872342E+02 0.  0.
         -6    2    1    2    0  502  0.35925843090E+02  0.48148172394E+02  0.55033941086E+02  0.19051772438E+03  0.17221891860E+03 0.  0.
        -24    2    5    5    0    0  0.14540129310E+02  0.68057007396E+02  0.93494047478E+02  0.14198958565E+03  0.81097064700E+02 0.  0.
          5    1    3    3  501    0 -0.81666919335E+02 -0.46540552492E+02 -0.82143117475E+02  0.12492033657E+03  0.47000000000E+01 0. -1.
        -11    1    4    4    0    0 -0.19979898954E+02  0.11096284640E+02  0.16554889472E+01  0.22914286781E+02  0.00000000000E+00 0.  1.
         12    1    4    4    0    0  0.65720975200E+02 -0.12703904542E+02 -0.24153698093E+02  0.71162046790E+02  0.00000000000E+00 0. -1.
         -5    1    5    5    0  502  0.21385713779E+02 -0.19908835002E+02 -0.38460106392E+02  0.48528138731E+02  0.47000000000E+01 0.  1.
         11    1    6    6    0    0  0.25107061898E+02  0.41701143082E+02  0.48597708726E+01  0.48917964639E+02  0.00000000000E+00 0. -1.
        -12    1    6    6    0    0 -0.10566932588E+02  0.26355864314E+02  0.88634276605E+02  0.93071621010E+02  0.00000000000E+00 0.  1.
</event>
<event>
12    1  0.8133495E-002  0.1780871E+03  0.7818608E-02  0.1169739E+00
         21   -1    0    0  501  502  0.00000000000E+00  0.00000000000E+00  0.16234498468E+03  0.16234498468E+03  0.00000000000E+00 0.  1.
         21   -1    0    0  502  503 -0.00000000000E+00 -0.00000000000E+00 -0.21000458346E+03  0.21000458346E+03  0.00000000000E+00 0.  1.
         -6    2    1    2    0  503 -0.35057332146E+02  0.28471761774E+02  0.25892972289E+02  0.17967111994E+03  0.17196397173E+03 0.  0.
        -24    2    3    3    0    0 -0.88320274305E+02  0.28869528984E+02 -0.10842779756E+02  0.11479658947E+03  0.66533980216E+02 0.  0.
          6    2    1    2  501    0  0.35057332146E+02 -0.28471761774E+02 -0.73552571074E+02  0.19267844819E+03  0.17226533584E+03 0.  0.
         24    2    5    5    0    0  0.40637866733E+01 -0.53704455252E+02  0.12033726916E+02  0.98103646660E+02  0.81109999559E+02 0.  0.
          5    1    5    5  501    0  0.30993545473E+02  0.25232693478E+02 -0.85586297990E+02  0.94574801532E+02  0.47000000000E+01 0. -1.
        -11    1    6    6    0    0  0.29691615189E+02 -0.60956382596E+02  0.19299237607E+02  0.70496334400E+02  0.00000000000E+00 0.  1.
         12    1    6    6    0    0 -0.25627828516E+02  0.72519273433E+01 -0.72655106904E+01  0.27607312260E+02  0.00000000000E+00 0. -1.
         -5    1    3    3    0  503  0.53262942159E+02 -0.39776720996E+00  0.36735752045E+02  0.64874530476E+02  0.47000000000E+01 0.  1.
         13    1    4    4    0    0 -0.27968804007E+02  0.99531410468E+01 -0.36060066336E+02  0.46708108487E+02  0.00000000000E+00 0. -1.
        -14    1    4    4    0    0 -0.60351470297E+02  0.18916387937E+02  0.25217286581E+02  0.68088480980E+02  0.00000000000E+00 0.  1.
</event>
<event>
12    1  0.8133495E-002  0.2414823E+03  0.7818608E-02  0.1118817E+00
         21   -1    0    0  503  502  0.00000000000E+00  0.00000000000E+00  0.11460768920E+03  0.11460768920E+03  0.00000000000E+00 0.  1.
         21   -1    0    0  501  503 -0.00000000000E+00 -0.00000000000E+00 -0.50871696059E+03  0.50871696059E+03  0.00000000000E+00 0. -1.
          6    2    1    2  501    0  0.16551134601E+03  0.36962576552E+02 -0.19804680339E+03  0.31227129443E+03  0.17184466028E+03 0.  0.
         24    2    3    3    0    0  0.10114704518E+02  0.27844624536E+02 -0.78600461726E+02  0.11600420148E+03  0.80008198420E+02 0.  0.
         -6    2    1    2    0  502 -0.16551134601E+03 -0.36962576552E+02 -0.19606246800E+03  0.31105335536E+03  0.17191120032E+03 0.  0.
        -24    2    5    5    0    0 -0.16460140186E+03 -0.68621713155E+02 -0.12244585177E+03  0.23077493289E+03  0.80383593001E+02 0.  0.
          5    1    3    3  501    0  0.15539664149E+03  0.91179520155E+01 -0.11944634166E+03  0.19626709295E+03  0.47000000000E+01 0. -1.
        -13    1    4    4    0    0  0.21807433132E+01  0.53675255632E+01  0.16747834131E+02  0.17721622955E+02  0.00000000000E+00 0.  1.
         14    1    4    4    0    0  0.79339612050E+01  0.22477098973E+02 -0.95348295857E+02  0.98282578525E+02  0.00000000000E+00 0. -1.
         -5    1    5    5    0  502 -0.90994415352E+00  0.31659136603E+02 -0.73616616233E+02  0.80278422471E+02  0.47000000000E+01 0.  1.
         11    1    6    6    0    0 -0.13685836114E+03 -0.49205650245E+02 -0.13112365079E+03  0.19581833118E+03  0.00000000000E+00 0. -1.
        -12    1    6    6    0    0 -0.27743040720E+02 -0.19416062910E+02  0.86777990177E+01  0.34956601709E+02  0.00000000000E+00 0.  1.
</event>
<event>
12    1  0.8133495E-002  0.2456291E+03  0.7818608E-02  0.1116101E+00
         21   -1    0    0  501  502  0.00000000000E+00  0.00000000000E+00  0.16904331249E+03  0.16904331249E+03  0.00000000000E+00 0.  1.
         21   -1    0    0  502  503 -0.00000000000E+00 -0.00000000000E+00 -0.43106493906E+03  0.43106493906E+03  0.00000000000E+00 0.  1.
         -6    2    1    2    0  503  0.52168041623E+02  0.16719685253E+03 -0.25548105860E+03  0.35440688202E+03  0.17221316632E+03 0.  0.
        -24    2    3    3    0    0  0.84240425794E+02  0.17574691654E+03 -0.23203227986E+03  0.31349628870E+03  0.80358671736E+02 0.  0.
          6    2    1    2  501    0 -0.52168041623E+02 -0.16719685253E+03 -0.65405679796E+01  0.24570136953E+03  0.17219202042E+03 0.  0.
         24    2    5    5    0    0 -0.91850844655E+02 -0.11192972973E+03 -0.39481194535E+02  0.16996264366E+03  0.79772761361E+02 0.  0.
          5    1    5    5  501    0  0.39682803033E+02 -0.55267122798E+02  0.32940626556E+02  0.75738725873E+02  0.47000000000E+01 0. -1.
        -11    1    6    6    0    0 -0.45468571047E+02 -0.36537993854E+02  0.21834907331E+02  0.62283056493E+02  0.00000000000E+00 0.  1.
         12    1    6    6    0    0 -0.46382273608E+02 -0.75391735880E+02 -0.61316101866E+02  0.10767958717E+03  0.00000000000E+00 0. -1.
         -5    1    3    3    0  503 -0.32072384171E+02 -0.85500640049E+01 -0.23448778739E+02  0.40910593314E+02  0.47000000000E+01 0.  1.
         11    1    4    4    0    0 -0.14019037337E+02  0.15459623498E+02 -0.37784073308E+02  0.43164447897E+02  0.00000000000E+00 0. -1.
        -12    1    4    4    0    0  0.98259463131E+02  0.16028729304E+03 -0.19424820655E+03  0.27033184081E+03  0.00000000000E+00 0.  1.
</event>
<event>
12    1  0.8133495E-002  0.1944582E+03  0.7818608E-02  0.1157120E+00
         21   -1    0    0  501  502  0.00000000000E+00  0.00000000000E+00  0.19493783702E+03  0.19493783702E+03  0.00000000000E+00 0. -1.
         21   -1    0    0  502  503 -0.00000000000E+00 -0.00000000000E+00 -0.23435037006E+03  0.23435037006E+03  0.00000000000E+00 0. -1.
         -6    2    1    2    0  503 -0.56046724157E+02  0.30233695967E+02 -0.12100909578E+03  0.22903532280E+03  0.18373531552E+03 0.  0.
        -24    2    3    3    0    0 -0.47771265829E+01  0.14205364084E+01 -0.14592601546E+03  0.16499070799E+03  0.76828984590E+02 0.  0.
          6    2    1    2  501    0  0.56046724157E+02 -0.30233695967E+02  0.81596562742E+02  0.20025288428E+03  0.17142901433E+03 0.  0.
         24    2    5    5    0    0  0.49061699887E+02  0.33814744317E+02  0.82285037803E+01  0.10249831742E+03  0.82992225364E+02 0.  0.
          5    1    5    5  501    0  0.69850242709E+01 -0.64048440283E+02  0.73368058962E+02  0.97754566863E+02  0.47000000000E+01 0. -1.
        -11    1    6    6    0    0  0.15349685732E+02 -0.23973763333E+02 -0.14361715900E+02  0.31884370216E+02  0.00000000000E+00 0.  1.
         12    1    6    6    0    0  0.33712014154E+02  0.57788507650E+02  0.22590219680E+02  0.70613947206E+02  0.00000000000E+00 0. -1.
         -5    1    3    3    0  503 -0.51269597575E+02  0.28813159558E+02  0.24916919685E+02  0.64044614807E+02  0.47000000000E+01 0.  1.
         11    1    4    4    0    0 -0.21303756190E+02 -0.32413723486E+02 -0.64207207233E+02  0.75013765128E+02  0.00000000000E+00 0. -1.
        -12    1    4    4    0    0  0.16526629607E+02  0.33834259895E+02 -0.81718808231E+02  0.89976942866E+02  0.00000000000E+00 0.  1.
</event>
<event>
12    1  0.8133495E-002  0.1946174E+03  0.7818608E-02  0.1154774E+00
         21   -1    0    0  501  502  0.00000000000E+00  0.00000000000E+00  0.57574259563E+02  0.57574259563E+02  0.00000000000E+00 0. -1.
         21   -1    0    0  502  503 -0.00000000000E+00 -0.00000000000E+00 -0.67329749011E+03  0.67329749011E+03  0.00000000000E+00 0. -1.
         -6    2    1    2    0  503  0.45360533833E+02  0.80439119344E+02 -0.37500834657E+03  0.42250110846E+03  0.17131227830E+03 0.  0.
        -24    2    3    3    0    0 -0.23228353931E+02  0.80670596715E+02 -0.16311352281E+03  0.19973218009E+03  0.78991270661E+02 0.  0.
          6    2    1    2  501    0 -0.45360533833E+02 -0.80439119344E+02 -0.24071488397E+03  0.30837064122E+03  0.16917673317E+03 0.  0.
         24    2    5    5    0    0 -0.13030230720E+02 -0.11573426057E+03 -0.15516470238E+03  0.21022830039E+03  0.80966952747E+02 0.  0.
          5    1    5    5  501    0 -0.32330303113E+02  0.35295141221E+02 -0.85550181591E+02  0.98142340829E+02  0.47000000000E+01 0. -1.
        -13    1    6    6    0    0  0.17019043238E+02 -0.67285826879E+02 -0.36130800054E+02  0.78246182297E+02  0.00000000000E+00 0.  1.
         14    1    6    6    0    0 -0.30049273958E+02 -0.48448433686E+02 -0.11903390233E+03  0.13198211809E+03  0.00000000000E+00 0. -1.
         -5    1    3    3    0  503  0.68588887764E+02 -0.23147737031E+00 -0.21189482376E+03  0.22276892836E+03  0.47000000000E+01 0.  1.
         11    1    4    4    0    0  0.41880840712E+01  0.40519603582E+02 -0.14291272931E+02  0.43169651430E+02  0.00000000000E+00 0. -1.
        -12    1    4    4    0    0 -0.27416438002E+02  0.40150993132E+02 -0.14882224988E+03  0.15656252866E+03  0.00000000000E+00 0.  1.
</event>
<event>
12    1  0.8133495E-002  0.2973243E+03  0.7818608E-02  0.1086788E+00
         21   -1    0    0  503  502  0.00000000000E+00  0.00000000000E+00  0.39352692653E+03  0.39352692653E+03  0.00000000000E+00 0.  1.
         21   -1    0    0  501  503 -0.00000000000E+00 -0.00000000000E+00 -0.44043486228E+03  0.44043486228E+03  0.00000000000E+00 0.  1.
          6    2    1    2  501    0  0.15539573777E+03  0.18390537736E+03 -0.31617054502E+03  0.43401100064E+03  0.17444974062E+03 0.  0.
         24    2    3    3    0    0  0.13695636104E+03  0.16647625456E+03 -0.33192402771E+03  0.40377778790E+03  0.79947193003E+02 0.  0.
         -6    2    1    2    0  502 -0.15539573777E+03 -0.18390537736E+03  0.26926260928E+03  0.39995078817E+03  0.17172436362E+03 0.  0.
        -24    2    5    5    0    0 -0.98643409174E+01 -0.38579971776E+02  0.76210338796E+02  0.11783356055E+03  0.80566822012E+02 0.  0.
          5    1    3    3  501    0  0.18439376733E+02  0.17429122797E+02  0.15753482691E+02  0.30233212741E+02  0.47000000000E+01 0. -1.
        -11    1    4    4    0    0  0.55258301323E+02  0.32463836515E+02 -0.15234813097E+03  0.16527956183E+03  0.00000000000E+00 0.  1.
         12    1    4    4    0    0  0.81698059718E+02  0.13401241805E+03 -0.17957589674E+03  0.23849822608E+03  0.00000000000E+00 0. -1.
         -5    1    5    5    0  502 -0.14553139686E+03 -0.14532540558E+03  0.19305227048E+03  0.28211722761E+03  0.47000000000E+01 0.  1.
         11    1    6    6    0    0 -0.12177312249E+02 -0.50334075606E+02  0.87303176628E+02  0.10150690001E+03  0.00000000000E+00 0. -1.
        -12    1    6    6    0    0  0.23129713317E+01  0.11754103830E+02 -0.11092837832E+02  0.16326660540E+02  0.00000000000E+00 0.  1.
</event>
<event>
12    1  0.8133495E-002  0.1988157E+03  0.7818608E-02  0.1150815E+00
         21   -1    0    0  503  502  0.00000000000E+00  0.00000000000E+00  0.11911684725E+03  0.11911684725E+03  0.00000000000E+00 0.  1.
         21   -1    0    0  501  503 -0.00000000000E+00 -0.00000000000E+00 -0.11146914381E+04  0.11146914381E+04  0.00000000000E+00 0.  1.
          6    2    1    2  501    0 -0.33322755019E+01  0.99362096101E+02 -0.10150912744E+04  0.10343780592E+04  0.17217358594E+03 0.  0.
         24    2    3    3    0    0  0.35307511504E+02 -0.36476623064E+01 -0.53036926752E+03  0.53730506912E+03  0.78391654947E+02 0.  0.
         -6    2    1    2    0  502  0.33322755019E+01 -0.99362096101E+02  0.19516683514E+02  0.19943022623E+03  0.17177771682E+03 0.  0.
        -24    2    5    5    0    0 -0.18154738212E+02 -0.50349757184E+02 -0.53033404407E+02  0.10915560974E+03  0.78979190852E+02 0.  0.
          5    1    3    3  501    0 -0.38639787006E+02  0.10300975841E+03 -0.48472200689E+03  0.49707299004E+03  0.47000000000E+01 0. -1.
        -11    1    4    4    0    0  0.91514476580E+01  0.36664043767E+02 -0.25227811103E+03  0.25509262319E+03  0.00000000000E+00 0.  1.
         12    1    4    4    0    0  0.26156063846E+02 -0.40311706074E+02 -0.27809115648E+03  0.28221244593E+03  0.00000000000E+00 0. -1.
         -5    1    5    5    0  502  0.21487013714E+02 -0.49012338917E+02  0.72550087921E+02  0.90274616487E+02  0.47000000000E+01 0.  1.
         11    1    6    6    0    0 -0.64137372638E+01 -0.47713801039E+02  0.63548293057E+01  0.48560546648E+02  0.00000000000E+00 0. -1.
        -12    1    6    6    0    0 -0.11741000948E+02 -0.26359561446E+01 -0.59388233712E+02  0.60595063095E+02  0.00000000000E+00 0.  1.
</event>
<event>
12    1  0.8133495E-002  0.1874017E+03  0.7818608E-02  0.1161788E+00
         21   -1    0    0  503  502  0.00000000000E+00  0.00000000000E+00  0.48479345515E+03  0.48479345515E+03  0.00000000000E+00 0. -1.
         21   -1    0    0  501  503 -0.00000000000E+00 -0.00000000000E+00 -0.23891198809E+03  0.23891198809E+03  0.00000000000E+00 0. -1.
          6    2    1    2  501    0 -0.64288308819E+02  0.35137745594E+02 -0.18013890700E+03  0.25994116463E+03  0.17248691382E+03 0.  0.
         24    2    3    3    0    0 -0.81593466907E+02  0.78189320768E+02 -0.12273444304E+03  0.18597989704E+03  0.82180988496E+02 0.  0.
         -6    2    1    2    0  502  0.64288308819E+02 -0.35137745594E+02  0.42602037406E+03  0.46376427860E+03  0.16797707932E+03 0.  0.
        -24    2    5    5    0    0  0.50575636302E+02 -0.50868011469E+02  0.42878840870E+03  0.44219507213E+03  0.80817899046E+02 0.  0.
          5    1    3    3  501    0  0.17305158088E+02 -0.43051575173E+02 -0.57404463964E+02  0.73961267596E+02  0.47000000000E+01 0. -1.
        -11    1    4    4    0    0  0.47893371981E+01  0.47891441195E+02 -0.39747804835E+02  0.62421277460E+02  0.00000000000E+00 0.  1.
         12    1    4    4    0    0 -0.86382804105E+02  0.30297879572E+02 -0.82986638205E+02  0.12355861958E+03  0.00000000000E+00 0. -1.
         -5    1    5    5    0  502  0.13712672516E+02  0.15730265875E+02 -0.27680346371E+01  0.21569206471E+02  0.47000000000E+01 0.  1.
         13    1    6    6    0    0  0.40716931662E+02 -0.30075215275E+02  0.40817219664E+03  0.41129907514E+03  0.00000000000E+00 0. -1.
        -14    1    6    6    0    0  0.98587046403E+01 -0.20792796194E+02  0.20616212056E+02  0.30895996995E+02  0.00000000000E+00 0.  1.
</event>
<event>
12    1  0.8133495E-002  0.2144387E+03  0.7818608E-02  0.1138103E+00
         21   -1    0    0  503  502  0.00000000000E+00  0.00000000000E+00  0.15129150343E+03  0.15129150343E+03  0.00000000000E+00 0.  1.
         21   -1    0    0  501  503 -0.00000000000E+00 -0.00000000000E+00 -0.31706893737E+03  0.31706893737E+03  0.00000000000E+00 0.  1.
          6    2    1    2  501    0 -0.12847826087E+03 -0.11028960554E+02 -0.13059544797E+03  0.25105479984E+03  0.17130394043E+03 0.  0.
         24    2    3    3    0    0 -0.45804976924E+02 -0.53839679996E+02 -0.25900874653E+02  0.11087394073E+03  0.81396365848E+02 0.  0.
         -6    2    1    2    0  502  0.12847826087E+03  0.11028960554E+02 -0.35181985979E+02  0.21730564096E+03  0.17133495840E+03 0.  0.
        -24    2    5    5    0    0  0.15951070327E+03  0.20184464274E+02 -0.41444908174E+02  0.18401675507E+03  0.79331007049E+02 0.  0.
          5    1    3    3  501    0 -0.82673283950E+02  0.42810719443E+02 -0.10469457331E+03  0.14018085911E+03  0.47000000000E+01 0. -1.
        -11    1    4    4    0    0 -0.41531187005E+02  0.58891997717E+01 -0.28865605544E+02  0.50919007761E+02  0.00000000000E+00 0.  1.
         12    1    4    4    0    0 -0.42737899191E+01 -0.59728879768E+02  0.29647308911E+01  0.59954932974E+02  0.00000000000E+00 0. -1.
         -5    1    5    5    0  502 -0.31032442393E+02 -0.91555037199E+01  0.62629221956E+01  0.33288885888E+02  0.47000000000E+01 0.  1.
         13    1    6    6    0    0  0.36812743137E+02 -0.13269010615E+02 -0.41225241160E+02  0.56839820625E+02  0.00000000000E+00 0. -1.
        -14    1    6    6    0    0  0.12269796013E+03  0.33453474888E+02 -0.21966701437E+00  0.12717693445E+03  0.00000000000E+00 0.  1.
</event>
<event>
12    1  0.8133495E-002  0.2292858E+03  0.7818608E-02  0.1127287E+00
         21   -1    0    0  503  502  0.00000000000E+00  0.00000000000E+00  0.14075506337E+03  0.14075506337E+03  0.00000000000E+00 0. -1.
         21   -1    0    0  501  503 -0.00000000000E+00 -0.00000000000E+00 -0.93645197672E+03  0.93645197672E+03  0.00000000000E+00 0. -1.
          6    2    1    2  501    0  0.87034049916E+02 -0.12237275756E+03 -0.81565849626E+03  0.84705397892E+03  0.17219652450E+03 0.  0.
         24    2    3    3    0    0 -0.22980427206E+02 -0.29243086537E+02 -0.33491217278E+03  0.34514219549E+03  0.74657307022E+02 0.  0.
         -6    2    1    2    0  502 -0.87034049916E+02  0.12237275756E+03  0.19961582915E+02  0.23015306117E+03  0.17326843086E+03 0.  0.
        -24    2    5    5    0    0  0.42425109343E+00  0.11169502842E+03 -0.75925276931E+01  0.13771774688E+03  0.80203316437E+02 0.  0.
          5    1    3    3  501    0  0.11001447712E+03 -0.93129671021E+02 -0.48074632348E+03  0.50191178343E+03  0.47000000000E+01 0. -1.
        -13    1    4    4    0    0 -0.27212812620E+02  0.11722364073E+02 -0.23806996055E+03  0.23990676753E+03  0.00000000000E+00 0.  1.
         14    1    4    4    0    0  0.42323854134E+01 -0.40965450610E+02 -0.96842212227E+02  0.10523542797E+03  0.00000000000E+00 0. -1.
         -5    1    5    5    0  502 -0.87458301009E+02  0.10677729140E+02  0.27554110608E+02  0.92435314282E+02  0.47000000000E+01 0.  1.
         13    1    6    6    0    0 -0.23007511288E+02  0.31359354455E+01 -0.12841680737E+02  0.26534664704E+02  0.00000000000E+00 0. -1.
        -14    1    6    6    0    0  0.23431762381E+02  0.10855909297E+03  0.52491530440E+01  0.11118308218E+03  0.00000000000E+00 0.  1.
</event>
<event>
12    1  0.8133495E-002  0.2251157E+03  0.7818608E-02  0.1130353E+00
         21   -1    0    0  503  502  0.00000000000E+00  0.00000000000E+00  0.67420665356E+02  0.67420665356E+02  0.00000000000E+00 0. -1.
         21   -1    0    0  501  503 -0.00000000000E+00 -0.00000000000E+00 -0.80695881275E+03  0.80695881275E+03  0.00000000000E+00 0. -1.
          6    2    1    2  501    0 -0.49373881912E+02  0.13569067614E+03 -0.48751571195E+03  0.53645583608E+03  0.17106593716E+03 0.  0.
         24    2    3    3    0    0 -0.46390341055E+02  0.12005794475E+03 -0.21117277063E+03  0.25961509662E+03  0.78994211780E+02 0.  0.
         -6    2    1    2    0  502  0.49373881912E+02 -0.13569067614E+03 -0.25202243544E+03  0.33792364203E+03  0.17270593524E+03 0.  0.
        -24    2    5    5    0    0  0.71204407727E+02 -0.85560630455E+02 -0.24710769696E+03  0.28282520292E+03  0.80852905619E+02 0.  0.
          5    1    3    3  501    0 -0.29835408576E+01  0.15632731384E+02 -0.27634294132E+03  0.27684073946E+03  0.47000000000E+01 0. -1.
        -13    1    4    4    0    0  0.20947287711E+02  0.47173083755E+02 -0.78212905638E+02  0.93708843242E+02  0.00000000000E+00 0.  1.
         14    1    4    4    0    0 -0.67337628766E+02  0.72884860999E+02 -0.13295986499E+03  0.16590625338E+03  0.00000000000E+00 0. -1.
         -5    1    5    5    0  502 -0.21830525815E+02 -0.50130045683E+02 -0.49147384832E+01  0.55098439106E+02  0.47000000000E+01 0.  1.
         13    1    6    6    0    0  0.69800920529E+02 -0.38919744005E+02 -0.97271995228E+02  0.12589184261E+03  0.00000000000E+00 0. -1.
        -14    1    6    6    0    0  0.14034871985E+01 -0.46640886450E+02 -0.14983570173E+03  0.15693336031E+03  0.00000000000E+00 0.  1.
</event>
<event>
12    1  0.8133495E-002  0.1824737E+03  0.7818608E-02  0.1165962E+00
         21   -1    0    0  501  502  0.00000000000E+00  0.00000000000E+00  0.92769722530E+03  0.92769722530E+03  0.00000000000E+00 0.  1.
         21   -1    0    0  502  503 -0.00000000000E+00 -0.00000000000E+00 -0.10710077984E+03  0.10710077984E+03  0.00000000000E+00 0.  1.
         -6    2    1    2    0  503 -0.55874367346E+02 -0.20771968536E+02 -0.12043893626E+02  0.18287070649E+03  0.17246222866E+03 0.  0.
        -24    2    3    3    0    0 -0.14855930989E+02  0.47993715951E+00 -0.70917356982E+02  0.10788850657E+03  0.79935782377E+02 0.  0.
          6    2    1    2  501    0  0.55874367346E+02  0.20771968536E+02  0.83264033909E+03  0.85192729865E+03  0.17010810767E+03 0.  0.
         24    2    5    5    0    0  0.66219716065E+02 -0.90818173574E+01  0.28065091607E+03  0.29901438697E+03  0.78594762690E+02 0.  0.
          5    1    5    5  501    0 -0.10345348718E+02  0.29853785893E+02  0.55198942302E+03  0.55291291168E+03  0.47000000000E+01 0. -1.
        -11    1    6    6    0    0  0.18832745715E+01  0.64783425082E+01  0.16959398765E+03  0.16972812463E+03  0.00000000000E+00 0.  1.
         12    1    6    6    0    0  0.64336441493E+02 -0.15560159866E+02  0.11105692842E+03  0.12928626234E+03  0.00000000000E+00 0. -1.
         -5    1    3    3    0  503 -0.41018436357E+02 -0.21251905695E+02  0.58873463356E+02  0.74982199918E+02  0.47000000000E+01 0.  1.
         11    1    4    4    0    0  0.82608984913E+01 -0.28340372083E+02 -0.18711976096E+01  0.29579055330E+02  0.00000000000E+00 0. -1.
        -12    1    4    4    0    0 -0.23116829480E+02  0.28820309243E+02 -0.69046159373E+02  0.78309451244E+02  0.00000000000E+00 0.  1.
</event>
<event>
12    1  0.8133495E-002  0.2043025E+03  0.7818608E-02  0.1146890E+00
         21   -1    0    0  501  502  0.00000000000E+00  0.00000000000E+00  0.24817794737E+03  0.24817794737E+03  0.00000000000E+00 0.  1.
         21   -1    0    0  502  503 -0.00000000000E+00 -0.00000000000E+00 -0.21483452281E+03  0.21483452281E+03  0.00000000000E+00 0.  1.
         -6    2    1    2    0  503 -0.91352259715E+02 -0.53895703914E+02 -0.94611764536E+02  0.22194809924E+03  0.17046873764E+03 0.  0.
        -24    2    3    3    0    0 -0.10282703827E+02 -0.14654133407E+02  0.12036712921E+02  0.82276479035E+02  0.79398104011E+02 0.  0.
          6    2    1    2  501    0  0.91352259715E+02  0.53895703914E+02  0.12795518909E+03  0.24106437094E+03  0.17461248027E+03 0.  0.
         24    2    5    5    0    0  0.82134809992E+02 -0.13888795487E+02  0.25882709976E+02  0.11809860037E+03  0.79613686521E+02 0.  0.
          5    1    5    5  501    0  0.92174497226E+01  0.67784499401E+02  0.10207247912E+03  0.12296577057E+03  0.47000000000E+01 0. -1.
        -11    1    6    6    0    0  0.27878532607E+02  0.19377027844E+02  0.40450397711E+02  0.52810192798E+02  0.00000000000E+00 0.  1.
         12    1    6    6    0    0  0.54256277385E+02 -0.33265823331E+02 -0.14567687734E+02  0.65288407574E+02  0.00000000000E+00 0. -1.
         -5    1    3    3    0  503 -0.81069555888E+02 -0.39241570507E+02 -0.10664847746E+03  0.13967162021E+03  0.47000000000E+01 0.  1.
         13    1    4    4    0    0 -0.26973054714E+02 -0.36423148822E+02  0.25192234266E+02  0.51854027018E+02  0.00000000000E+00 0. -1.
        -14    1    4    4    0    0  0.16690350887E+02  0.21769015415E+02 -0.13155521344E+02  0.30422452017E+02  0.00000000000E+00 0.  1.
</event>
<event>
12    1  0.8133495E-002  0.2053513E+03  0.7818608E-02  0.1145326E+00
         21   -1    0    0  501  502  0.00000000000E+00  0.00000000000E+00  0.18994796917E+03  0.18994796917E+03  0.00000000000E+00 0.  1.
         21   -1    0    0  502  503 -0.00000000000E+00 -0.00000000000E+00 -0.63057598831E+03  0.63057598831E+03  0.00000000000E+00 0. -1.
         -6    2    1    2    0  503 -0.10368142352E+03  0.45947400403E+02 -0.55058270978E+03  0.58758795067E+03  0.17104759068E+03 0.  0.
        -24    2    3    3    0    0 -0.12021727891E+02  0.44692644891E+02 -0.15730865758E+03  0.18374436171E+03  0.82909723555E+02 0.  0.
          6    2    1    2  501    0  0.10368142352E+03 -0.45947400403E+02  0.10995469064E+03  0.23293600681E+03  0.17119622686E+03 0.  0.
         24    2    5    5    0    0 -0.18757680514E+01 -0.56505233647E+02  0.36963606363E+02  0.10408113915E+03  0.79184691684E+02 0.  0.
          5    1    5    5  501    0  0.10555719157E+03  0.10557833244E+02  0.72991084272E+02  0.12885486766E+03  0.47000000000E+01 0. -1.
        -11    1    6    6    0    0 -0.16517745414E+02 -0.50839282236E+02  0.57317417271E+02  0.78375728733E+02  0.00000000000E+00 0.  1.
         12    1    6    6    0    0  0.14641977363E+02 -0.56659514109E+01 -0.20353810908E+02  0.25705410422E+02  0.00000000000E+00 0. -1.
         -5    1    3    3    0  503 -0.91659695632E+02  0.12547555122E+01 -0.39327405220E+03  0.40384358896E+03  0.47000000000E+01 0.  1.
         13    1    4    4    0    0  0.11915672261E+02 -0.66255767505E+01 -0.10740334698E+03  0.10826523198E+03  0.00000000000E+00 0. -1.
        -14    1    4    4    0    0 -0.23937400152E+02  0.51318221641E+02 -0.49905310605E+02  0.75479129731E+02  0.00000000000E+00 0.  1.
</event>
<event>
12    1  0.8133495E-002  0.2390096E+03  0.7818608E-02  0.1120968E+00
         21   -1    0    0  501  502  0.00000000000E+00  0.00000000000E+00  0.23286861161E+03  0.23286861161E+03  0.00000000000E+00 0.  1.
         21   -1    0    0  502  503 -0.00000000000E+00 -0.00000000000E+00 -0.24220281779E+03  0.24220281779E+03  0.00000000000E+00 0.  1.
         -6    2    1    2    0  503  0.13461637411E+03  0.95549844026E+02 -0.35116433911E+01  0.23903538828E+03  0.17284167420E+03 0.  0.
        -24    2    3    3    0    0  0.54663514815E+02 -0.15692549509E+02  0.18892202299E+02  0.10014207624E+03  0.80231939794E+02 0.  0.
          6    2    1    2  501    0 -0.13461637411E+03 -0.95549844026E+02 -0.58225627848E+01  0.23603604112E+03  0.16860536647E+03 0.  0.
         24    2    5    5    0    0 -0.12127732247E+03 -0.34888091002E+02  0.44488031592E+02  0.15596716774E+03  0.80132419276E+02 0.  0.
          5    1    5    5  501    0 -0.13339051640E+02 -0.60661753024E+02 -0.50310594377E+02  0.80068873385E+02  0.47000000000E+01 0. -1.
        -11    1    6    6    0    0 -0.39752142635E+02 -0.51906499145E+02  0.11470168980E+02  0.66378326839E+02  0.00000000000E+00 0.  1.
         12    1    6    6    0    0 -0.81525179832E+02  0.17018408143E+02  0.33017862612E+02  0.89588840900E+02  0.00000000000E+00 0. -1.
         -5    1    3    3    0  503  0.79952859293E+02  0.11124239354E+03 -0.22403845690E+02  0.13889331204E+03  0.47000000000E+01 0.  1.
         11    1    4    4    0    0 -0.12913583684E+02 -0.12438158051E+02  0.26568725891E+02  0.32052544591E+02  0.00000000000E+00 0. -1.
        -12    1    4    4    0    0  0.67577098498E+02 -0.32543914580E+01 -0.76765235925E+01  0.68089531645E+02  0.00000000000E+00 0.  1.
</event>
<event>
12    1  0.8133495E-002  0.3002853E+03  0.7818608E-02  0.1085145E+00
         21   -1    0    0  503  502  0.00000000000E+00  0.00000000000E+00  0.16258653840E+03  0.16258653840E+03  0.00000000000E+00 0. -1.
         21   -1    0    0  501  503 -0.00000000000E+00 -0.00000000000E+00 -0.56196945515E+03  0.56196945515E+03  0.00000000000E+00 0. -1.
          6    2    1    2  501    0  0.66160959836E+02  0.23757114993E+03 -0.15616842919E+03  0.33813063381E+03  0.17066465177E+03 0.  0.
         24    2    3    3    0    0  0.22733950043E+02  0.22076120144E+03 -0.80984070268E+02  0.24956846709E+03  0.80459055320E+02 0.  0.
         -6    2    1    2    0  502 -0.66160959836E+02 -0.23757114993E+03 -0.24321448756E+03  0.38642535974E+03  0.17132993844E+03 0.  0.
        -24    2    5    5    0    0  0.32296015530E+01 -0.47123051095E+02 -0.10960783028E+03  0.14361193913E+03  0.79871774304E+02 0.  0.
          5    1    3    3  501    0  0.43427009793E+02  0.16809948485E+02 -0.75184358927E+02  0.88562166724E+02  0.47000000000E+01 0. -1.
        -11    1    4    4    0    0 -0.26155881012E+02  0.34583284973E+02 -0.10827022984E+02  0.44691812871E+02  0.00000000000E+00 0.  1.
         12    1    4    4    0    0  0.48889831055E+02  0.18617791647E+03 -0.70157047284E+02  0.20487665422E+03  0.00000000000E+00 0. -1.
         -5    1    5    5    0  502 -0.69390561389E+02 -0.19044809883E+03 -0.13360665728E+03  0.24281342061E+03  0.47000000000E+01 0.  1.
         11    1    6    6    0    0 -0.12799339031E+02 -0.38088087704E+02 -0.87933288497E+01  0.41132081601E+02  0.00000000000E+00 0. -1.
        -12    1    6    6    0    0  0.16028940584E+02 -0.90349633903E+01 -0.10081450143E+03  0.10247985753E+03  0.00000000000E+00 0.  1.
</event>
<event>
12    1  0.8133495E-002  0.1941046E+03  0.7818608E-02  0.1155099E+00
         21   -1    0    0  501  502  0.00000000000E+00  0.00000000000E+00  0.27957067323E+03  0.27957067323E+03  0.00000000000E+00 0.  1.
         21   -1    0    0  502  503 -0.00000000000E+00 -0.00000000000E+00 -0.14430943434E+03  0.14430943434E+03  0.00000000000E+00 0.  1.
         -6    2    1    2    0  503  0.82722104987E+02 -0.21430851048E+02  0.10804591475E+02  0.19440507431E+03  0.17428243081E+03 0.  0.
        -24    2    3    3    0    0  0.71489695541E+02  0.27851792289E+02  0.58253670846E+02  0.12491801732E+03  0.79526863268E+02 0.  0.
          6    2    1    2  501    0 -0.82722104987E+02  0.21430851048E+02  0.12445664742E+03  0.22947503326E+03  0.17282102237E+03 0.  0.
         24    2    5    5    0    0 -0.41098500384E+02  0.34445748150E+02  0.15039039217E+03  0.17851857024E+03  0.79849944034E+02 0.  0.
          5    1    5    5  501    0 -0.41623604602E+02 -0.13014897102E+02 -0.25933744753E+02  0.50956463021E+02  0.47000000000E+01 0. -1.
        -13    1    6    6    0    0 -0.21964267283E+02 -0.20689226272E+02  0.88266144800E+02  0.93281216967E+02  0.00000000000E+00 0.  1.
         14    1    6    6    0    0 -0.19134233101E+02  0.55134974421E+02  0.62124247371E+02  0.85237353268E+02  0.00000000000E+00 0. -1.
         -5    1    3    3    0  503  0.11232409445E+02 -0.49282643337E+02 -0.47449079370E+02  0.69487056991E+02  0.47000000000E+01 0.  1.
         13    1    4    4    0    0 -0.16297091529E+02 -0.26326765276E+01  0.15429285279E+02  0.22596216990E+02  0.00000000000E+00 0. -1.
        -14    1    4    4    0    0  0.87786787071E+02  0.30484468817E+02  0.42824385566E+02  0.10232180033E+03  0.00000000000E+00 0.  1.
</event>
<event>
12    1  0.8133495E-002  0.2796537E+03  0.7818608E-02  0.1095998E+00
         21   -1    0    0  503  502  0.00000000000E+00  0.00000000000E+00  0.15729326759E+04  0.15729326759E+04  0.00000000000E+00 0.  1.
         21   -1    0    0  501  503 -0.00000000000E+00 -0.00000000000E+00 -0.68316536911E+02  0.68316536911E+02  0.00000000000E+00 0. -1.
          6    2    1    2  501    0 -0.99107487441E+02 -0.19583858813E+03  0.32322859705E+03  0.42741419752E+03  0.17329490361E+03 0.  0.
         24    2    3    3    0    0 -0.64789928492E+02 -0.89302691559E+02  0.74034589808E+02  0.15419755206E+03  0.78249977753E+02 0.  0.
         -6    2    1    2    0  502  0.99107487441E+02  0.19583858813E+03  0.11813875420E+04  0.12138350153E+04  0.17188331344E+03 0.  0.
        -24    2    5    5    0    0  0.21091061353E+02  0.14942028491E+03  0.94519611737E+03  0.96075459200E+03  0.82960420409E+02 0.  0.
          5    1    3    3  501    0 -0.34317558949E+02 -0.10653589657E+03  0.24919400724E+03  0.27321664546E+03  0.47000000000E+01 0. -1.
        -13    1    4    4    0    0 -0.26368968077E+02  0.64242521818E+01  0.34112638906E+02  0.43592036276E+02  0.00000000000E+00 0.  1.
         14    1    4    4    0    0 -0.38420960415E+02 -0.95726943741E+02  0.39921950903E+02  0.11060551578E+03  0.00000000000E+00 0. -1.
         -5    1    5    5    0  502  0.78016426088E+02  0.46418303226E+02  0.23619142460E+03  0.25308042332E+03  0.47000000000E+01 0.  1.
         13    1    6    6    0    0  0.31552250998E+02  0.17259801294E+02  0.29469681608E+03  0.29688324084E+03  0.00000000000E+00 0. -1.
        -14    1    6    6    0    0 -0.10461189645E+02  0.13216048361E+03  0.65049930128E+03  0.66387135116E+03  0.00000000000E+00 0.  1.
</event>
<event>
12    1  0.8133495E-002  0.2886914E+03  0.7818608E-02  0.1091191E+00
         21   -1    0    0  503  502  0.00000000000E+00  0.00000000000E+00  0.77278336559E+03  0.77278336559E+03  0.00000000000E+00 0. -1.
         21   -1    0    0  501  503 -0.00000000000E+00 -0.00000000000E+00 -0.15341930397E+03  0.15341930397E+03  0.00000000000E+00 0.  1.
          6    2    1    2  501    0 -0.12386752212E+03  0.19441799686E+03  0.56504749692E+02  0.29416920134E+03  0.17378495833E+03 0.  0.
         24    2    3    3    0    0 -0.14374096028E+03  0.11214682002E+03  0.64829462868E+02  0.20899355381E+03  0.78975144055E+02 0.  0.
         -6    2    1    2    0  502  0.12386752212E+03 -0.19441799686E+03  0.56285931193E+03  0.63203346822E+03  0.17179691319E+03 0.  0.
        -24    2    5    5    0    0  0.15425814395E+03 -0.15888735511E+03  0.41773829770E+03  0.47949424320E+03  0.79803993054E+02 0.  0.
          5    1    3    3  501    0  0.19873438152E+02  0.82271176838E+02 -0.83247131763E+01  0.85175647527E+02  0.47000000000E+01 0. -1.
        -11    1    4    4    0    0 -0.14711578993E+02  0.64953509106E+01 -0.16855823193E+02  0.23296757617E+02  0.00000000000E+00 0.  1.
         12    1    4    4    0    0 -0.12902938128E+03  0.10565146911E+03  0.81685286061E+02  0.18569679620E+03  0.00000000000E+00 0. -1.
         -5    1    5    5    0  502 -0.30390621827E+02 -0.35530641749E+02  0.14512101424E+03  0.15253922502E+03  0.47000000000E+01 0.  1.
         13    1    6    6    0    0  0.41910577405E+02 -0.14039142347E+01  0.75917869920E+02  0.86729409353E+02  0.00000000000E+00 0. -1.
        -14    1    6    6    0    0  0.11234756655E+03 -0.15748344088E+03  0.34182042778E+03  0.39276483384E+03  0.00000000000E+00 0.  1.
</event>
<event>
12    1  0.8133495E-002  0.2140561E+03  0.7818608E-02  0.1141385E+00
         21   -1    0    0  501  502  0.00000000000E+00  0.00000000000E+00  0.18889337879E+03  0.18889337879E+03  0.00000000000E+00 0.  1.
         21   -1    0    0  502  503 -0.00000000000E+00 -0.00000000000E+00 -0.22843704967E+03  0.22843704967E+03  0.00000000000E+00 0.  1.
         -6    2    1    2    0  503  0.84308734546E+02  0.89137140628E+02  0.25776169757E+01  0.19916946648E+03  0.15687077392E+03 0.  0.
        -24    2    3    3    0    0 -0.28895939540E+01  0.71978753928E+02  0.11601690634E+02  0.10971845960E+03  0.81940529534E+02 0.  0.
          6    2    1    2  501    0 -0.84308734546E+02 -0.89137140628E+02 -0.42121287854E+02  0.21816096198E+03  0.17540413302E+03 0.  0.
         24    2    5    5    0    0 -0.12285435284E+03 -0.68193662189E+02 -0.58759223943E+02  0.17100902781E+03  0.77768075834E+02 0.  0.
          5    1    5    5  501    0  0.38545618292E+02 -0.20943478439E+02  0.16637936088E+02  0.47151934169E+02  0.47000000000E+01 0. -1.
        -11    1    6    6    0    0  0.61999825161E+00 -0.26911469532E+02 -0.24465588601E+02  0.36375494715E+02  0.00000000000E+00 0.  1.
         12    1    6    6    0    0 -0.12347435109E+03 -0.41282192658E+02 -0.34293635341E+02  0.13463353309E+03  0.00000000000E+00 0. -1.
         -5    1    3    3    0  503  0.87198328500E+02  0.17158386700E+02 -0.90240736586E+01  0.89451006885E+02  0.47000000000E+01 0.  1.
         13    1    4    4    0    0  0.31517241223E+02  0.43417422265E+02 -0.17421800300E+02  0.56408582469E+02  0.00000000000E+00 0. -1.
        -14    1    4    4    0    0 -0.34406835177E+02  0.28561331662E+02  0.29023490934E+02  0.53309877127E+02  0.00000000000E+00 0.  1.
</event>
<event>
12    1  0.8133495E-002  0.3286983E+03  0.7818608E-02  0.1071827E+00
         21   -1    0    0  501  502  0.00000000000E+00  0.00000000000E+00  0.46433580589E+03  0.46433580589E+03  0.00000000000E+00 0. -1.
         21   -1    0    0  502  503 -0.00000000000E+00 -0.00000000000E+00 -0.11536221985E+04  0.11536221985E+04  0.00000000000E+00 0.  1.
         -6    2    1    2    0  503 -0.18298809905E+03  0.21153410259E+03 -0.10676214708E+04  0.11167793785E+04  0.17073152730E+03 0.  0.
        -24    2    3    3    0    0 -0.49576620416E+02  0.15494193715E+03 -0.60151698173E+03  0.62864335183E+03  0.83095964459E+02 0.  0.
          6    2    1    2  501    0  0.18298809905E+03 -0.21153410259E+03  0.37833507814E+03  0.50117862591E+03  0.17265938367E+03 0.  0.
         24    2    5    5    0    0  0.15274612491E+03 -0.96043822532E+02  0.29849431242E+03  0.35748026246E+03  0.78342127763E+02 0.  0.
          5    1    5    5  501    0  0.30241974141E+02 -0.11549028006E+03  0.79840765719E+02  0.14369836345E+03  0.47000000000E+01 0. -1.
        -11    1    6    6    0    0  0.91047346124E+02 -0.30454556415E+02  0.95528139523E+02  0.13543531550E+03  0.00000000000E+00 0.  1.
         12    1    6    6    0    0  0.61698778783E+02 -0.65589266117E+02  0.20296617290E+03  0.22204494697E+03  0.00000000000E+00 0. -1.
         -5    1    3    3    0  503 -0.13341147863E+03  0.56592165446E+02 -0.46610448903E+03  0.48813602665E+03  0.47000000000E+01 0.  1.
         11    1    4    4    0    0 -0.21240317358E+02  0.44312241509E+02 -0.73472715156E+02  0.88390982014E+02  0.00000000000E+00 0. -1.
        -12    1    4    4    0    0 -0.28336303058E+02  0.11062969564E+03 -0.52804426657E+03  0.54025236981E+03  0.00000000000E+00 0.  1.
</event>
<event>
12    1  0.8133495E-002  0.1949114E+03  0.7818608E-02  0.1154199E+00
         21   -1    0    0  503  502  0.00000000000E+00  0.00000000000E+00  0.79882671235E+02  0.79882671235E+02  0.00000000000E+00 0. -1.
         21   -1    0    0  501  503 -0.00000000000E+00 -0.00000000000E+00 -0.52094399331E+03  0.52094399331E+03  0.00000000000E+00 0. -1.
          6    2    1    2  501    0  0.89148693138E+02  0.24530852586E+02 -0.31042773776E+03  0.36654579109E+03  0.17158433605E+03 0.  0.
         24    2    3    3    0    0  0.11366531006E+03  0.59804273176E+02 -0.22861063354E+03  0.27401791827E+03  0.79540203458E+02 0.  0.
         -6    2    1    2    0  502 -0.89148693138E+02 -0.24530852586E+02 -0.13063358431E+03  0.23428087345E+03  0.17109395693E+03 0.  0.
        -24    2    5    5    0    0 -0.65323855790E+02 -0.64213744548E+02 -0.14801074556E+03  0.18461790412E+03  0.61530306310E+02 0.  0.
          5    1    3    3  501    0 -0.24516616920E+02 -0.35273420590E+02 -0.81817104227E+02  0.92527872824E+02  0.47000000000E+01 0. -1.
        -13    1    4    4    0    0  0.73786033430E+02  0.70120084341E+02 -0.19822104478E+03  0.22282905455E+03  0.00000000000E+00 0.  1.
         14    1    4    4    0    0  0.39879276628E+02 -0.10315811164E+02 -0.30389588759E+02  0.51188863723E+02  0.00000000000E+00 0. -1.
         -5    1    5    5    0  502 -0.23824837348E+02  0.39682891962E+02  0.17377161256E+02  0.49662969328E+02  0.47000000000E+01 0.  1.
         11    1    6    6    0    0  0.10798438976E+02 -0.12349631757E+02 -0.36259731697E+02  0.39798088291E+02  0.00000000000E+00 0. -1.
        -12    1    6    6    0    0 -0.76122294767E+02 -0.51864112791E+02 -0.11175101387E+03  0.14481981583E+03  0.00000000000E+00 0.  1.
</event>
<event>
12    1  0.8133495E-002  0.1983489E+03  0.7818608E-02  0.1151163E+00
         21   -1    0    0  503  502  0.00000000000E+00  0.00000000000E+00  0.11409243952E+03  0.11409243952E+03  0.00000000000E+00 0.  1.
         21   -1    0    0  501  503 -0.00000000000E+00 -0.00000000000E+00 -0.39617062645E+03  0.39617062645E+03  0.00000000000E+00 0. -1.
          6    2    1    2  501    0  0.85421904925E+02 -0.51636571835E+02 -0.23308643714E+03  0.30605812984E+03  0.17140319214E+03 0.  0.
         24    2    3    3    0    0 -0.15718402716E+02 -0.54805436376E+02 -0.89304246643E+02  0.13017518060E+03  0.75628203305E+02 0.  0.
         -6    2    1    2    0  502 -0.85421904925E+02  0.51636571835E+02 -0.48991749791E+02  0.20420493612E+03  0.17127821518E+03 0.  0.
        -24    2    5    5    0    0  0.20114117673E+02  0.28266307128E+02 -0.21679428670E+01  0.86312696200E+02  0.79003922059E+02 0.  0.
          5    1    3    3  501    0  0.10114030764E+03  0.31688645413E+01 -0.14378219049E+03  0.17588294925E+03  0.47000000000E+01 0. -1.
        -11    1    4    4    0    0 -0.73289168678E+01 -0.73585076425E+02 -0.73209029518E+02  0.10405786130E+03  0.00000000000E+00 0.  1.
         12    1    4    4    0    0 -0.83894858483E+01  0.18779640049E+02 -0.16095217125E+02  0.26117319301E+02  0.00000000000E+00 0. -1.
         -5    1    5    5    0  502 -0.10553602260E+03  0.23370264707E+02 -0.46823806924E+02  0.11789223992E+03  0.47000000000E+01 0.  1.
         13    1    6    6    0    0  0.21891817243E+02 -0.56945609585E+01 -0.33267392380E+02  0.40229331121E+02  0.00000000000E+00 0. -1.
        -14    1    6    6    0    0 -0.17776995699E+01  0.33960868087E+02  0.31099449513E+02  0.46083365079E+02  0.00000000000E+00 0.  1.
</event>
<event>
12    1  0.8133495E-002  0.2386450E+03  0.7818608E-02  0.1120976E+00
         21   -1    0    0  503  502  0.00000000000E+00  0.00000000000E+00  0.21980134558E+03  0.21980134558E+03  0.00000000000E+00 0.  1.
         21   -1    0    0  501  503 -0.00000000000E+00 -0.00000000000E+00 -0.47729497922E+03  0.47729497922E+03  0.00000000000E+00 0.  1.
          6    2    1    2  501    0 -0.13597283070E+03  0.93902748188E+02 -0.36560914643E+03  0.43660222678E+03  0.17217758179E+03 0.  0.
         24    2    3    3    0    0 -0.14880989965E+03  0.84198014337E+02 -0.21707823968E+03  0.28712817399E+03  0.78012398398E+02 0.  0.
         -6    2    1    2    0  502  0.13597283070E+03 -0.93902748188E+02  0.10811551279E+03  0.26049409801E+03  0.16988782824E+03 0.  0.
        -24    2    5    5    0    0  0.12162799183E+03 -0.28442916345E+02  0.12110184017E+03  0.19207261976E+03  0.81387146916E+02 0.  0.
          5    1    3    3  501    0  0.12837068950E+02  0.97047338512E+01 -0.14853090675E+03  0.14947405279E+03  0.47000000000E+01 0. -1.
        -13    1    4    4    0    0 -0.12391240801E+03  0.79677329182E+02 -0.21643605830E+03  0.26181544831E+03  0.00000000000E+00 0.  1.
         14    1    4    4    0    0 -0.24897491641E+02  0.45206851551E+01 -0.64218138417E+00  0.25312725678E+02  0.00000000000E+00 0. -1.
         -5    1    5    5    0  502  0.14344838876E+02 -0.65459831844E+02 -0.12986327378E+02  0.68421478251E+02  0.47000000000E+01 0.  1.
         13    1    6    6    0    0  0.41047024742E+01 -0.21822965885E+02  0.49610724897E+02  0.54353605650E+02  0.00000000000E+00 0. -1.
        -14    1    6    6    0    0  0.11752328935E+03 -0.66199504596E+01  0.71491115269E+02  0.13771901411E+03  0.00000000000E+00 0.  1.
</event>
<event>
12    1  0.8133495E-002  0.2219162E+03  0.7818608E-02  0.1132786E+00
         21   -1    0    0  501  502  0.00000000000E+00  0.00000000000E+00  0.12506632176E+04  0.12506632176E+04  0.00000000000E+00 0.  1.
         21   -1    0    0  502  503 -0.00000000000E+00 -0.00000000000E+00 -0.50521291801E+02  0.50521291801E+02  0.00000000000E+00 0. -1.
         -6    2    1    2    0  503  0.13308355067E+03 -0.36151146307E+02  0.28845651611E+03  0.36287907838E+03  0.17162729095E+03 0.  0.
        -24    2    3    3    0    0  0.15893806432E+03 -0.56386860063E+02  0.24550427320E+03  0.30861191373E+03  0.80797146374E+02 0.  0.
          6    2    1    2  501    0 -0.13308355067E+03  0.36151146307E+02  0.91168540965E+03  0.93830543098E+03  0.17386390887E+03 0.  0.
         24    2    5    5    0    0 -0.74077729524E+01 -0.23579269815E+02  0.36828693667E+03  0.37735435098E+03  0.78423092396E+02 0.  0.
          5    1    5    5  501    0 -0.12567577772E+03  0.59730416122E+02  0.54339847298E+03  0.56095108000E+03  0.47000000000E+01 0. -1.
        -11    1    6    6    0    0 -0.47360215637E+01  0.32541726935E+01  0.33247694644E+03  0.33252659962E+03  0.00000000000E+00 0.  1.
         12    1    6    6    0    0 -0.26717513887E+01 -0.26833442509E+02  0.35809990232E+02  0.44827751368E+02  0.00000000000E+00 0. -1.
         -5    1    3    3    0  503 -0.25854513651E+02  0.20235713757E+02  0.42952242918E+02  0.54267164649E+02  0.47000000000E+01 0.  1.
         13    1    4    4    0    0  0.45369061063E+01 -0.29633934191E+02  0.33085129530E+02  0.44647277281E+02  0.00000000000E+00 0. -1.
        -14    1    4    4    0    0  0.15440115822E+03 -0.26752925872E+02  0.21241914367E+03  0.26396463645E+03  0.00000000000E+00 0.  1.
</event>
<event>
12    1  0.8133495E-002  0.1944230E+03  0.7818608E-02  0.1156659E+00
         21   -1    0    0  503  502  0.00000000000E+00  0.00000000000E+00  0.13540967437E+03  0.13540967437E+03  0.00000000000E+00 0.  1.
         21   -1    0    0  501  503 -0.00000000000E+00 -0.00000000000E+00 -0.45481141625E+03  0.45481141625E+03  0.00000000000E+00 0.  1.
          6    2    1    2  501    0 -0.78779960668E+02 -0.42106532732E+02 -0.35227298195E+03  0.40236370172E+03  0.17268773073E+03 0.  0.
         24    2    3    3    0    0  0.13967118180E+01 -0.42256205053E+02 -0.27803916365E+03  0.29299702036E+03  0.82182356635E+02 0.  0.
         -6    2    1    2    0  502  0.78779960668E+02  0.42106532732E+02  0.32871240074E+02  0.18785738890E+03  0.16195875351E+03 0.  0.
        -24    2    5    5    0    0  0.24227328740E+00 -0.14089803487E+02  0.37307676222E+02  0.91069122521E+02  0.81872712871E+02 0.  0.
          5    1    3    3  501    0 -0.80176672486E+02  0.14967232030E+00 -0.74233818299E+02  0.10936668136E+03  0.47000000000E+01 0. -1.
        -13    1    4    4    0    0 -0.34102840361E+02  0.29678074450E+00 -0.14339429293E+03  0.14739408076E+03  0.00000000000E+00 0.  1.
         14    1    4    4    0    0  0.35499552179E+02 -0.42552985797E+02 -0.13464487073E+03  0.14560293959E+03  0.00000000000E+00 0. -1.
         -5    1    5    5    0  502  0.78537687380E+02  0.56196336219E+02 -0.44364361476E+01  0.96788266382E+02  0.47000000000E+01 0.  1.
         11    1    6    6    0    0  0.26877833802E+02 -0.38438395507E+02  0.19029509117E+02  0.50616700962E+02  0.00000000000E+00 0. -1.
        -12    1    6    6    0    0 -0.26635560514E+02  0.24348592020E+02  0.18278167105E+02  0.40452421559E+02  0.00000000000E+00 0.  1.
</event>
<event>
12    1  0.8133495E-002  0.1985108E+03  0.7818608E-02  0.1151597E+00
         21   -1    0    0  501  502  0.00000000000E+00  0.00000000000E+00  0.23046717908E+03  0.23046717908E+03  0.00000000000E+00 0. -1.
         21   -1    0    0  502  503 -0.00000000000E+00 -0.00000000000E+00 -0.19448819019E+03  0.19448819019E+03  0.00000000000E+00 0. -1.
         -6    2    1    2    0  503  0.23179774452E+02  0.90173249179E+02 -0.59633208183E+02  0.20461871040E+03  0.17217485390E+03 0.  0.
        -24    2    3    3    0    0  0.10696171139E+02  0.24020138833E+02  0.32609989873E+02  0.90325351243E+02  0.80024261890E+02 0.  0.
          6    2    1    2  501    0 -0.23179774452E+02 -0.90173249179E+02  0.95612197078E+02  0.22033665887E+03  0.17532265741E+03 0.  0.
         24    2    5    5    0    0  0.48230435193E+02 -0.72266820984E+02  0.87884150443E+02  0.14616206135E+03  0.78045217569E+02 0.  0.
          5    1    5    5  501    0 -0.71410209645E+02 -0.17906428195E+02  0.77280466353E+01  0.74174597519E+02  0.47000000000E+01 0. -1.
        -11    1    6    6    0    0 -0.20043917914E+02 -0.20161225429E+02  0.35808383703E+02  0.45721701626E+02  0.00000000000E+00 0.  1.
         12    1    6    6    0    0  0.68274353106E+02 -0.52105595556E+02  0.52075766739E+02  0.10044035973E+03  0.00000000000E+00 0. -1.
         -5    1    3    3    0  503  0.12483603313E+02  0.66153110346E+02 -0.92243198056E+02  0.11429335916E+03  0.47000000000E+01 0.  1.
         11    1    4    4    0    0 -0.27821159628E+02  0.33277358180E+02  0.92965553000E+01  0.44360178437E+02  0.00000000000E+00 0. -1.
        -12    1    4    4    0    0  0.38517330768E+02 -0.92572193469E+01  0.23313434573E+02  0.45965172806E+02  0.00000000000E+00 0.  1.
</event>
<event>
12    1  0.8133495E-002  0.2040889E+03  0.7818608E-02  0.1147433E+00
         21   -1    0    0  503  502  0.00000000000E+00  0.00000000000E+00  0.26184419531E+03  0.26184419531E+03  0.00000000000E+00 0. -1.
         21   -1    0    0  501  503 -0.00000000000E+00 -0.00000000000E+00 -0.20034667399E+03  0.20034667399E+03  0.00000000000E+00 0.  1.
          6    2    1    2  501    0 -0.81874246539E+02  0.56360811969E+02 -0.79510979756E+02  0.21412701359E+03  0.17218724887E+03 0.  0.
         24    2    3    3    0    0 -0.11671703995E+03  0.64858261291E+02 -0.37173630416E+02  0.15844247312E+03  0.76763774118E+02 0.  0.
         -6    2    1    2    0  502  0.81874246539E+02 -0.56360811969E+02  0.14100850108E+03  0.24806385571E+03  0.17824798950E+03 0.  0.
        -24    2    5    5    0    0  0.12273768531E+03 -0.18953194259E+02  0.11656411632E+03  0.18732862346E+03  0.77981132236E+02 0.  0.
          5    1    3    3  501    0  0.34842793415E+02 -0.84974493219E+01 -0.42337349341E+02  0.55684540468E+02  0.47000000000E+01 0. -1.
        -13    1    4    4    0    0 -0.22430843130E+02  0.50136385537E+02 -0.30392005580E+02  0.62773193972E+02  0.00000000000E+00 0.  1.
         14    1    4    4    0    0 -0.94286196824E+02  0.14721875753E+02 -0.67816248353E+01  0.95669279147E+02  0.00000000000E+00 0. -1.
         -5    1    5    5    0  502 -0.40863438768E+02 -0.37407617710E+02  0.24444384754E+02  0.60735232252E+02  0.47000000000E+01 0.  1.
         13    1    6    6    0    0  0.95850704449E+02  0.19982031760E+02  0.66003144682E+02  0.11808071072E+03  0.00000000000E+00 0. -1.
        -14    1    6    6    0    0  0.26886980858E+02 -0.38935226020E+02  0.50560971640E+02  0.69247912735E+02  0.00000000000E+00 0.  1.
</event>
<event>
12    1  0.8133495E-002  0.2564335E+03  0.7818608E-02  0.1109645E+00
         21   -1    0    0  503  502  0.00000000000E+00  0.00000000000E+00  0.30208479828E+03  0.30208479828E+03  0.00000000000E+00 0.  1.
         21   -1    0    0  501  503 -0.00000000000E+00 -0.00000000000E+00 -0.25627504631E+03  0.25627504631E+03  0.00000000000E+00 0.  1.
          6    2    1    2  501    0 -0.11595785651E+03 -0.14963859368E+03 -0.87946616599E+02  0.27109545995E+03  0.17297458723E+03 0.  0.
         24    2    3    3    0    0 -0.14411094108E+02 -0.47667763691E+02  0.16460348670E+02  0.93239620799E+02  0.77089483588E+02 0.  0.
         -6    2    1    2    0  502  0.11595785651E+03  0.14963859368E+03  0.13375636857E+03  0.28726438465E+03  0.16968243088E+03 0.  0.
        -24    2    5    5    0    0  0.14190958969E+03  0.11939453328E+03  0.74152768637E+02  0.21541123741E+03  0.80684458732E+02 0.  0.
          5    1    3    3  501    0 -0.10154676240E+03 -0.10197082999E+03 -0.10440696527E+03  0.17785583915E+03  0.47000000000E+01 0. -1.
        -13    1    4    4    0    0  0.18940392053E+02 -0.35137475917E+02 -0.17896033385E+02  0.43745270326E+02  0.00000000000E+00 0.  1.
         14    1    4    4    0    0 -0.33351486162E+02 -0.12530287774E+02  0.34356382055E+02  0.49494350474E+02  0.00000000000E+00 0. -1.
         -5    1    5    5    0  502 -0.25951733175E+02  0.30244060393E+02  0.59603599933E+02  0.71853147244E+02  0.47000000000E+01 0.  1.
         11    1    6    6    0    0  0.29615476340E+02  0.95278589873E+01  0.46420829920E+02  0.55881571079E+02  0.00000000000E+00 0. -1.
        -12    1    6    6    0    0  0.11229411335E+03  0.10986667430E+03  0.27731938717E+02  0.15952966633E+03  0.00000000000E+00 0.  1.
</event>
<event>
12    1  0.8133495E-002  0.3221275E+03  0.7818608E-02  0.1074879E+00
         21   -1    0    0  501  502  0.00000000000E+00  0.00000000000E+00  0.46560917394E+03  0.46560917394E+03  0.00000000000E+00 0. -1.
         21   -1    0    0  502  503 -0.00000000000E+00 -0.00000000000E+00 -0.25995005355E+03  0.25995005355E+03  0.00000000000E+00 0.  1.
         -6    2    1    2    0  503 -0.25006065751E+03 -0.10730807638E+03 -0.36705751480E+02  0.32243786839E+03  0.16903701101E+03 0.  0.
        -24    2    3    3    0    0 -0.23118512198E+03 -0.13289322533E+03 -0.67293803107E+01  0.27848836877E+03  0.80020728676E+02 0.  0.
          6    2    1    2  501    0  0.25006065751E+03  0.10730807638E+03  0.24236487187E+03  0.40312135910E+03  0.17239705147E+03 0.  0.
         24    2    5    5    0    0  0.11099846772E+03  0.65918196650E+02  0.20686531784E+03  0.25367664321E+03  0.69947917030E+02 0.  0.
          5    1    5    5  501    0  0.13906218978E+03  0.41389879726E+02  0.35499554032E+02  0.14944471589E+03  0.47000000000E+01 0. -1.
        -13    1    6    6    0    0  0.17985911863E+02  0.20603152982E+02  0.64032010153E+01  0.28088857606E+02  0.00000000000E+00 0.  1.
         14    1    6    6    0    0  0.93012555860E+02  0.45315043667E+02  0.20046211682E+03  0.22558778560E+03  0.00000000000E+00 0. -1.
         -5    1    3    3    0  503 -0.18875535524E+02  0.25585148952E+02 -0.29976371169E+02  0.43949499618E+02  0.47000000000E+01 0.  1.
         13    1    4    4    0    0 -0.22376292709E+03 -0.13464786093E+03 -0.21324896376E+02  0.26202031448E+03  0.00000000000E+00 0. -1.
        -14    1    4    4    0    0 -0.74221948915E+01  0.17546355993E+01  0.14595516065E+02  0.16468054296E+02  0.00000000000E+00 0.  1.
</event>
<event>
12    1  0.8133495E-002  0.2074659E+03  0.7818608E-02  0.1143618E+00
         21   -1    0    0  501  502  0.00000000000E+00  0.00000000000E+00  0.27565845844E+03  0.27565845844E+03  0.00000000000E+00 0. -1.
         21   -1    0    0  502  503 -0.00000000000E+00 -0.00000000000E+00 -0.17286365876E+03  0.17286365876E+03  0.00000000000E+00 0. -1.
         -6    2    1    2    0  503  0.75444859373E+02  0.86825330898E+02 -0.18592886386E+02  0.20815350076E+03  0.17248657792E+03 0.  0.
        -24    2    3    3    0    0  0.10994709074E+03  0.27615093110E+02 -0.14162228597E+02  0.13932053659E+03  0.79741376134E+02 0.  0.
          6    2    1    2  501    0 -0.75444859373E+02 -0.86825330898E+02  0.12138768607E+03  0.24036861644E+03  0.17266017650E+03 0.  0.
         24    2    5    5    0    0  0.90498279305E+01 -0.22268905863E+02  0.77908431052E+01  0.84698397943E+02  0.80841312606E+02 0.  0.
          5    1    5    5  501    0 -0.84494687304E+02 -0.64556425035E+02  0.11359684297E+03  0.15567021850E+03  0.47000000000E+01 0. -1.
        -13    1    6    6    0    0 -0.21100970687E+02 -0.46849305994E+01  0.34524816576E+02  0.40732818442E+02  0.00000000000E+00 0.  1.
         14    1    6    6    0    0  0.30150798617E+02 -0.17583975263E+02 -0.26733973470E+02  0.43965579501E+02  0.00000000000E+00 0. -1.
         -5    1    3    3    0  503 -0.34502231365E+02  0.59210237788E+02 -0.44306577884E+01  0.68832964170E+02  0.47000000000E+01 0.  1.
         13    1    4    4    0    0  0.64912184373E+02  0.36670242006E+00 -0.44373181361E+02  0.78630181068E+02  0.00000000000E+00 0. -1.
        -14    1    4    4    0    0  0.45034906365E+02  0.27248390690E+02  0.30210952763E+02  0.60690355522E+02  0.00000000000E+00 0.  1.
</event>
<event>
12    1  0.8133495E-002  0.1759235E+03  0.7818608E-02  0.1171995E+00
         21   -1    0    0  501  502  0.00000000000E+00  0.00000000000E+00  0.25643920667E+03  0.25643920667E+03  0.00000000000E+00 0.  1.
         21   -1    0    0  502  503 -0.00000000000E+00 -0.00000000000E+00 -0.12259428953E+03  0.12259428953E+03  0.00000000000E+00 0.  1.
         -6    2    1    2    0  503  0.21005530969E+02 -0.27629800549E+01  0.93412003570E+02  0.19852340366E+03  0.17388752974E+03 0.  0.
        -24    2    3    3    0    0  0.74059588737E+02  0.29895302516E+02  0.58465097351E+02  0.12693658420E+03  0.79474379545E+02 0.  0.
          6    2    1    2  501    0 -0.21005530969E+02  0.27629800549E+01  0.40432913568E+02  0.18051009253E+03  0.17464308351E+03 0.  0.
         24    2    5    5    0    0  0.28685906854E+01 -0.61430708903E+02  0.49266965045E+02  0.11129352044E+03  0.78594230313E+02 0.  0.
          5    1    5    5  501    0 -0.23874121654E+02  0.64193688958E+02 -0.88340514771E+01  0.69216572093E+02  0.47000000000E+01 0. -1.
        -11    1    6    6    0    0 -0.35951538350E+02 -0.44776498264E+02  0.25572894745E+02  0.62860328126E+02  0.00000000000E+00 0.  1.
         12    1    6    6    0    0  0.38820129036E+02 -0.16654210639E+02  0.23694070301E+02  0.48433192314E+02  0.00000000000E+00 0. -1.
         -5    1    3    3    0  503 -0.53054057769E+02 -0.32658282571E+02  0.34946906219E+02  0.71586819461E+02  0.47000000000E+01 0.  1.
         11    1    4    4    0    0 -0.34898912124E+01  0.34565770356E+02  0.14290263691E+02  0.37565721840E+02  0.00000000000E+00 0. -1.
        -12    1    4    4    0    0  0.77549479950E+02 -0.46704678407E+01  0.44174833661E+02  0.89370862362E+02  0.00000000000E+00 0.  1.
</event>
<event>
12    1  0.8133495E-002  0.1792834E+03  0.7818608E-02  0.1168560E+00
         21   -1    0    0  503  502  0.00000000000E+00  0.00000000000E+00  0.91403471845E+03  0.91403471845E+03  0.00000000000E+00 0. -1.
         21   -1    0    0  501  503 -0.00000000000E+00 -0.00000000000E+00 -0.20254051795E+03  0.20254051795E+03  0.00000000000E+00 0. -1.
          6    2    1    2  501    0  0.32993914286E+02 -0.39076737039E+02 -0.15188425008E+03  0.23477883781E+03  0.17157123157E+03 0.  0.
         24    2    3    3    0    0  0.73079580006E+02 -0.19844191033E+02 -0.47110848524E+02  0.12086524294E+03  0.81575474078E+02 0.  0.
         -6    2    1    2    0  502 -0.32993914286E+02  0.39076737039E+02  0.86337845057E+03  0.88179639860E+03  0.17183407668E+03 0.  0.
        -24    2    5    5    0    0 -0.25568515333E+02  0.78285282238E+02  0.78543919929E+03  0.79410909360E+03  0.83139535570E+02 0.  0.
          5    1    3    3  501    0 -0.40085665720E+02 -0.19232546006E+02 -0.10477340155E+03  0.11391359486E+03  0.47000000000E+01 0. -1.
        -13    1    4    4    0    0  0.15959880043E+01 -0.14473724818E+02  0.18598591451E+02  0.23620827500E+02  0.00000000000E+00 0.  1.
         14    1    4    4    0    0  0.71483592002E+02 -0.53704662151E+01 -0.65709439974E+02  0.97244415441E+02  0.00000000000E+00 0. -1.
         -5    1    5    5    0  502 -0.74253989527E+01 -0.39208545199E+02  0.77939251289E+02  0.87687304998E+02  0.47000000000E+01 0.  1.
         13    1    6    6    0    0  0.23484075561E+02  0.42865897676E+00  0.21732584590E+03  0.21859141989E+03  0.00000000000E+00 0. -1.
        -14    1    6    6    0    0 -0.49052590894E+02  0.77856623261E+02  0.56811335338E+03  0.57551767371E+03  0.00000000000E+00 0.  1.
</event>
<event>
12    1  0.8133495E-002  0.2635832E+03  0.7818608E-02  0.1105941E+00
         21   -1    0    0  503  502  0.00000000000E+00  0.00000000000E+00  0.24447486193E+03  0.24447486193E+03  0.00000000000E+00 0. -1.
         21   -1    0    0  501  503 -0.00000000000E+00 -0.00000000000E+00 -0.36199777419E+03  0.36199777419E+03  0.00000000000E+00 0.  1.
          6    2    1    2  501    0  0.44528132962E+02  0.19498712716E+03 -0.20471236264E+03  0.32884324268E+03  0.16195058647E+03 0.  0.
         24    2    3    3    0    0  0.76280701785E+02  0.19047964022E+03 -0.15451326062E+03  0.26908888796E+03  0.80207500331E+02 0.  0.
         -6    2    1    2    0  502 -0.44528132962E+02 -0.19498712716E+03  0.87189450383E+02  0.27762939344E+03  0.17167802847E+03 0.  0.
        -24    2    5    5    0    0 -0.37609697249E+02 -0.32828838575E+02  0.50320625137E+02  0.11112240985E+03  0.85579218778E+02 0.  0.
          5    1    3    3  501    0 -0.31752568822E+02  0.45074869385E+01 -0.50199102020E+02  0.59754354727E+02  0.47000000000E+01 0. -1.
        -13    1    4    4    0    0  0.91811957693E+02  0.17170101829E+03 -0.14565948496E+03  0.24316118279E+03  0.00000000000E+00 0.  1.
         14    1    4    4    0    0 -0.15531255908E+02  0.18778621929E+02 -0.88537756673E+01  0.25927705167E+02  0.00000000000E+00 0. -1.
         -5    1    5    5    0  502 -0.69184357129E+01 -0.16215828859E+03  0.36868825246E+02  0.16650698359E+03  0.47000000000E+01 0.  1.
         13    1    6    6    0    0 -0.31054903361E+01 -0.47373088616E+02  0.55817805988E+02  0.73276742972E+02  0.00000000000E+00 0. -1.
        -14    1    6    6    0    0 -0.34504206913E+02  0.14544250040E+02 -0.54971808507E+01  0.37845666876E+02  0.00000000000E+00 0.  1.
</event>
<event>
12    1  0.8133495E-002  0.1859077E+03  0.7818608E-02  0.1162626E+00
         21   -1    0    0  503  502  0.00000000000E+00  0.00000000000E+00  0.94167721927E+02  0.94167721927E+02  0.00000000000E+00 0. -1.
         21   -1    0    0  501  503 -0.00000000000E+00 -0.00000000000E+00 -0.42741783546E+03  0.42741783546E+03  0.00000000000E+00 0. -1.
          6    2    1    2  501    0  0.64964470796E+02 -0.24111941375E+02 -0.26819120533E+03  0.32632528642E+03  0.17251058447E+03 0.  0.
         24    2    3    3    0    0 -0.25155006341E+02 -0.44455033158E+02 -0.15818616557E+03  0.18259442572E+03  0.75556846221E+02 0.  0.
         -6    2    1    2    0  502 -0.64964470796E+02  0.24111941375E+02 -0.65058908207E+02  0.19526027097E+03  0.17056419232E+03 0.  0.
        -24    2    5    5    0    0 -0.10808679435E+03  0.27490123973E+02 -0.32018477175E+02  0.14062779905E+03  0.79451450309E+02 0.  0.
          5    1    3    3  501    0  0.90119477137E+02  0.20343091783E+02 -0.11000503977E+03  0.14373086070E+03  0.47000000000E+01 0. -1.
        -11    1    4    4    0    0 -0.29368011615E+02 -0.63180845172E+02 -0.10465069916E+03  0.12572218634E+03  0.00000000000E+00 0.  1.
         12    1    4    4    0    0  0.42130052747E+01  0.18725812015E+02 -0.53535466409E+02  0.56872239385E+02  0.00000000000E+00 0. -1.
         -5    1    5    5    0  502  0.43122323551E+02 -0.33781825983E+01 -0.33040431031E+02  0.54632471927E+02  0.47000000000E+01 0.  1.
         11    1    6    6    0    0 -0.55576833375E+02  0.46835597625E+02  0.60737610681E+01  0.72933176171E+02  0.00000000000E+00 0. -1.
        -12    1    6    6    0    0 -0.52509960972E+02 -0.19345473651E+02 -0.38092238243E+02  0.67694622877E+02  0.00000000000E+00 0.  1.
</event>
<event>
12    1  0.8133495E-002  0.1739570E+03  0.7818608E-02  0.1173844E+00
         21   -1    0    0  503  502  0.00000000000E+00  0.00000000000E+00  0.75828080851E+02  0.75828080851E+02  0.00000000000E+00 0.  1.
         21   -1    0    0  501  503 -0.00000000000E+00 -0.00000000000E+00 -0.81244288988E+03  0.81244288988E+03  0.00000000000E+00 0.  1.
          6    2    1    2  501    0 -0.78660421022E+01 -0.24177835719E+02 -0.68544604523E+03  0.70717559628E+03  0.17208893254E+03 0.  0.
         24    2    3    3    0    0 -0.85971917665E+01  0.35074844395E+02 -0.57777280739E+03  0.58418360131E+03  0.78389455080E+02 0.  0.
         -6    2    1    2    0  502  0.78660421022E+01  0.24177835719E+02 -0.51168763798E+02  0.18109537444E+03  0.17184542443E+03 0.  0.
        -24    2    5    5    0    0 -0.54637520708E+02  0.38573783345E+02 -0.59719373742E+01  0.10249014694E+03  0.77429779498E+02 0.  0.
          5    1    3    3  501    0  0.73114966430E+00 -0.59252680114E+02 -0.10767323784E+03  0.12299199497E+03  0.47000000000E+01 0. -1.
        -11    1    4    4    0    0 -0.32382604185E+02  0.37913958191E+01 -0.10913900370E+03  0.11390491589E+03  0.00000000000E+00 0.  1.
         12    1    4    4    0    0  0.23785412419E+02  0.31283448576E+02 -0.46863380369E+03  0.47027868542E+03  0.00000000000E+00 0. -1.
         -5    1    5    5    0  502  0.62503562811E+02 -0.14395947626E+02 -0.45196826424E+02  0.78605227504E+02  0.47000000000E+01 0.  1.
         13    1    6    6    0    0 -0.49329401948E+02 -0.12506665386E+02 -0.48725020495E+01  0.51122870145E+02  0.00000000000E+00 0. -1.
        -14    1    6    6    0    0 -0.53081187605E+01  0.51080448731E+02 -0.10994353247E+01  0.51367276795E+02  0.00000000000E+00 0.  1.
</event>
<event>
12    1  0.8133495E-002  0.1831021E+03  0.7818608E-02  0.1167032E+00
         21   -1    0    0  501  502  0.00000000000E+00  0.00000000000E+00  0.34303143894E+03  0.34303143894E+03  0.00000000000E+00 0. -1.
         21   -1    0    0  502  503 -0.00000000000E+00 -0.00000000000E+00 -0.23419384202E+03  0.23419384202E+03  0.00000000000E+00 0. -1.
         -6    2    1    2    0  503  0.52319877359E+02  0.33634580143E+02 -0.17021950223E+03  0.24346005525E+03  0.16257141512E+03 0.  0.
        -24    2    3    3    0    0  0.40630832336E+02  0.15506552299E+02 -0.26183440478E+02  0.97742052755E+02  0.83526155311E+02 0.  0.
          6    2    1    2  501    0 -0.52319877359E+02 -0.33634580143E+02  0.27905709915E+03  0.33376522571E+03  0.17221413056E+03 0.  0.
         24    2    5    5    0    0 -0.45399457922E+02 -0.26950684988E+02  0.54298972631E+02  0.10875217699E+03  0.78046187422E+02 0.  0.
          5    1    5    5  501    0 -0.69204194369E+01 -0.66838951550E+01  0.22475812652E+03  0.22501304872E+03  0.47000000000E+01 0. -1.
        -11    1    6    6    0    0 -0.62734716791E+02 -0.15007932734E+02  0.58734685242E+02  0.87239016422E+02  0.00000000000E+00 0.  1.
         12    1    6    6    0    0  0.17335258868E+02 -0.11942752254E+02 -0.44357126110E+01  0.21513160572E+02  0.00000000000E+00 0. -1.
         -5    1    3    3    0  503  0.11689045024E+02  0.18128027844E+02 -0.14403606175E+03  0.14571800249E+03  0.47000000000E+01 0.  1.
         11    1    4    4    0    0  0.23854399212E+02 -0.87636495421E+01 -0.52422818396E+02  0.58257924814E+02  0.00000000000E+00 0. -1.
        -12    1    4    4    0    0  0.16776433124E+02  0.24270201841E+02  0.26239377918E+02  0.39484127941E+02  0.00000000000E+00 0.  1.
</event>
<event>
12    1  0.8133495E-002  0.1968867E+03  0.7818608E-02  0.1152469E+00
         21   -1    0    0  503  502  0.00000000000E+00  0.00000000000E+00  0.10746173074E+03  0.10746173074E+03  0.00000000000E+00 0. -1.
         21   -1    0    0  501  503 -0.00000000000E+00 -0.00000000000E+00 -0.36411545065E+03  0.36411545065E+03  0.00000000000E+00 0. -1.
          6    2    1    2  501    0 -0.77353222713E+02 -0.58066674009E+02 -0.15327130548E+03  0.24951246097E+03  0.17149086099E+03 0.  0.
         24    2    3    3    0    0  0.45599023342E+01 -0.47820145303E+02 -0.13644979664E+03  0.16513352660E+03  0.79642800046E+02 0.  0.
         -6    2    1    2    0  502  0.77353222713E+02  0.58066674009E+02 -0.10338241443E+03  0.22206472042E+03  0.17108347889E+03 0.  0.
        -24    2    5    5    0    0  0.11114832546E+03  0.71538529926E+02 -0.60308867901E+02  0.16548716055E+03  0.79228336106E+02 0.  0.
          5    1    3    3  501    0 -0.81913125047E+02 -0.10246528706E+02 -0.16821508834E+02  0.84378934367E+02  0.47000000000E+01 0. -1.
        -11    1    4    4    0    0  0.40282775797E+02 -0.18902884788E+02 -0.86383038184E+02  0.97170213364E+02  0.00000000000E+00 0.  1.
         12    1    4    4    0    0 -0.35722873463E+02 -0.28917260515E+02 -0.50066758458E+02  0.67963313240E+02  0.00000000000E+00 0. -1.
         -5    1    5    5    0  502 -0.33795102743E+02 -0.13471855917E+02 -0.43073546529E+02  0.56577559879E+02  0.47000000000E+01 0.  1.
         13    1    6    6    0    0  0.36231811346E+02 -0.56043064922E+01  0.87443242632E+01  0.37691054794E+02  0.00000000000E+00 0. -1.
        -14    1    6    6    0    0  0.74916514110E+02  0.77142836419E+02 -0.69053192165E+02  0.12779610575E+03  0.00000000000E+00 0.  1.
</event>
<event>
12    1  0.8133495E-002  0.1720924E+03  0.7818608E-02  0.1175703E+00
         21   -1    0    0  501  502  0.00000000000E+00  0.00000000000E+00  0.61044610489E+03  0.61044610489E+03  0.00000000000E+00 0.  1.
         21   -1    0    0  502  503 -0.00000000000E+00 -0.00000000000E+00 -0.19324084559E+03  0.19324084559E+03  0.00000000000E+00 0.  1.
         -6    2    1    2    0  503 -0.11722826800E+01  0.20832843185E+01 -0.13917244343E+03  0.22132504198E+03  0.17207582887E+03 0.  0.
        -24    2    3    3    0    0 -0.45792906543E+01  0.67742522563E+02 -0.74605197666E+02  0.12905498999E+03  0.80493699480E+02 0.  0.
          6    2    1    2  501    0  0.11722826800E+01 -0.20832843185E+01  0.55637770273E+03  0.58236190850E+03  0.17199863390E+03 0.  0.
         24    2    5    5    0    0 -0.56527624933E+02 -0.34106430454E+02  0.28382832428E+03  0.30189798048E+03  0.78900266021E+02 0.  0.
          5    1    5    5  501    0  0.57699907613E+02  0.32023146135E+02  0.27254937845E+03  0.28046392802E+03  0.47000000000E+01 0. -1.
        -11    1    6    6    0    0 -0.37306369788E+01 -0.20689855369E+02  0.20501740750E+03  0.20609251599E+03  0.00000000000E+00 0.  1.
         12    1    6    6    0    0 -0.52796987955E+02 -0.13416575085E+02  0.78810916780E+02  0.95805464499E+02  0.00000000000E+00 0. -1.
         -5    1    3    3    0  503  0.34070079743E+01 -0.65659238245E+02 -0.64567245761E+02  0.92270051996E+02  0.47000000000E+01 0.  1.
         11    1    4    4    0    0 -0.12742202700E+02  0.32162562580E+02 -0.84437592455E+02  0.91249664004E+02  0.00000000000E+00 0. -1.
        -12    1    4    4    0    0  0.81629120457E+01  0.35579959984E+02  0.98323947887E+01  0.37805325984E+02  0.00000000000E+00 0.  1.
</event>
<event>
12    1  0.8133495E-002  0.2022625E+03  0.7818608E-02  0.1148652E+00
         21   -1    0    0  501  502  0.00000000000E+00  0.00000000000E+00  0.13493233114E+04  0.13493233114E+04  0.00000000000E+00 0. -1.
         21   -1    0    0  502  503 -0.00000000000E+00 -0.00000000000E+00 -0.59289068587E+02  0.59289068587E+02  0.00000000000E+00 0. -1.
         -6    2    1    2    0  503 -0.55667815250E+02 -0.81431156989E+02  0.14474888147E+03  0.24560392548E+03  0.17216013052E+03 0.  0.
        -24    2    3    3    0    0 -0.57925278668E+02 -0.94980561869E+02  0.44576403663E+02  0.14438486688E+03  0.80518873426E+02 0.  0.
          6    2    1    2  501    0  0.55667815250E+02  0.81431156989E+02  0.11452853613E+04  0.11630084545E+04  0.17657906834E+03 0.  0.
         24    2    5    5    0    0  0.32508415815E+02 -0.18381128622E+02  0.35044033039E+03  0.36157251611E+03  0.80818291553E+02 0.  0.
          5    1    5    5  501    0  0.23159399436E+02  0.99812285611E+02  0.79484503094E+03  0.80143593839E+03  0.47000000000E+01 0. -1.
        -11    1    6    6    0    0 -0.17617527023E+02 -0.76984437941E+01  0.22839254515E+03  0.22920034463E+03  0.00000000000E+00 0.  1.
         12    1    6    6    0    0  0.50125942838E+02 -0.10682684828E+02  0.12204778524E+03  0.13237217148E+03  0.00000000000E+00 0. -1.
         -5    1    3    3    0  503  0.22574634179E+01  0.13549404880E+02  0.10017247781E+03  0.10121905860E+03  0.47000000000E+01 0.  1.
         13    1    4    4    0    0 -0.47374759485E+02 -0.89541054353E+02  0.65284650542E+02  0.12051578256E+03  0.00000000000E+00 0. -1.
        -14    1    4    4    0    0 -0.10550519183E+02 -0.54395075161E+01 -0.20708246879E+02  0.23869084311E+02  0.00000000000E+00 0.  1.
</event>
<event>
12    1  0.8133495E-002  0.1811393E+03  0.7818608E-02  0.1166843E+00
         21   -1    0    0  501  502  0.00000000000E+00  0.00000000000E+00  0.44362889422E+02  0.44362889422E+02  0.00000000000E+00 0.  1.
         21   -1    0    0  502  503 -0.00000000000E+00 -0.00000000000E+00 -0.73956527002E+03  0.73956527002E+03  0.00000000000E+00 0.  1.
         -6    2    1    2    0  503 -0.40736468657E+01 -0.53659797845E+02 -0.32521308177E+03  0.37197728418E+03  0.17235887817E+03 0.  0.
        -24    2    3    3    0    0 -0.61456917424E+02 -0.22929032833E+02 -0.26038549359E+03  0.27998855744E+03  0.79311372297E+02 0.  0.
          6    2    1    2  501    0  0.40736468657E+01  0.53659797845E+02 -0.36998929882E+03  0.41195087526E+03  0.17296090276E+03 0.  0.
         24    2    5    5    0    0  0.46507686662E+02  0.59632428831E+02 -0.34522172743E+03  0.36223324612E+03  0.79472586595E+02 0.  0.
          5    1    5    5  501    0 -0.42434039796E+02 -0.59726309857E+01 -0.24767571388E+02  0.49717629135E+02  0.47000000000E+01 0. -1.
        -13    1    6    6    0    0 -0.10627720944E+02  0.50292752876E+02 -0.14688697110E+03  0.15562163000E+03  0.00000000000E+00 0.  1.
         14    1    6    6    0    0  0.57135407606E+02  0.93396759552E+01 -0.19833475633E+03  0.20661161613E+03  0.00000000000E+00 0. -1.
         -5    1    3    3    0  503  0.57383270558E+02 -0.30730765012E+02 -0.64827588181E+02  0.91988726742E+02  0.47000000000E+01 0.  1.
         11    1    4    4    0    0 -0.37440080521E+02 -0.51864769918E+02 -0.14124467007E+03  0.15505408995E+03  0.00000000000E+00 0. -1.
        -12    1    4    4    0    0 -0.24016836903E+02  0.28935737085E+02 -0.11914082353E+03  0.12493446749E+03  0.00000000000E+00 0.  1.
</event>
<event>
12    1  0.8133495E-002  0.1877569E+03  0.7818608E-02  0.1160620E+00
         21   -1    0    0  503  502  0.00000000000E+00  0.00000000000E+00  0.18599245070E+03  0.18599245070E+03  0.00000000000E+00 0. -1.
         21   -1    0    0  501  503 -0.00000000000E+00 -0.00000000000E+00 -0.22849867201E+03  0.22849867201E+03  0.00000000000E+00 0. -1.
          6    2    1    2  501    0 -0.31719457566E+02  0.65778049578E+02 -0.10738282731E+03  0.21584164426E+03  0.17240553356E+03 0.  0.
         24    2    3    3    0    0 -0.48775823718E+02  0.69448113305E+00 -0.11592857568E+03  0.14785701127E+03  0.77734791692E+02 0.  0.
         -6    2    1    2    0  502  0.31719457566E+02 -0.65778049578E+02  0.64876605998E+02  0.19864947845E+03  0.17297330860E+03 0.  0.
        -24    2    5    5    0    0  0.76503326814E+02 -0.35836685727E+02  0.31979408293E+01  0.11662248319E+03  0.80333988468E+02 0.  0.
          5    1    3    3  501    0  0.17056366152E+02  0.65083568445E+02  0.85457483712E+01  0.67984632992E+02  0.47000000000E+01 0. -1.
        -13    1    4    4    0    0  0.18516204623E+02  0.25534927637E+00 -0.51360746595E+02  0.54597081677E+02  0.00000000000E+00 0.  1.
         14    1    4    4    0    0 -0.67292028342E+02  0.43913185668E+00 -0.64567829086E+02  0.93259929594E+02  0.00000000000E+00 0. -1.
         -5    1    5    5    0  502 -0.44783869247E+02 -0.29941363851E+02  0.61678665169E+02  0.82026995258E+02  0.47000000000E+01 0.  1.
         11    1    6    6    0    0  0.25425062493E+02 -0.55856573653E+02  0.61714910947E+01  0.61680450106E+02  0.00000000000E+00 0. -1.
        -12    1    6    6    0    0  0.51078264320E+02  0.20019887926E+02 -0.29735502654E+01  0.54942033087E+02  0.00000000000E+00 0.  1.
</event>
<event>
12    1  0.8133495E-002  0.1842814E+03  0.7818608E-02  0.1163754E+00
         21   -1    0    0  503  502  0.00000000000E+00  0.00000000000E+00  0.12606837732E+04  0.12606837732E+04  0.00000000000E+00 0. -1.
         21   -1    0    0  501  503 -0.00000000000E+00 -0.00000000000E+00 -0.33315089878E+02  0.33315089878E+02  0.00000000000E+00 0. -1.
          6    2    1    2  501    0  0.47724770075E+02  0.48274237734E+02  0.32999599432E+03  0.37789986552E+03  0.17118088792E+03 0.  0.
         24    2    3    3    0    0  0.24318766104E+02  0.31598922457E+02  0.33621643691E+03  0.34812250722E+03  0.80980820577E+02 0.  0.
         -6    2    1    2    0  502 -0.47724770075E+02 -0.48274237734E+02  0.89737268903E+03  0.91609899758E+03  0.17132301259E+03 0.  0.
        -24    2    5    5    0    0 -0.24287962965E+02 -0.75935432815E+02  0.84252440960E+03  0.85018352597E+03  0.81293000701E+02 0.  0.
          5    1    3    3  501    0  0.23406003971E+02  0.16675315277E+02 -0.62204425895E+01  0.29777358302E+02  0.47000000000E+01 0. -1.
        -13    1    4    4    0    0  0.23406159003E+02 -0.23979444145E+02  0.15461302678E+03  0.15820256025E+03  0.00000000000E+00 0.  1.
         14    1    4    4    0    0  0.91260710112E+00  0.55578366602E+02  0.18160341013E+03  0.18991994697E+03  0.00000000000E+00 0. -1.
         -5    1    5    5    0  502 -0.23436807110E+02  0.27661195081E+02  0.54848279434E+02  0.65915471611E+02  0.47000000000E+01 0.  1.
         13    1    6    6    0    0  0.78424721717E+01 -0.80945331316E+02  0.59471516877E+03  0.60024976718E+03  0.00000000000E+00 0. -1.
        -14    1    6    6    0    0 -0.32130435137E+02  0.50098985010E+01  0.24780924083E+03  0.24993375879E+03  0.00000000000E+00 0.  1.
</event>
<event>
12    1  0.8133495E-002  0.2337970E+03  0.7818608E-02  0.1124036E+00
         21   -1    0    0  503  502  0.00000000000E+00  0.00000000000E+00  0.48976254755E+03  0.48976254755E+03  0.00000000000E+00 0.  1.
         21   -1    0    0  501  503 -0.00000000000E+00 -0.00000000000E+00 -0.11149610768E+03  0.11149610768E+03  0.00000000000E+00 0. -1.
          6    2    1    2  501    0 -0.28251351851E+02  0.15585488826E+03  0.18839600479E+03  0.30007464277E+03  0.17164746294E+03 0.  0.
         24    2    3    3    0    0  0.37926312293E-01  0.19884714571E+02  0.24569776673E+02  0.85250774417E+02  0.79174600100E+02 0.  0.
         -6    2    1    2    0  502  0.28251351851E+02 -0.15585488826E+03  0.18987043507E+03  0.30118401246E+03  0.17196552612E+03 0.  0.
        -24    2    5    5    0    0 -0.20308403080E+02 -0.31555669823E+02  0.12374259462E+03  0.15217620466E+03  0.80232013607E+02 0.  0.
          5    1    3    3  501    0 -0.28289278163E+02  0.13597017369E+03  0.16382622812E+03  0.21482386835E+03  0.47000000000E+01 0. -1.
        -13    1    4    4    0    0 -0.25052941351E+02 -0.21516092624E+02  0.12894887040E+02  0.35452365562E+02  0.00000000000E+00 0.  1.
         14    1    4    4    0    0  0.25090867664E+02  0.41400807195E+02  0.11674889632E+02  0.49798408855E+02  0.00000000000E+00 0. -1.
         -5    1    5    5    0  502  0.48559754931E+02 -0.12429921844E+03  0.66127840446E+02  0.14900780780E+03  0.47000000000E+01 0.  1.
         13    1    6    6    0    0 -0.15849646719E+02 -0.58695623730E+02  0.79531316613E+02  0.10010803099E+03  0.00000000000E+00 0. -1.
        -14    1    6    6    0    0 -0.44587563614E+01  0.27139953907E+02  0.44211278011E+02  0.52068173674E+02  0.00000000000E+00 0.  1.
</event>
<event>
12    1  0.8133495E-002  0.2200383E+03  0.7818608E-02  0.1133881E+00
         21   -1    0    0  501  502  0.00000000000E+00  0.00000000000E+00  0.17454052967E+04  0.17454052967E+04  0.00000000000E+00 0. -1.
         21   -1    0    0  502  503 -0.00000000000E+00 -0.00000000000E+00 -0.30978867483E+02  0.30978867483E+02  0.00000000000E+00 0.  1.
         -6    2    1    2    0  503  0.68605448275E+02  0.11799989821E+03  0.56895425205E+03  0.60996941192E+03  0.17240376749E+03 0.  0.
        -24    2    3    3    0    0 -0.24445120836E+02  0.72728105354E+02  0.35334689645E+03  0.37076956780E+03  0.82031103452E+02 0.  0.
          6    2    1    2  501    0 -0.68605448275E+02 -0.11799989821E+03  0.11454721772E+04  0.11664147523E+04  0.17258673794E+03 0.  0.
         24    2    5    5    0    0 -0.26430033807E+02  0.13344809282E+01  0.32843765272E+03  0.33962157149E+03  0.82287256423E+02 0.  0.
          5    1    5    5  501    0 -0.42175414467E+02 -0.11933437914E+03  0.81703452448E+03  0.82679318080E+03  0.47000000000E+01 0. -1.
        -13    1    6    6    0    0 -0.22524876332E+02 -0.29869804018E+02  0.70842190155E+02  0.80113614022E+02  0.00000000000E+00 0.  1.
         14    1    6    6    0    0 -0.39051574757E+01  0.31204284946E+02  0.25759546257E+03  0.25950795747E+03  0.00000000000E+00 0. -1.
         -5    1    3    3    0  503  0.93050569111E+02  0.45271792859E+02  0.21560735560E+03  0.23919984412E+03  0.47000000000E+01 0.  1.
         11    1    4    4    0    0  0.23391949970E+02  0.11651717044E+02  0.16522009916E+03  0.16727410738E+03  0.00000000000E+00 0. -1.
        -12    1    4    4    0    0 -0.47837070806E+02  0.61076388309E+02  0.18812679729E+03  0.20349546042E+03  0.00000000000E+00 0.  1.
</event>
<event>
12    1  0.8133495E-002  0.2027723E+03  0.7818608E-02  0.1147739E+00
         21   -1    0    0  503  502  0.00000000000E+00  0.00000000000E+00  0.78769479965E+02  0.78769479965E+02  0.00000000000E+00 0. -1.
         21   -1    0    0  501  503 -0.00000000000E+00 -0.00000000000E+00 -0.14507096715E+04  0.14507096715E+04  0.00000000000E+00 0. -1.
          6    2    1    2  501    0 -0.48375141275E+02 -0.95837942767E+02 -0.13000703773E+04  0.13157885788E+04  0.17202189636E+03 0.  0.
         24    2    3    3    0    0  0.19399102794E+02 -0.17263953845E+02 -0.83704753463E+03  0.84125779724E+03  0.79948338921E+02 0.  0.
         -6    2    1    2    0  502  0.48375141275E+02  0.95837942767E+02 -0.71869814270E+02  0.21369057261E+03  0.17021552530E+03 0.  0.
        -24    2    5    5    0    0  0.28207075767E+02 -0.16271524156E+02 -0.21754578769E+02  0.89155797272E+02  0.80094274877E+02 0.  0.
          5    1    3    3  501    0 -0.67774244069E+02 -0.78573988921E+02 -0.46302284263E+03  0.47453078161E+03  0.47000000000E+01 0. -1.
        -11    1    4    4    0    0  0.33253143021E+02  0.67633153950E+01 -0.15610670094E+03  0.15975235846E+03  0.00000000000E+00 0.  1.
         12    1    4    4    0    0 -0.13854040227E+02 -0.24027269240E+02 -0.68094083369E+03  0.68150543878E+03  0.00000000000E+00 0. -1.
         -5    1    5    5    0  502  0.20168065508E+02  0.11210946692E+03 -0.50115235502E+02  0.12453477534E+03  0.47000000000E+01 0.  1.
         11    1    6    6    0    0 -0.13008042292E+02 -0.14303617847E+01  0.23043077556E+02  0.26499783440E+02  0.00000000000E+00 0. -1.
        -12    1    6    6    0    0  0.41215118059E+02 -0.14841162371E+02 -0.44797656324E+02  0.62656013832E+02  0.00000000000E+00 0.  1.
</event>
<event>
12    1  0.8133495E-002  0.2494727E+03  0.7818608E-02  0.1113658E+00
         21   -1    0    0  501  502  0.00000000000E+00  0.00000000000E+00  0.22363758479E+03  0.22363758479E+03  0.00000000000E+00 0.  1.
         21   -1    0    0  502  503 -0.00000000000E+00 -0.00000000000E+00 -0.45968224983E+03  0.45968224983E+03  0.00000000000E+00 0. -1.
         -6    2    1    2    0  503 -0.17331487368E+03 -0.51183663669E+02 -0.33274197707E+03  0.41587722654E+03  0.17198497429E+03 0.  0.
        -24    2    3    3    0    0 -0.10953850694E+03  0.23081623189E+02 -0.25939890025E+03  0.29346785310E+03  0.79398649386E+02 0.  0.
          6    2    1    2  501    0  0.17331487368E+03  0.51183663669E+02  0.96697312036E+02  0.26744260808E+03  0.17180618613E+03 0.  0.
         24    2    5    5    0    0  0.14056212847E+03  0.12975224723E+02  0.12649751330E+03  0.20876749307E+03  0.87499582140E+02 0.  0.
          5    1    5    5  501    0  0.32752745213E+02  0.38208438946E+02 -0.29800201263E+02  0.58675115007E+02  0.47000000000E+01 0. -1.
        -11    1    6    6    0    0  0.96515447809E+02  0.31348477394E+02  0.12501718691E+03  0.16101942654E+03  0.00000000000E+00 0.  1.
         12    1    6    6    0    0  0.44046680661E+02 -0.18373252672E+02  0.14803263906E+01  0.47748066529E+02  0.00000000000E+00 0. -1.
         -5    1    3    3    0  503 -0.63776366744E+02 -0.74265286858E+02 -0.73343076826E+02  0.12240937344E+03  0.47000000000E+01 0.  1.
         13    1    4    4    0    0 -0.90391260409E+02  0.22312757955E+02 -0.11575723245E+03  0.14855361318E+03  0.00000000000E+00 0. -1.
        -14    1    4    4    0    0 -0.19147246529E+02  0.76886523376E+00 -0.14364166780E+03  0.14491423992E+03  0.00000000000E+00 0.  1.
</event>
<event>
12    1  0.8133495E-002  0.2093462E+03  0.7818608E-02  0.1142643E+00
         21   -1    0    0  503  502  0.00000000000E+00  0.00000000000E+00  0.11818682857E+04  0.11818682857E+04  0.00000000000E+00 0.  1.
         21   -1    0    0  501  503 -0.00000000000E+00 -0.00000000000E+00 -0.37378056483E+02  0.37378056483E+02  0.00000000000E+00 0. -1.
          6    2    1    2  501    0 -0.65842358836E+02  0.10005179535E+03  0.65703384796E+03  0.68873757373E+03  0.16828663090E+03 0.  0.
         24    2    3    3    0    0 -0.41779842442E+02  0.13531249222E+03  0.53610153365E+03  0.56040583143E+03  0.81208470807E+02 0.  0.
         -6    2    1    2    0  502  0.65842358836E+02 -0.10005179535E+03  0.48745638126E+03  0.53050876845E+03  0.17169814152E+03 0.  0.
        -24    2    5    5    0    0  0.24061209640E+02  0.12843364099E+02  0.14904645252E+03  0.17129525072E+03  0.79895707629E+02 0.  0.
          5    1    3    3  501    0 -0.24062516394E+02 -0.35260696874E+02  0.12093231431E+03  0.12833174231E+03  0.47000000000E+01 0. -1.
        -13    1    4    4    0    0  0.18157336766E+02  0.55012723163E+02  0.26802668228E+03  0.27421595687E+03  0.00000000000E+00 0.  1.
         14    1    4    4    0    0 -0.59937179208E+02  0.80299769059E+02  0.26807485137E+03  0.28618987456E+03  0.00000000000E+00 0. -1.
         -5    1    5    5    0  502  0.41781149196E+02 -0.11289515945E+03  0.33840992873E+03  0.35921351773E+03  0.47000000000E+01 0.  1.
         11    1    6    6    0    0 -0.10878150890E+01 -0.40267070358E+00 -0.98289810325E+01  0.98971891717E+01  0.00000000000E+00 0. -1.
        -12    1    6    6    0    0  0.25149024729E+02  0.13246034803E+02  0.15887543356E+03  0.16139806154E+03  0.00000000000E+00 0.  1.
</event>
<event>
12    1  0.8133495E-002  0.1816734E+03  0.7818608E-02  0.1167359E+00
         21   -1    0    0  503  502  0.00000000000E+00  0.00000000000E+00  0.19445489573E+02  0.19445489573E+02  0.00000000000E+00 0.  1.
         21   -1    0    0  501  503 -0.00000000000E+00 -0.00000000000E+00 -0.16629013080E+04  0.16629013080E+04  0.00000000000E+00 0.  1.
          6    2    1    2  501    0 -0.42192843432E+02 -0.37673926700E+02 -0.76681264655E+03  0.78803989394E+03  0.17264321228E+03 0.  0.
         24    2    3    3    0    0 -0.63565455074E+02 -0.10005848752E+02 -0.24209478260E+03  0.26213758571E+03  0.77236947038E+02 0.  0.
         -6    2    1    2    0  502  0.42192843432E+02  0.37673926700E+02 -0.87664317188E+03  0.89430690364E+03  0.16757692648E+03 0.  0.
        -24    2    5    5    0    0  0.12777087722E+02 -0.37557963208E+02 -0.42907160047E+03  0.43947998548E+03  0.86408128870E+02 0.  0.
          5    1    3    3  501    0  0.21372611641E+02 -0.27668077948E+02 -0.52471786395E+03  0.52590230824E+03  0.47000000000E+01 0. -1.
        -11    1    4    4    0    0  0.86281303645E+01 -0.27480117518E+01  0.35638373548E+00  0.90621858037E+01  0.00000000000E+00 0.  1.
         12    1    4    4    0    0 -0.72193585438E+02 -0.72578369999E+01 -0.24245116634E+03  0.25307539990E+03  0.00000000000E+00 0. -1.
         -5    1    5    5    0  502  0.29415755710E+02  0.75231889908E+02 -0.44757157141E+03  0.45482691816E+03  0.47000000000E+01 0.  1.
         11    1    6    6    0    0  0.44687980953E+02 -0.74181289969E+01 -0.14140345814E+03  0.14848226242E+03  0.00000000000E+00 0. -1.
        -12    1    6    6    0    0 -0.31910893231E+02 -0.30139834211E+02 -0.28766814234E+03  0.29099772306E+03  0.00000000000E+00 0.  1.
</event>
<event>
12    1  0.8133495E-002  0.1754826E+03  0.7818608E-02  0.1172383E+00
         21   -1    0    0  501  502  0.00000000000E+00  0.00000000000E+00  0.13012714204E+04  0.13012714204E+04  0.00000000000E+00 0. -1.
         21   -1    0    0  502  503 -0.00000000000E+00 -0.00000000000E+00 -0.69567094729E+02  0.69567094729E+02  0.00000000000E+00 0. -1.
         -6    2    1    2    0  503 -0.32400377218E+01 -0.34068451461E+02  0.58967711965E+02  0.18512515341E+03  0.17211325963E+03 0.  0.
        -24    2    3    3    0    0 -0.34779835152E+02 -0.59802597214E+02  0.85725566222E+02  0.13618562088E+03  0.80072860969E+02 0.  0.
          6    2    1    2  501    0  0.32400377218E+01  0.34068451461E+02  0.11727366137E+04  0.11857133618E+04  0.17156297330E+03 0.  0.
         24    2    5    5    0    0 -0.36835265180E+02  0.47092611479E+02  0.41720735274E+03  0.42899530800E+03  0.80002801769E+02 0.  0.
          5    1    5    5  501    0  0.40075302902E+02 -0.13024160018E+02  0.75552926101E+03  0.75671805376E+03  0.47000000000E+01 0. -1.
        -13    1    6    6    0    0  0.16873193339E+02  0.20534071166E+02  0.47200308166E+02  0.54168457824E+02  0.00000000000E+00 0.  1.
         14    1    6    6    0    0 -0.53708458519E+02  0.26558540313E+02  0.37000704457E+03  0.37482685018E+03  0.00000000000E+00 0. -1.
         -5    1    3    3    0  503  0.31539797431E+02  0.25734145753E+02 -0.26757854257E+02  0.48939532528E+02  0.47000000000E+01 0.  1.
         11    1    4    4    0    0 -0.39644943730E+02 -0.74459022002E+00  0.11657681292E+02  0.41330104174E+02  0.00000000000E+00 0. -1.
        -12    1    4    4    0    0  0.48651085777E+01 -0.59058006994E+02  0.74067884930E+02  0.94855516706E+02  0.00000000000E+00 0.  1.
</event>
<event>
12    1  0.8133495E-002  0.1755364E+03  0.7818608E-02  0.1172688E+00
         21   -1    0    0  501  502  0.00000000000E+00  0.00000000000E+00  0.11410637072E+04  0.11410637072E+04  0.00000000000E+00 0.  1.
         21   -1    0    0  502  503 -0.00000000000E+00 -0.00000000000E+00 -0.26844781309E+02  0.26844781309E+02  0.00000000000E+00 0.  1.
         -6    2    1    2    0  503 -0.26129334872E+02  0.55950993208E+01  0.59650515388E+03  0.62124537149E+03  0.17150325276E+03 0.  0.
        -24    2    3    3    0    0 -0.10056613772E+02 -0.16105745826E+02  0.12743354680E+03  0.15137355746E+03  0.79461402702E+02 0.  0.
          6    2    1    2  501    0  0.26129334872E+02 -0.55950993208E+01  0.51771377198E+03  0.54666311699E+03  0.17349053723E+03 0.  0.
         24    2    5    5    0    0  0.38252024799E+02 -0.56947738552E+02  0.44321874848E+03  0.45525386312E+03  0.78147031651E+02 0.  0.
          5    1    5    5  501    0 -0.12122689926E+02  0.51352639232E+02  0.74495023497E+02  0.91409253869E+02  0.47000000000E+01 0. -1.
        -13    1    6    6    0    0  0.47125080485E+02 -0.95816334793E+01  0.30741108112E+03  0.31114972876E+03  0.00000000000E+00 0.  1.
         14    1    6    6    0    0 -0.88730556859E+01 -0.47366105073E+02  0.13580766736E+03  0.14410413436E+03  0.00000000000E+00 0. -1.
         -5    1    3    3    0  503 -0.16072721101E+02  0.21700845147E+02  0.46907160708E+03  0.46987181403E+03  0.47000000000E+01 0.  1.
         11    1    4    4    0    0  0.31154993180E+01  0.22483999787E+02  0.99232768912E+02  0.10179577107E+03  0.00000000000E+00 0. -1.
        -12    1    4    4    0    0 -0.13172113090E+02 -0.38589745612E+02  0.28200777888E+02  0.49577786388E+02  0.00000000000E+00 0.  1.
</event>
<event>
12    1  0.8133495E-002  0.3203135E+03  0.7818608E-02  0.1075525E+00
         21   -1    0    0  503  502  0.00000000000E+00  0.00000000000E+00  0.16941970257E+04  0.16941970257E+04  0.00000000000E+00 0. -1.
         21   -1    0    0  501  503 -0.00000000000E+00 -0.00000000000E+00 -0.67132556616E+02  0.67132556616E+02  0.00000000000E+00 0.  1.
          6    2    1    2  501    0 -0.10686359123E+03 -0.24721598565E+03  0.10899845245E+04  0.11360752689E+04  0.17339314363E+03 0.  0.
         24    2    3    3    0    0 -0.11395023117E+03 -0.20372497398E+03  0.10420057408E+04  0.10707626189E+04  0.79171345812E+02 0.  0.
         -6    2    1    2    0  502  0.10686359123E+03  0.24721598565E+03  0.53707994466E+03  0.62525431349E+03  0.17306796033E+03 0.  0.
        -24    2    5    5    0    0 -0.56831438689E+01  0.77510647341E+02  0.24078696799E+03  0.26570141411E+03  0.81109055782E+02 0.  0.
          5    1    3    3  501    0  0.70866399374E+01 -0.43491011669E+02  0.47978783672E+02  0.65312649955E+02  0.47000000000E+01 0. -1.
        -11    1    4    4    0    0  0.80041416366E+01 -0.30250533688E+02  0.85848158594E+02  0.91373231341E+02  0.00000000000E+00 0.  1.
         12    1    4    4    0    0 -0.12195437280E+03 -0.17347444029E+03  0.95615758220E+03  0.97938938757E+03  0.00000000000E+00 0. -1.
         -5    1    5    5    0  502  0.11254673510E+03  0.16970533831E+03  0.29629297667E+03  0.35955289939E+03  0.47000000000E+01 0.  1.
         11    1    6    6    0    0  0.25589705895E+02  0.76906262204E+02  0.17283532034E+03  0.19089644881E+03  0.00000000000E+00 0. -1.
        -12    1    6    6    0    0 -0.31272849764E+02  0.60438513611E+00  0.67951647653E+02  0.74804965293E+02  0.00000000000E+00 0.  1.
</event>
<event>
12    1  0.8133495E-002  0.2414689E+03  0.7818608E-02  0.1119677E+00
         21   -1    0    0  503  502  0.00000000000E+00  0.00000000000E+00  0.61959845288E+03  0.61959845288E+03  0.00000000000E+00 0. -1.
         21   -1    0    0  501  503 -0.00000000000E+00 -0.00000000000E+00 -0.22462601576E+03  0.22462601576E+03  0.00000000000E+00 0.  1.
          6    2    1    2  501    0 -0.87891786809E+02  0.13484185535E+03  0.52081748269E+03  0.57193011071E+03  0.17304886338E+03 0.  0.
         24    2    3    3    0    0 -0.55841740698E+02  0.10595361156E+03  0.18903919651E+03  0.23732488471E+03  0.79011488276E+02 0.  0.
         -6    2    1    2    0  502  0.87891786809E+02 -0.13484185535E+03 -0.12584504556E+03  0.27229435793E+03  0.17999986035E+03 0.  0.
        -24    2    5    5    0    0  0.11310678932E+03 -0.99025955918E+02 -0.14660682676E+03  0.22359408522E+03  0.76821009869E+02 0.  0.
          5    1    3    3  501    0 -0.32050046111E+02  0.28888243794E+02  0.33177828617E+03  0.33460522599E+03  0.47000000000E+01 0. -1.
        -13    1    4    4    0    0 -0.67761681539E+02  0.44960756651E+02  0.10884543425E+03  0.13586921535E+03  0.00000000000E+00 0.  1.
         14    1    4    4    0    0  0.11919940841E+02  0.60992854910E+02  0.80193762268E+02  0.10145566937E+03  0.00000000000E+00 0. -1.
         -5    1    5    5    0  502 -0.25215002509E+02 -0.35815899437E+02  0.20761781198E+02  0.48700272715E+02  0.47000000000E+01 0.  1.
         11    1    6    6    0    0 -0.52525030975E+01 -0.16621575769E+02 -0.41873434968E+02  0.45356919272E+02  0.00000000000E+00 0. -1.
        -12    1    6    6    0    0  0.11835929242E+03 -0.82404380149E+02 -0.10473339179E+03  0.17823716595E+03  0.00000000000E+00 0.  1.
</event>
<event>
12    1  0.8133495E-002  0.2998974E+03  0.7818608E-02  0.1085434E+00
         21   -1    0    0  503  502  0.00000000000E+00  0.00000000000E+00  0.15607549321E+03  0.15607549321E+03  0.00000000000E+00 0. -1.
         21   -1    0    0  501  503 -0.00000000000E+00 -0.00000000000E+00 -0.64136004004E+03  0.64136004004E+03  0.00000000000E+00 0.  1.
          6    2    1    2  501    0 -0.22559871876E+03  0.95425772699E+02 -0.37219867558E+03  0.47798570198E+03  0.17302490339E+03 0.  0.
         24    2    3    3    0    0 -0.39738215354E+02  0.63391696998E+02 -0.16596043115E+03  0.19847432082E+03  0.79066796505E+02 0.  0.
         -6    2    1    2    0  502  0.22559871876E+03 -0.95425772699E+02 -0.11308587125E+03  0.31944983127E+03  0.17105239088E+03 0.  0.
        -24    2    5    5    0    0  0.81143373558E+02 -0.68328205513E+02  0.46250823014E+01  0.13108958205E+03  0.76877151313E+02 0.  0.
          5    1    3    3  501    0 -0.18586050340E+03  0.32034075701E+02 -0.20623824443E+03  0.27951138116E+03  0.47000000000E+01 0. -1.
        -13    1    4    4    0    0 -0.45298110092E+02  0.79672404292E+02 -0.13946881151E+03  0.16688666864E+03  0.00000000000E+00 0.  1.
         14    1    4    4    0    0  0.55598947383E+01 -0.16280707294E+02 -0.26491619641E+02  0.31587652187E+02  0.00000000000E+00 0. -1.
         -5    1    5    5    0  502  0.14445534520E+03 -0.27097567185E+02 -0.11771095355E+03  0.18836024923E+03  0.47000000000E+01 0.  1.
         11    1    6    6    0    0  0.70840303632E+02 -0.25234955965E+02  0.28905950164E+02  0.80564915292E+02  0.00000000000E+00 0. -1.
        -12    1    6    6    0    0  0.10303069926E+02 -0.43093249548E+02 -0.24280867863E+02  0.50524666755E+02  0.00000000000E+00 0.  1.
</event>
<event>
12    1  0.8133495E-002  0.1922452E+03  0.7818608E-02  0.1156496E+00
         21   -1    0    0  501  502  0.00000000000E+00  0.00000000000E+00  0.39513357092E+02  0.39513357092E+02  0.00000000000E+00 0.  1.
         21   -1    0    0  502  503 -0.00000000000E+00 -0.00000000000E+00 -0.10790931592E+04  0.10790931592E+04  0.00000000000E+00 0. -1.
         -6    2    1    2    0  503 -0.57078972748E+02 -0.64646753292E+02 -0.31518931822E+03  0.36919173600E+03  0.17181682039E+03 0.  0.
        -24    2    3    3    0    0 -0.33246294605E+02  0.26108702953E+02 -0.10193504019E+03  0.13615949255E+03  0.79760106062E+02 0.  0.
          6    2    1    2  501    0  0.57078972748E+02  0.64646753292E+02 -0.72439048388E+03  0.74941478029E+03  0.17159174787E+03 0.  0.
         24    2    5    5    0    0  0.72034798152E+02  0.96043524289E+02 -0.42770291925E+03  0.45065896872E+03  0.75831050668E+02 0.  0.
          5    1    5    5  501    0 -0.14955825404E+02 -0.31396770996E+02 -0.29668756463E+03  0.29875581157E+03  0.47000000000E+01 0. -1.
        -13    1    6    6    0    0  0.50085606176E+02  0.16805178314E+02 -0.10364270848E+03  0.11633053333E+03  0.00000000000E+00 0.  1.
         14    1    6    6    0    0  0.21949191976E+02  0.79238345974E+02 -0.32406021077E+03  0.33432843539E+03  0.00000000000E+00 0. -1.
         -5    1    3    3    0  503 -0.23832678143E+02 -0.90755456246E+02 -0.21325427804E+03  0.23303224345E+03  0.47000000000E+01 0.  1.
         11    1    4    4    0    0  0.56171577436E+00  0.15074719323E+02 -0.99365152047E+02  0.10050371201E+03  0.00000000000E+00 0. -1.
        -12    1    4    4    0    0 -0.33808010379E+02  0.11033983631E+02 -0.25698881378E+01  0.35655780536E+02  0.00000000000E+00 0.  1.
</event>
<event>
12    1  0.8133495E-002  0.1751626E+03  0.7818608E-02  0.1172612E+00
         21   -1    0    0  501  502  0.00000000000E+00  0.00000000000E+00  0.11737279634E+03  0.11737279634E+03  0.00000000000E+00 0.  1.
         21   -1    0    0  502  503 -0.00000000000E+00 -0.00000000000E+00 -0.76295103311E+03  0.76295103311E+03  0.00000000000E+00 0.  1.
         -6    2    1    2    0  503  0.31602609300E+02  0.23193139450E+02 -0.67970423141E+03  0.70186787164E+03  0.17054037766E+03 0.  0.
        -24    2    3    3    0    0 -0.95659628727E+01  0.47976504691E+02 -0.60957209004E+03  0.61672285546E+03  0.79847948264E+02 0.  0.
          6    2    1    2  501    0 -0.31602609300E+02 -0.23193139450E+02  0.34125994640E+02  0.17845595781E+03  0.17071994241E+03 0.  0.
         24    2    5    5    0    0  0.27770417570E+02 -0.68594524826E+02  0.42064912354E+02  0.10314620726E+03  0.58251852264E+02 0.  0.
          5    1    5    5  501    0 -0.59373026870E+02  0.45401385376E+02 -0.79389177149E+01  0.75309750552E+02  0.47000000000E+01 0. -1.
        -11    1    6    6    0    0  0.76477671055E+01 -0.23102994513E+01  0.32199604268E+02  0.33175899992E+02  0.00000000000E+00 0.  1.
         12    1    6    6    0    0  0.20122650464E+02 -0.66284225375E+02  0.98653080863E+01  0.69970307266E+02  0.00000000000E+00 0. -1.
         -5    1    3    3    0  503  0.41168572173E+02 -0.24783365241E+02 -0.70132141366E+02  0.85145016178E+02  0.47000000000E+01 0.  1.
         13    1    4    4    0    0  0.63754193504E+01  0.37501156578E+02 -0.10313060740E+03  0.10992226753E+03  0.00000000000E+00 0. -1.
        -14    1    4    4    0    0 -0.15941382223E+02  0.10475348113E+02 -0.50644148264E+03  0.50680058793E+03  0.00000000000E+00 0.  1.
</event>
<event>
12    1  0.8133495E-002  0.1938575E+03  0.7818608E-02  0.1155052E+00
         21   -1    0    0  503  502  0.00000000000E+00  0.00000000000E+00  0.24936725314E+02  0.24936725314E+02  0.00000000000E+00 0. -1.
         21   -1    0    0  501  503 -0.00000000000E+00 -0.00000000000E+00 -0.15626776134E+04  0.15626776134E+04  0.00000000000E+00 0. -1.
          6    2    1    2  501    0 -0.42784649760E+02 -0.77597643921E+02 -0.91961155924E+03  0.93979909517E+03  0.17229335099E+03 0.  0.
         24    2    3    3    0    0 -0.34451623619E+01 -0.50144602695E+02 -0.85040661450E+03  0.85546239428E+03  0.78090637789E+02 0.  0.
         -6    2    1    2    0  502  0.42784649760E+02  0.77597643921E+02 -0.61812932885E+03  0.64781524354E+03  0.17242042220E+03 0.  0.
        -24    2    5    5    0    0  0.82964578625E+02  0.93140511438E+02 -0.44695225536E+03  0.47123753288E+03  0.82098828560E+02 0.  0.
          5    1    3    3  501    0 -0.39339487398E+02 -0.27453041227E+02 -0.69204944740E+02  0.84336700895E+02  0.47000000000E+01 0. -1.
        -11    1    4    4    0    0 -0.38440639961E+02 -0.41622938074E+02 -0.49271505483E+03  0.49596197136E+03  0.00000000000E+00 0.  1.
         12    1    4    4    0    0  0.34995477599E+02 -0.85216646211E+01 -0.35769155967E+03  0.35950042292E+03  0.00000000000E+00 0. -1.
         -5    1    5    5    0  502 -0.40179928864E+02 -0.15542867516E+02 -0.17117707349E+03  0.17657771066E+03  0.47000000000E+01 0.  1.
         11    1    6    6    0    0 -0.10976598563E+02  0.34628960356E+02 -0.14987726185E+03  0.15421687402E+03  0.00000000000E+00 0. -1.
        -12    1    6    6    0    0  0.93941177187E+02  0.58511551082E+02 -0.29707499351E+03  0.31702065887E+03  0.00000000000E+00 0.  1.
</event>
<event>
12    1  0.8133495E-002  0.1901694E+03  0.7818608E-02  0.1158657E+00
         21   -1    0    0  501  502  0.00000000000E+00  0.00000000000E+00  0.11220646193E+04  0.11220646193E+04  0.00000000000E+00 0.  1.
         21   -1    0    0  502  503 -0.00000000000E+00 -0.00000000000E+00 -0.32288757424E+02  0.32288757424E+02  0.00000000000E+00 0. -1.
         -6    2    1    2    0  503  0.10173607784E+02  0.79776483915E+02  0.48971938430E+03  0.52534701186E+03  0.17232706647E+03 0.  0.
        -24    2    3    3    0    0 -0.27534797444E+02 -0.17814073471E+02  0.21399163499E+03  0.23040002942E+03  0.78843182504E+02 0.  0.
          6    2    1    2  501    0 -0.10173607784E+02 -0.79776483915E+02  0.60005647757E+03  0.62900636484E+03  0.17062661300E+03 0.  0.
         24    2    5    5    0    0 -0.17330808318E+02 -0.11658283499E+03  0.53473602307E+03  0.55354256707E+03  0.81085417061E+02 0.  0.
          5    1    5    5  501    0  0.71572005331E+01  0.36806351073E+02  0.65320454496E+02  0.75463797773E+02  0.47000000000E+01 0. -1.
        -11    1    6    6    0    0  0.12562304799E+02 -0.52838849429E+02  0.37588277791E+03  0.37978627969E+03  0.00000000000E+00 0.  1.
         12    1    6    6    0    0 -0.29893113117E+02 -0.63743985559E+02  0.15885324516E+03  0.17375628738E+03  0.00000000000E+00 0. -1.
         -5    1    3    3    0  503  0.37708405229E+02  0.97590557386E+02  0.27572774930E+03  0.29494698244E+03  0.47000000000E+01 0.  1.
         11    1    4    4    0    0  0.81933381311E+00  0.26404191242E+02  0.34940825034E+02  0.43803126340E+02  0.00000000000E+00 0. -1.
        -12    1    4    4    0    0 -0.28354131257E+02 -0.44218264713E+02  0.17905080996E+03  0.18659690308E+03  0.00000000000E+00 0.  1.
</event>
<event>
12    1  0.8133495E-002  0.1869229E+03  0.7818608E-02  0.1161663E+00
         21   -1    0    0  503  502  0.00000000000E+00  0.00000000000E+00  0.12449547351E+03  0.12449547351E+03  0.00000000000E+00 0. -1.
         21   -1    0    0  501  503 -0.00000000000E+00 -0.00000000000E+00 -0.11452224460E+04  0.11452224460E+04  0.00000000000E+00 0. -1.
          6    2    1    2  501    0 -0.12822811709E+02 -0.75376134888E+02 -0.10622195105E+04  0.10782452029E+04  0.16869037536E+03 0.  0.
         24    2    3    3    0    0  0.95023633103E+01  0.12909273105E+02 -0.27800533065E+03  0.28874745327E+03  0.76362187336E+02 0.  0.
         -6    2    1    2    0  502  0.12822811709E+02  0.75376134888E+02  0.41492537998E+02  0.19147271669E+03  0.17057017417E+03 0.  0.
        -24    2    5    5    0    0  0.44706920234E+02  0.66044194603E+02  0.81592967643E+02  0.13918681091E+03  0.79718326653E+02 0.  0.
          5    1    3    3  501    0 -0.22325175019E+02 -0.88285407993E+02 -0.78421417986E+03  0.78949774959E+03  0.47000000000E+01 0. -1.
        -13    1    4    4    0    0  0.28544069419E+02  0.37013456717E+02 -0.18434358651E+03  0.19017706950E+03  0.00000000000E+00 0.  1.
         14    1    4    4    0    0 -0.19041706109E+02 -0.24104183612E+02 -0.93661744146E+02  0.98570383765E+02  0.00000000000E+00 0. -1.
         -5    1    5    5    0  502 -0.31884108525E+02  0.93319402851E+01 -0.40100429645E+02  0.52285905784E+02  0.47000000000E+01 0.  1.
         11    1    6    6    0    0  0.20163857298E+02  0.40108987608E+02 -0.53376810021E+01  0.45208438002E+02  0.00000000000E+00 0. -1.
        -12    1    6    6    0    0  0.24543062936E+02  0.25935206994E+02  0.86930648645E+02  0.93978372905E+02  0.00000000000E+00 0.  1.
</event>
<event>
12    1  0.8133495E-002  0.1815127E+03  0.7818608E-02  0.1166441E+00
         21   -1    0    0  501  502  0.00000000000E+00  0.00000000000E+00  0.13070568951E+04  0.13070568951E+04  0.00000000000E+00 0.  1.
         21   -1    0    0  502  503 -0.00000000000E+00 -0.00000000000E+00 -0.28006440318E+02  0.28006440318E+02  0.00000000000E+00 0.  1.
         -6    2    1    2    0  503  0.99157125379E+01  0.55277027130E+02  0.42705216076E+03  0.46402629755E+03  0.17260644751E+03 0.  0.
        -24    2    3    3    0    0 -0.41169211107E+02  0.47201825738E+01  0.33761989230E+03  0.34919649045E+03  0.78954500828E+02 0.  0.
          6    2    1    2  501    0 -0.99157125379E+01 -0.55277027130E+02  0.85199829404E+03  0.87103703790E+03  0.17219337167E+03 0.  0.
         24    2    5    5    0    0 -0.56352065446E+02  0.11618235054E+02  0.48435345982E+03  0.49445221995E+03  0.81081348717E+02 0.  0.
          5    1    5    5  501    0  0.46436352908E+02 -0.66895262184E+02  0.36764483422E+03  0.37658481794E+03  0.47000000000E+01 0. -1.
        -13    1    6    6    0    0 -0.49854237851E+02 -0.13363245654E+02  0.14134743520E+03  0.15047630646E+03  0.00000000000E+00 0.  1.
         14    1    6    6    0    0 -0.64978275946E+01  0.24981480708E+02  0.34300602462E+03  0.34397591350E+03  0.00000000000E+00 0. -1.
         -5    1    3    3    0  503  0.51084923645E+02  0.50556844556E+02  0.89432268465E+02  0.11482980710E+03  0.47000000000E+01 0.  1.
         11    1    4    4    0    0 -0.35223414484E+02  0.14660014268E+01  0.48300936574E+02  0.59798148483E+02  0.00000000000E+00 0. -1.
        -12    1    4    4    0    0 -0.59457966236E+01  0.32541811470E+01  0.28931895572E+03  0.28939834197E+03  0.00000000000E+00 0.  1.
</event>
<event>
12    1  0.8133495E-002  0.1790192E+03  0.7818608E-02  0.1170591E+00
         21   -1    0    0  501  502  0.00000000000E+00  0.00000000000E+00  0.26745857285E+03  0.26745857285E+03  0.00000000000E+00 0.  1.
         21   -1    0    0  502  503 -0.00000000000E+00 -0.00000000000E+00 -0.20654586022E+03  0.20654586022E+03  0.00000000000E+00 0.  1.
         -6    2    1    2    0  503 -0.53740896656E+01  0.36735159735E+02 -0.12771236567E+03  0.21395197850E+03  0.16759071561E+03 0.  0.
        -24    2    3    3    0    0 -0.16442092461E+01  0.63555422911E+02 -0.14807283999E+03  0.17974850735E+03  0.79636453627E+02 0.  0.
          6    2    1    2  501    0  0.53740896656E+01 -0.36735159735E+02  0.18862507830E+03  0.26005245458E+03  0.17512711431E+03 0.  0.
         24    2    5    5    0    0 -0.23121307396E+02 -0.43459595219E+02  0.20552359846E+03  0.22592247260E+03  0.79860395876E+02 0.  0.
          5    1    5    5  501    0  0.28495397062E+02  0.67244354842E+01 -0.16898520156E+02  0.34129981977E+02  0.47000000000E+01 0. -1.
        -11    1    6    6    0    0 -0.22329923707E+01 -0.62927742475E+01  0.17081725153E+03  0.17094770746E+03  0.00000000000E+00 0.  1.
         12    1    6    6    0    0 -0.20888315026E+02 -0.37166820972E+02  0.34706346926E+02  0.54974765144E+02  0.00000000000E+00 0. -1.
         -5    1    3    3    0  503 -0.37298804195E+01 -0.26820263176E+02  0.20360474311E+02  0.34203471154E+02  0.47000000000E+01 0.  1.
         11    1    4    4    0    0 -0.22361051471E+02  0.34277041536E+02 -0.17801421151E+02  0.44629841971E+02  0.00000000000E+00 0. -1.
        -12    1    4    4    0    0  0.20716842225E+02  0.29278381375E+02 -0.13027141883E+03  0.13511866537E+03  0.00000000000E+00 0.  1.
</event>
<event>
12    1  0.8133495E-002  0.1804761E+03  0.7818608E-02  0.1167423E+00
         21   -1    0    0  503  502  0.00000000000E+00  0.00000000000E+00  0.27746777976E+03  0.27746777976E+03  0.00000000000E+00 0.  1.
         21   -1    0    0  501  503 -0.00000000000E+00 -0.00000000000E+00 -0.17352462299E+03  0.17352462299E+03  0.00000000000E+00 0.  1.
          6    2    1    2  501    0  0.38781385811E+02  0.35606730179E+02 -0.76497274234E+02  0.19601903309E+03  0.17262616618E+03 0.  0.
         24    2    3    3    0    0 -0.17978263884E+02  0.75054803705E+02 -0.43301795412E+02  0.11919561119E+03  0.79850527297E+02 0.  0.
         -6    2    1    2    0  502 -0.38781385811E+02 -0.35606730179E+02  0.18044043100E+03  0.25497336965E+03  0.17228126704E+03 0.  0.
        -24    2    5    5    0    0  0.46643657903E+02 -0.29385933198E+02  0.78858507833E+02  0.12201806317E+03  0.75037188038E+02 0.  0.
          5    1    3    3  501    0  0.56759649695E+02 -0.39448073527E+02 -0.33195478823E+02  0.76823421902E+02  0.47000000000E+01 0. -1.
        -13    1    4    4    0    0 -0.31413166092E+02  0.58091090231E+02 -0.62010038160E+02  0.90590322887E+02  0.00000000000E+00 0.  1.
         14    1    4    4    0    0  0.13434902208E+02  0.16963713475E+02  0.18708242748E+02  0.28605288303E+02  0.00000000000E+00 0. -1.
         -5    1    5    5    0  502 -0.85425043714E+02 -0.62207969803E+01  0.10158192317E+03  0.13295530649E+03  0.47000000000E+01 0.  1.
         13    1    6    6    0    0  0.84026909954E+01  0.22078157070E+02  0.48807311586E+01  0.24122018411E+02  0.00000000000E+00 0. -1.
        -14    1    6    6    0    0  0.38240966908E+02 -0.51464090268E+02  0.73977776674E+02  0.97896044756E+02  0.00000000000E+00 0.  1.
</event>
<event>
12    1  0.8133495E-002  0.2058643E+03  0.7818608E-02  0.1145021E+00
         21   -1    0    0  503  502  0.00000000000E+00  0.00000000000E+00  0.26639366996E+03  0.26639366996E+03  0.00000000000E+00 0. -1.
         21   -1    0    0  501  503 -0.00000000000E+00 -0.00000000000E+00 -0.19612121569E+03  0.19612121569E+03  0.00000000000E+00 0. -1.
          6    2    1    2  501    0  0.51633579602E+02 -0.99767845449E+02 -0.66013545237E+02  0.21618948293E+03  0.17251218754E+03 0.  0.
         24    2    3    3    0    0  0.38947594745E+02 -0.11083235774E+03  0.32568978606E+01  0.14474830482E+03  0.84502885779E+02 0.  0.
         -6    2    1    2    0  502 -0.51633579602E+02  0.99767845449E+02  0.13628599950E+03  0.24632540272E+03  0.17170521493E+03 0.  0.
        -24    2    5    5    0    0 -0.37734929676E+02  0.96977264579E+02  0.16733711466E+03  0.21186932105E+03  0.77835624876E+02 0.  0.
          5    1    3    3  501    0  0.12685984858E+02  0.11064512290E+02 -0.69270443098E+02  0.71441178118E+02  0.47000000000E+01 0. -1.
        -11    1    4    4    0    0 -0.21931372995E+02 -0.31927527719E+02 -0.18211012810E+02  0.42801788926E+02  0.00000000000E+00 0.  1.
         12    1    4    4    0    0  0.60878967740E+02 -0.78904830020E+02  0.21467910670E+02  0.10194651589E+03  0.00000000000E+00 0. -1.
         -5    1    5    5    0  502 -0.13898649926E+02  0.27905808702E+01 -0.31051115152E+02  0.34456081663E+02  0.47000000000E+01 0.  1.
         13    1    6    6    0    0 -0.23196222893E+02  0.10053220690E+03  0.10289753652E+03  0.14571442071E+03  0.00000000000E+00 0. -1.
        -14    1    6    6    0    0 -0.14538706783E+02 -0.35549423171E+01  0.64439578134E+02  0.66154900347E+02  0.00000000000E+00 0.  1.
</event>
<event>
12    1  0.8133495E-002  0.1832871E+03  0.7818608E-02  0.1164747E+00
         21   -1    0    0  503  502  0.00000000000E+00  0.00000000000E+00  0.18431533924E+03  0.18431533924E+03  0.00000000000E+00 0.  1.
         21   -1    0    0  501  503 -0.00000000000E+00 -0.00000000000E+00 -0.19038813053E+03  0.19038813053E+03  0.00000000000E+00 0. -1.
          6    2    1    2  501    0  0.51905982159E+02  0.36258583543E+02 -0.42600914000E+02  0.18781186640E+03  0.17160869274E+03 0.  0.
         24    2    3    3    0    0  0.40917349345E+02  0.26183225822E+02 -0.94858087564E+02  0.13326679262E+03  0.80013689129E+02 0.  0.
         -6    2    1    2    0  502 -0.51905982159E+02 -0.36258583543E+02  0.36528122716E+02  0.18689160337E+03  0.17200363890E+03 0.  0.
        -24    2    5    5    0    0 -0.61272294179E+02  0.21798121453E+02 -0.20941875287E+02  0.10453142205E+03  0.79112602809E+02 0.  0.
          5    1    3    3  501    0  0.10988632814E+02  0.10075357721E+02  0.52257173564E+02  0.54545073776E+02  0.47000000000E+01 0. -1.
        -13    1    4    4    0    0  0.27405468573E+02  0.23084318716E+02  0.15513943228E+01  0.35865753897E+02  0.00000000000E+00 0.  1.
         14    1    4    4    0    0  0.13511880772E+02  0.30989071067E+01 -0.96409481887E+02  0.97401038727E+02  0.00000000000E+00 0. -1.
         -5    1    5    5    0  502  0.93663120199E+01 -0.58056704997E+02  0.57469998003E+02  0.82360181316E+02  0.47000000000E+01 0.  1.
         13    1    6    6    0    0 -0.67791370294E+02  0.27778917737E+01 -0.38349603474E+02  0.77936375690E+02  0.00000000000E+00 0. -1.
        -14    1    6    6    0    0  0.65190761150E+01  0.19020229679E+02  0.17407728187E+02  0.26595046364E+02  0.00000000000E+00 0.  1.
</event>
<event>
12    1  0.8133495E-002  0.2145360E+03  0.7818608E-02  0.1139084E+00
         21   -1    0    0  503  502  0.00000000000E+00  0.00000000000E+00  0.23766703760E+03  0.23766703760E+03  0.00000000000E+00 0.  1.
         21   -1    0    0  501  503 -0.00000000000E+00 -0.00000000000E+00 -0.20602076005E+03  0.20602076005E+03  0.00000000000E+00 0.  1.
          6    2    1    2  501    0 -0.22258702643E+02  0.12350216162E+03 -0.48529073520E+02  0.21465992046E+03  0.16725901084E+03 0.  0.
         24    2    3    3    0    0  0.47328961623E+02  0.77934899384E+02 -0.47702688392E+02  0.13134370764E+03  0.81619506904E+02 0.  0.
         -6    2    1    2    0  502  0.22258702643E+02 -0.12350216162E+03  0.80175351072E+02  0.22902787718E+03  0.17400416041E+03 0.  0.
        -24    2    5    5    0    0 -0.43075457198E+02 -0.54252953348E+02  0.81882620530E+02  0.13369157739E+03  0.79811004010E+02 0.  0.
          5    1    3    3  501    0 -0.69587664266E+02  0.45567262239E+02 -0.82638512800E+00  0.83316212818E+02  0.47000000000E+01 0. -1.
        -11    1    4    4    0    0  0.10413958702E+02  0.84071313653E+02 -0.29262988310E+02  0.89625659272E+02  0.00000000000E+00 0.  1.
         12    1    4    4    0    0  0.36915002921E+02 -0.61364142688E+01 -0.18439700082E+02  0.41718048371E+02  0.00000000000E+00 0. -1.
         -5    1    5    5    0  502  0.65334159841E+02 -0.69249208275E+02 -0.17072694589E+01  0.95336299791E+02  0.47000000000E+01 0.  1.
         13    1    6    6    0    0 -0.66410431492E+01  0.38518355817E+01 -0.13904536349E+02  0.15883205676E+02  0.00000000000E+00 0. -1.
        -14    1    6    6    0    0 -0.36434414048E+02 -0.58104788930E+02  0.95787156879E+02  0.11780837172E+03  0.00000000000E+00 0.  1.
</event>
<event>
12    1  0.8133495E-002  0.3011773E+03  0.7818608E-02  0.1084798E+00
         21   -1    0    0  503  502  0.00000000000E+00  0.00000000000E+00  0.10449393353E+04  0.10449393353E+04  0.00000000000E+00 0.  1.
         21   -1    0    0  501  503 -0.00000000000E+00 -0.00000000000E+00 -0.90736485533E+02  0.90736485533E+02  0.00000000000E+00 0. -1.
          6    2    1    2  501    0 -0.22619141600E+03  0.99467469324E+02  0.35489829516E+03  0.46546813438E+03  0.17219596419E+03 0.  0.
         24    2    3    3    0    0 -0.21605374655E+03  0.35994704652E+02  0.30672178311E+03  0.38500304561E+03  0.78576413323E+02 0.  0.
         -6    2    1    2    0  502  0.22619141600E+03 -0.99467469324E+02  0.59930455457E+03  0.67020768642E+03  0.17016480154E+03 0.  0.
        -24    2    5    5    0    0  0.24687991820E+03 -0.92786956664E+02  0.53043619541E+03  0.59783653011E+03  0.80540958485E+02 0.  0.
          5    1    3    3  501    0 -0.10137669451E+02  0.63472764672E+02  0.48176512053E+02  0.80465088769E+02  0.47000000000E+01 0. -1.
        -11    1    4    4    0    0 -0.12944797926E+03  0.60213192270E+02  0.18703942346E+03  0.23530013554E+03  0.00000000000E+00 0.  1.
         12    1    4    4    0    0 -0.86605767294E+02 -0.24218487617E+02  0.11968235965E+03  0.14970291006E+03  0.00000000000E+00 0. -1.
         -5    1    5    5    0  502 -0.20688502199E+02 -0.66805126598E+01  0.68868359163E+02  0.72371156316E+02  0.47000000000E+01 0.  1.
         13    1    6    6    0    0  0.10674169285E+03 -0.40639118105E+01  0.16553232148E+03  0.19700572028E+03  0.00000000000E+00 0. -1.
        -14    1    6    6    0    0  0.14013822535E+03 -0.88723044854E+02  0.36490387393E+03  0.40083080982E+03  0.00000000000E+00 0.  1.
</event>
<event>
12    1  0.8133495E-002  0.3019477E+03  0.7818608E-02  0.1084343E+00
         21   -1    0    0  503  502  0.00000000000E+00  0.00000000000E+00  0.71165195660E+03  0.71165195660E+03  0.00000000000E+00 0. -1.
         21   -1    0    0  501  503 -0.00000000000E+00 -0.00000000000E+00 -0.21817410831E+03  0.21817410831E+03  0.00000000000E+00 0. -1.
          6    2    1    2  501    0 -0.12117472396E+03 -0.21576771154E+03 -0.52231664084E+02  0.30643200719E+03  0.17301274297E+03 0.  0.
         24    2    3    3    0    0 -0.12027657524E+03 -0.18005375437E+03 -0.93811547815E+02  0.25141137343E+03  0.86725216486E+02 0.  0.
         -6    2    1    2    0  502  0.12117472396E+03  0.21576771154E+03  0.54570951237E+03  0.62339405771E+03  0.17199494246E+03 0.  0.
        -24    2    5    5    0    0  0.12855195530E+03  0.13268052702E+03  0.46830263798E+03  0.50950016860E+03  0.78443187115E+02 0.  0.
          5    1    3    3  501    0 -0.89814871966E+00 -0.35713957169E+02  0.41579883732E+02  0.55020633756E+02  0.47000000000E+01 0. -1.
        -11    1    4    4    0    0  0.12325895621E+02 -0.20408283542E+02 -0.45245853776E+00  0.23845973637E+02  0.00000000000E+00 0.  1.
         12    1    4    4    0    0 -0.13260247086E+03 -0.15964547083E+03 -0.93359089277E+02  0.22756539980E+03  0.00000000000E+00 0. -1.
         -5    1    5    5    0  502 -0.73772313491E+01  0.83087184520E+02  0.77406874397E+02  0.11389388912E+03  0.47000000000E+01 0.  1.
         13    1    6    6    0    0  0.23591578802E+02  0.65157653308E+02  0.23381619167E+03  0.24386900964E+03  0.00000000000E+00 0. -1.
        -14    1    6    6    0    0  0.10496037650E+03  0.67522873713E+02  0.23448644631E+03  0.26563115896E+03  0.00000000000E+00 0.  1.
</event>
<event>
12    1  0.8133495E-002  0.2218245E+03  0.7818608E-02  0.1133091E+00
         21   -1    0    0  501  502  0.00000000000E+00  0.00000000000E+00  0.28617769993E+03  0.28617769993E+03  0.00000000000E+00 0. -1.
         21   -1    0    0  502  503 -0.00000000000E+00 -0.00000000000E+00 -0.17109261987E+03  0.17109261987E+03  0.00000000000E+00 0. -1.
         -6    2    1    2    0  503 -0.12265248158E+03 -0.56765036678E+02  0.35859657377E+02  0.22172252321E+03  0.17207283819E+03 0.  0.
        -24    2    3    3    0    0 -0.15474058296E+03 -0.53828303947E+02  0.28801441567E+02  0.18840317359E+03  0.88453934120E+02 0.  0.
          6    2    1    2  501    0  0.12265248158E+03  0.56765036678E+02  0.79225422692E+02  0.23554779659E+03  0.17589825539E+03 0.  0.
         24    2    5    5    0    0  0.37008252576E+01  0.10721638311E+02 -0.75647349436E+01  0.81197180985E+02  0.80044408608E+02 0.  0.
          5    1    5    5  501    0  0.11895165633E+03  0.46043398367E+02  0.86790157635E+02  0.15435061561E+03  0.47000000000E+01 0. -1.
        -11    1    6    6    0    0  0.31431025578E+02 -0.22313117828E+01 -0.29797623525E+02  0.43368035335E+02  0.00000000000E+00 0.  1.
         12    1    6    6    0    0 -0.27730200320E+02  0.12952950094E+02  0.22232888581E+02  0.37829145650E+02  0.00000000000E+00 0. -1.
         -5    1    3    3    0  503  0.32088101373E+02 -0.29367327318E+01  0.70582158098E+01  0.33319349623E+02  0.47000000000E+01 0.  1.
         13    1    4    4    0    0 -0.23752980579E+02 -0.37433799104E+02 -0.18687614884E+02  0.48111540734E+02  0.00000000000E+00 0. -1.
        -14    1    4    4    0    0 -0.13098760238E+03 -0.16394504843E+02  0.47489056451E+02  0.14029163285E+03  0.00000000000E+00 0.  1.
</event>
<event>
12    1  0.8133495E-002  0.2319966E+03  0.7818608E-02  0.1125283E+00
         21   -1    0    0  501  502  0.00000000000E+00  0.00000000000E+00  0.60241914457E+02  0.60241914457E+02  0.00000000000E+00 0. -1.
         21   -1    0    0  502  503 -0.00000000000E+00 -0.00000000000E+00 -0.98714902299E+03  0.98714902299E+03  0.00000000000E+00 0. -1.
         -6    2    1    2    0  503 -0.27137962062E+02 -0.15244105532E+03 -0.62537596093E+03  0.66693927063E+03  0.17244753945E+03 0.  0.
        -24    2    3    3    0    0 -0.68857071939E+02 -0.14999832045E+03 -0.56030140683E+03  0.58945870097E+03  0.79266015178E+02 0.  0.
          6    2    1    2  501    0  0.27137962062E+02  0.15244105532E+03 -0.30153114760E+03  0.38045166682E+03  0.17276485025E+03 0.  0.
         24    2    5    5    0    0 -0.21353400692E+01  0.91294632213E+01 -0.80010607109E+02  0.11495481466E+03  0.82006130182E+02 0.  0.
          5    1    5    5  501    0  0.29273302132E+02  0.14331159210E+03 -0.22152054050E+03  0.26549685216E+03  0.47000000000E+01 0. -1.
        -11    1    6    6    0    0 -0.10292415302E+02 -0.10943566399E+02 -0.89893495662E+02  0.91140199806E+02  0.00000000000E+00 0.  1.
         12    1    6    6    0    0  0.81570752325E+01  0.20073029620E+02  0.98828885531E+01  0.23814614853E+02  0.00000000000E+00 0. -1.
         -5    1    3    3    0  503  0.41719109876E+02 -0.24427348700E+01 -0.65074554096E+02  0.77480569650E+02  0.47000000000E+01 0.  1.
         11    1    4    4    0    0 -0.45425701625E+02 -0.11991992403E+03 -0.51257434490E+03  0.52837178350E+03  0.00000000000E+00 0. -1.
        -12    1    4    4    0    0 -0.23431370313E+02 -0.30078396419E+02 -0.47727061928E+02  0.61086917472E+02  0.00000000000E+00 0.  1.
</event>
<event>
12    1  0.8133495E-002  0.1826292E+03  0.7818608E-02  0.1166266E+00
         21   -1    0    0  503  502  0.00000000000E+00  0.00000000000E+00  0.73162506612E+02  0.73162506612E+02  0.00000000000E+00 0.  1.
         21   -1    0    0  501  503 -0.00000000000E+00 -0.00000000000E+00 -0.60213140642E+03  0.60213140642E+03  0.00000000000E+00 0.  1.
          6    2    1    2  501    0 -0.45791930394E+02 -0.22739531306E+02 -0.43878250457E+03  0.47527205164E+03  0.17532669387E+03 0.  0.
         24    2    3    3    0    0 -0.43474782849E+01 -0.75044357195E+02 -0.20589532821E+03  0.23296653306E+03  0.78930116140E+02 0.  0.
         -6    2    1    2    0  502  0.45791930394E+02  0.22739531306E+02 -0.90186395240E+02  0.20002186139E+03  0.17105897221E+03 0.  0.
        -24    2    5    5    0    0  0.64363583564E+01 -0.31659721442E+02 -0.10041189629E+03  0.13194256482E+03  0.79262392240E+02 0.  0.
          5    1    3    3  501    0 -0.41444452109E+02  0.52304825889E+02 -0.23288717636E+03  0.24230551858E+03  0.47000000000E+01 0. -1.
        -11    1    4    4    0    0  0.25204658745E+02 -0.47200584424E+02 -0.55122718773E+02  0.76822419367E+02  0.00000000000E+00 0.  1.
         12    1    4    4    0    0 -0.29552137030E+02 -0.27843772771E+02 -0.15077260944E+03  0.15614411370E+03  0.00000000000E+00 0. -1.
         -5    1    5    5    0  502  0.39355572038E+02  0.54399252748E+02  0.10225501050E+02  0.68079296572E+02  0.47000000000E+01 0.  1.
         11    1    6    6    0    0 -0.31932667282E+02  0.15163551699E+01 -0.22959433671E+02  0.39358990932E+02  0.00000000000E+00 0. -1.
        -12    1    6    6    0    0  0.38369025638E+02 -0.33176076612E+02 -0.77452462620E+02  0.92583573887E+02  0.00000000000E+00 0.  1.
</event>
<event>
12    1  0.8133495E-002  0.1923405E+03  0.7818608E-02  0.1156536E+00
         21   -1    0    0  501  502  0.00000000000E+00  0.00000000000E+00  0.14087181386E+03  0.14087181386E+03  0.00000000000E+00 0. -1.
         21   -1    0    0  502  503 -0.00000000000E+00 -0.00000000000E+00 -0.35644929764E+03  0.35644929764E+03  0.00000000000E+00 0. -1.
         -6    2    1    2    0  503  0.45866789501E+02  0.71766758071E+02 -0.23591742105E+03  0.30390813621E+03  0.17160680568E+03 0.  0.
        -24    2    3    3    0    0  0.28184343790E+02  0.11617191175E+03 -0.18177169222E+03  0.23153178296E+03  0.79219619482E+02 0.  0.
          6    2    1    2  501    0 -0.45866789501E+02 -0.71766758071E+02  0.20339937271E+02  0.19341297529E+03  0.17245473615E+03 0.  0.
         24    2    5    5    0    0 -0.26896537827E+02 -0.85314340246E+01 -0.47703200974E+02  0.98489135729E+02  0.81414405113E+02 0.  0.
          5    1    5    5  501    0 -0.18970251674E+02 -0.63235324046E+02  0.68043138244E+02  0.94923839566E+02  0.47000000000E+01 0. -1.
        -13    1    6    6    0    0 -0.15613362280E+02  0.36211879294E+02 -0.16285609737E+02  0.42664954801E+02  0.00000000000E+00 0.  1.
         14    1    6    6    0    0 -0.11283175547E+02 -0.44743313318E+02 -0.31417591237E+02  0.55824180928E+02  0.00000000000E+00 0. -1.
         -5    1    3    3    0  503  0.17682445711E+02 -0.44405153679E+02 -0.54145728828E+02  0.72376353250E+02  0.47000000000E+01 0.  1.
         11    1    4    4    0    0  0.16082108723E+02 -0.94564594858E+00 -0.14511169994E+01  0.16175110750E+02  0.00000000000E+00 0. -1.
        -12    1    4    4    0    0  0.12102235067E+02  0.11711755770E+03 -0.18032057522E+03  0.21535667221E+03  0.00000000000E+00 0.  1.
</event>
<event>
12    1  0.8133495E-002  0.1781161E+03  0.7818608E-02  0.1170401E+00
         21   -1    0    0  503  502  0.00000000000E+00  0.00000000000E+00  0.98000968049E+03  0.98000968049E+03  0.00000000000E+00 0. -1.
         21   -1    0    0  501  503 -0.00000000000E+00 -0.00000000000E+00 -0.31911829038E+02  0.31911829038E+02  0.00000000000E+00 0. -1.
          6    2    1    2  501    0 -0.24960578548E+02  0.21486977086E+02  0.44212608824E+03  0.47551423813E+03  0.17191158222E+03 0.  0.
         24    2    3    3    0    0  0.36343432829E+01  0.36164053127E+02  0.43295671617E+03  0.44176140863E+03  0.79878513282E+02 0.  0.
         -6    2    1    2    0  502  0.24960578548E+02 -0.21486977086E+02  0.50597176322E+03  0.53640727140E+03  0.17504460851E+03 0.  0.
        -24    2    5    5    0    0  0.34459351433E+02  0.20785209069E+02  0.47370527343E+03  0.48218199342E+03  0.80519046726E+02 0.  0.
          5    1    3    3  501    0 -0.28594921831E+02 -0.14677076041E+02  0.91693720653E+01  0.33752829506E+02  0.47000000000E+01 0. -1.
        -11    1    4    4    0    0 -0.53629040891E+01 -0.13747376080E+02  0.28447046492E+03  0.28485293838E+03  0.00000000000E+00 0.  1.
         12    1    4    4    0    0  0.89972473720E+01  0.49911429207E+02  0.14848625125E+03  0.15690847025E+03  0.00000000000E+00 0. -1.
         -5    1    5    5    0  502 -0.94987728850E+01 -0.42272186155E+02  0.32266489792E+02  0.54225277981E+02  0.47000000000E+01 0.  1.
         11    1    6    6    0    0 -0.58555221364E+01  0.41364206592E+02  0.16655332543E+03  0.17171282695E+03  0.00000000000E+00 0. -1.
        -12    1    6    6    0    0  0.40314873569E+02 -0.20578997523E+02  0.30715194799E+03  0.31046916646E+03  0.00000000000E+00 0.  1.
</event>
<event>
12    1  0.8133495E-002  0.2095131E+03  0.7818608E-02  0.1142235E+00
         21   -1    0    0  503  502  0.00000000000E+00  0.00000000000E+00  0.84019891070E+03  0.84019891070E+03  0.00000000000E+00 0.  1.
         21   -1    0    0  501  503 -0.00000000000E+00 -0.00000000000E+00 -0.16347735939E+03  0.16347735939E+03  0.00000000000E+00 0.  1.
          6    2    1    2  501    0  0.64890230827E+02  0.95710113856E+02 -0.75883314574E+02  0.22283184705E+03  0.17471286924E+03 0.  0.
         24    2    3    3    0    0  0.43228804351E+02  0.11991621116E+03 -0.10130112331E+03  0.18131910750E+03  0.79787680351E+02 0.  0.
         -6    2    1    2    0  502 -0.64890230827E+02 -0.95710113856E+02  0.75260486589E+03  0.78084442304E+03  0.17301086925E+03 0.  0.
        -24    2    5    5    0    0 -0.31998537627E+02  0.14730174057E+02  0.24667034898E+03  0.26193138015E+03  0.80752104650E+02 0.  0.
          5    1    3    3  501    0  0.21661426476E+02 -0.24206097305E+02  0.25417808739E+02  0.41512739549E+02  0.47000000000E+01 0. -1.
        -13    1    4    4    0    0 -0.18901810502E+02  0.64148317014E+02 -0.43640352280E+02  0.79854651481E+02  0.00000000000E+00 0.  1.
         14    1    4    4    0    0  0.62130614852E+02  0.55767894147E+02 -0.57660771033E+02  0.10146445602E+03  0.00000000000E+00 0. -1.
         -5    1    5    5    0  502 -0.32891693199E+02 -0.11044028791E+03  0.50593451691E+03  0.51891304288E+03  0.47000000000E+01 0.  1.
         11    1    6    6    0    0 -0.27313619444E+02 -0.31452113889E+02  0.11979298051E+03  0.12682912700E+03  0.00000000000E+00 0. -1.
        -12    1    6    6    0    0 -0.46849181834E+01  0.46182287946E+02  0.12687736847E+03  0.13510225316E+03  0.00000000000E+00 0.  1.
</event>
<event>
12    1  0.8133495E-002  0.1753804E+03  0.7818608E-02  0.1176221E+00
         21   -1    0    0  501  502  0.00000000000E+00  0.00000000000E+00  0.14730340776E+03  0.14730340776E+03  0.00000000000E+00 0. -1.
         21   -1    0    0  502  503 -0.00000000000E+00 -0.00000000000E+00 -0.20086191877E+03  0.20086191877E+03  0.00000000000E+00 0. -1.
         -6    2    1    2    0  503 -0.25540891484E+02 -0.24289498238E+02 -0.65226337002E+02  0.18711694943E+03  0.17180209796E+03 0.  0.
        -24    2    3    3    0    0 -0.79273683374E+02 -0.18852170699E+01 -0.22442923301E+02  0.11471753489E+03  0.79803239816E+02 0.  0.
          6    2    1    2  501    0  0.25540891484E+02  0.24289498238E+02  0.11667825990E+02  0.16104837710E+03  0.15671032110E+03 0.  0.
         24    2    5    5    0    0 -0.38541889178E+02  0.65146960890E+01  0.12224398562E+02  0.94377947809E+02  0.85028481262E+02 0.  0.
          5    1    5    5  501    0  0.64082780663E+02  0.17774802149E+02 -0.55657257181E+00  0.66670429292E+02  0.47000000000E+01 0. -1.
        -11    1    6    6    0    0 -0.28324269161E+02  0.44350921774E+02 -0.20605539907E+01  0.52664165886E+02  0.00000000000E+00 0.  1.
         12    1    6    6    0    0 -0.10217620017E+02 -0.37836225685E+02  0.14284952553E+02  0.41713781923E+02  0.00000000000E+00 0. -1.
         -5    1    3    3    0  503  0.53732791889E+02 -0.22404281168E+02 -0.42783413701E+02  0.72399414547E+02  0.47000000000E+01 0.  1.
         11    1    4    4    0    0 -0.87001970296E+02  0.13227777019E+02 -0.33826893293E+02  0.94279242838E+02  0.00000000000E+00 0. -1.
        -12    1    4    4    0    0  0.77282869227E+01 -0.15112994088E+02  0.11383969992E+02  0.20438292048E+02  0.00000000000E+00 0.  1.
</event>
<event>
12    1  0.8133495E-002  0.2300559E+03  0.7818608E-02  0.1126687E+00
         21   -1    0    0  503  502  0.00000000000E+00  0.00000000000E+00  0.35423610091E+03  0.35423610091E+03  0.00000000000E+00 0. -1.
         21   -1    0    0  501  503 -0.00000000000E+00 -0.00000000000E+00 -0.20742538026E+03  0.20742538026E+03  0.00000000000E+00 0. -1.
          6    2    1    2  501    0 -0.88297121064E+02  0.12597681104E+03  0.22227811904E+03  0.31954360489E+03  0.17039370503E+03 0.  0.
         24    2    3    3    0    0 -0.10036711920E+03  0.15202434072E+03  0.17817339671E+03  0.26670919196E+03  0.78759602552E+02 0.  0.
         -6    2    1    2    0  502  0.88297121064E+02 -0.12597681104E+03 -0.75467398395E+02  0.24211787627E+03  0.17105320600E+03 0.  0.
        -24    2    5    5    0    0  0.98202817688E+01 -0.12815811796E+03 -0.46843358903E+02  0.15842320474E+03  0.79891616558E+02 0.  0.
          5    1    3    3  501    0  0.12069998133E+02 -0.26047529683E+02  0.44104722333E+02  0.52834412929E+02  0.47000000000E+01 0. -1.
        -11    1    4    4    0    0 -0.62337654676E+01 -0.87033388909E+01  0.32578012843E+01  0.11190228280E+02  0.00000000000E+00 0.  1.
         12    1    4    4    0    0 -0.94133353730E+02  0.16072767961E+03  0.17491559543E+03  0.25551896368E+03  0.00000000000E+00 0. -1.
         -5    1    5    5    0  502  0.78476839296E+02  0.21813069204E+01 -0.28624039492E+02  0.83694671530E+02  0.47000000000E+01 0.  1.
         13    1    6    6    0    0  0.17247795920E+02 -0.71619754305E+02  0.14053125372E+02  0.74995773238E+02  0.00000000000E+00 0. -1.
        -14    1    6    6    0    0 -0.74275141515E+01 -0.56538363651E+02 -0.60896484275E+02  0.83427431507E+02  0.00000000000E+00 0.  1.
</event>
<event>
12    1  0.8133495E-002  0.1830749E+03  0.7818608E-02  0.1164930E+00
         21   -1    0    0  503  502  0.00000000000E+00  0.00000000000E+00  0.84171623237E+02  0.84171623237E+02  0.00000000000E+00 0. -1.
         21   -1    0    0  501  503 -0.00000000000E+00 -0.00000000000E+00 -0.49106748573E+03  0.49106748573E+03  0.00000000000E+00 0. -1.
          6    2    1    2  501    0 -0.39345882745E+02  0.46236175107E+02 -0.32883030840E+03  0.37621488527E+03  0.17240181494E+03 0.  0.
         24    2    3    3    0    0 -0.36998697261E+02 -0.87736211501E+00 -0.29885210954E+02  0.73534433376E+02  0.56075963611E+02 0.  0.
         -6    2    1    2    0  502  0.39345882745E+02 -0.46236175107E+02 -0.78065554090E+02  0.19902422370E+03  0.17271516582E+03 0.  0.
        -24    2    5    5    0    0  0.82566774474E+02 -0.17788552867E+02 -0.86969178352E+02  0.14631106388E+03  0.81912053878E+02 0.  0.
          5    1    3    3  501    0 -0.23471854845E+01  0.47113537222E+02 -0.29894509745E+03  0.30268045189E+03  0.47000000000E+01 0. -1.
        -13    1    4    4    0    0  0.78888872808E+01  0.11657152877E+02  0.54030307493E+01  0.15077018837E+02  0.00000000000E+00 0.  1.
         14    1    4    4    0    0 -0.44887584542E+02 -0.12534514992E+02 -0.35288241704E+02  0.58457414539E+02  0.00000000000E+00 0. -1.
         -5    1    5    5    0  502 -0.43220891729E+02 -0.28447622240E+02  0.89036242628E+01  0.52713159817E+02  0.47000000000E+01 0.  1.
         13    1    6    6    0    0  0.69937806109E+02 -0.25779627578E+02 -0.19278936435E+02  0.76990670288E+02  0.00000000000E+00 0. -1.
        -14    1    6    6    0    0  0.12628968365E+02  0.79910747106E+01 -0.67690241917E+02  0.69320393592E+02  0.00000000000E+00 0.  1.
</event>
<event>
12    1  0.8133495E-002  0.1728373E+03  0.7818608E-02  0.1174925E+00
         21   -1    0    0  503  502  0.00000000000E+00  0.00000000000E+00  0.17841075393E+03  0.17841075393E+03  0.00000000000E+00 0. -1.
         21   -1    0    0  501  503 -0.00000000000E+00 -0.00000000000E+00 -0.34050508994E+03  0.34050508994E+03  0.00000000000E+00 0. -1.
          6    2    1    2  501    0  0.34298019660E+01  0.15671397061E+02 -0.26603259080E+03  0.31724765983E+03  0.17209120276E+03 0.  0.
         24    2    3    3    0    0  0.12951484635E+02  0.74131448605E+02 -0.14614994663E+03  0.18344863725E+03  0.81427163673E+02 0.  0.
         -6    2    1    2    0  502 -0.34298019660E+01 -0.15671397061E+02  0.10393825479E+03  0.20166818405E+03  0.17207422649E+03 0.  0.
        -24    2    5    5    0    0  0.20100582335E+02 -0.73044605028E+02  0.55395192541E+02  0.12277659470E+03  0.79157546167E+02 0.  0.
          5    1    3    3  501    0 -0.95216826692E+01 -0.58460051544E+02 -0.11988264417E+03  0.13379902257E+03  0.47000000000E+01 0. -1.
        -13    1    4    4    0    0 -0.22098268540E+02 -0.57700324417E+01 -0.22048333034E+02  0.31745168710E+02  0.00000000000E+00 0.  1.
         14    1    4    4    0    0  0.35049753175E+02  0.79901481046E+02 -0.12410161359E+03  0.15170346854E+03  0.00000000000E+00 0. -1.
         -5    1    5    5    0  502 -0.23530384301E+02  0.57373207967E+02  0.48543062249E+02  0.78891589351E+02  0.47000000000E+01 0.  1.
         11    1    6    6    0    0 -0.11488835313E+02 -0.53559383144E+02  0.64438755990E+02  0.84575138978E+02  0.00000000000E+00 0. -1.
        -12    1    6    6    0    0  0.31589417649E+02 -0.19485221884E+02 -0.90435634497E+01  0.38201455720E+02  0.00000000000E+00 0.  1.
</event>
<event>
12    1  0.8133495E-002  0.1741747E+03  0.7818608E-02  0.1173830E+00
         21   -1    0    0  501  502  0.00000000000E+00  0.00000000000E+00  0.21409374093E+02  0.21409374093E+02  0.00000000000E+00 0. -1.
         21   -1    0    0  502  503 -0.00000000000E+00 -0.00000000000E+00 -0.16041964718E+04  0.16041964718E+04  0.00000000000E+00 0. -1.
         -6    2    1    2    0  503  0.10166563297E+02  0.26306001384E+02 -0.10732186966E+04  0.10870923408E+04  0.17080990044E+03 0.  0.
        -24    2    3    3    0    0 -0.14102327229E+02  0.77705036262E+02 -0.59706833529E+03  0.60753828090E+03  0.79844958942E+02 0.  0.
          6    2    1    2  501    0 -0.10166563297E+02 -0.26306001384E+02 -0.50956840114E+03  0.53851350507E+03  0.17187633632E+03 0.  0.
         24    2    5    5    0    0  0.51770192762E+02  0.19159830045E+02 -0.28990885869E+03  0.30575674756E+03  0.79954927214E+02 0.  0.
          5    1    5    5  501    0 -0.61936756059E+02 -0.45465831429E+02 -0.21965954245E+03  0.23275675751E+03  0.47000000000E+01 0. -1.
        -11    1    6    6    0    0  0.59628782287E+01  0.26512975870E+02 -0.25358409117E+02  0.37169109744E+02  0.00000000000E+00 0.  1.
         12    1    6    6    0    0  0.45807314533E+02 -0.73531458246E+01 -0.26455044957E+03  0.26858763781E+03  0.00000000000E+00 0. -1.
         -5    1    3    3    0  503  0.24268890526E+02 -0.51399034878E+02 -0.47615036126E+03  0.47955405990E+03  0.47000000000E+01 0.  1.
         13    1    4    4    0    0  0.46318118291E+01  0.76687511891E+02 -0.56639636987E+03  0.57158313128E+03  0.00000000000E+00 0. -1.
        -14    1    4    4    0    0 -0.18734139058E+02  0.10175243711E+01 -0.30671965419E+02  0.35955149627E+02  0.00000000000E+00 0.  1.
</event>
<event>
12    1  0.8133495E-002  0.1832471E+03  0.7818608E-02  0.1164775E+00
         21   -1    0    0  501  502  0.00000000000E+00  0.00000000000E+00  0.14061891154E+04  0.14061891154E+04  0.00000000000E+00 0.  1.
         21   -1    0    0  502  503 -0.00000000000E+00 -0.00000000000E+00 -0.30331504045E+02  0.30331504045E+02  0.00000000000E+00 0.  1.
         -6    2    1    2    0  503  0.64469450243E+02 -0.81370074166E+00  0.10207873344E+04  0.10371047586E+04  0.17152995691E+03 0.  0.
        -24    2    3    3    0    0 -0.16505490039E+02 -0.10206988989E+02  0.27310955326E+03  0.28498154447E+03  0.79050862003E+02 0.  0.
          6    2    1    2  501    0 -0.64469450243E+02  0.81370074166E+00  0.35507027704E+03  0.39941586093E+03  0.17117580495E+03 0.  0.
         24    2    5    5    0    0 -0.85436585347E+02  0.30494726215E+02  0.15743077500E+03  0.19840828198E+03  0.79699805514E+02 0.  0.
          5    1    5    5  501    0  0.20967135104E+02 -0.29681025474E+02  0.19763950204E+03  0.20100757895E+03  0.47000000000E+01 0. -1.
        -13    1    6    6    0    0 -0.66286070579E+02 -0.89117518916E+01  0.13140826599E+03  0.14744963494E+03  0.00000000000E+00 0.  1.
         14    1    6    6    0    0 -0.19150514768E+02  0.39406478107E+02  0.26022509008E+02  0.50958647036E+02  0.00000000000E+00 0. -1.
         -5    1    3    3    0  503  0.80974940282E+02  0.93932882478E+01  0.74767778110E+03  0.75212321409E+03  0.47000000000E+01 0.  1.
         13    1    4    4    0    0  0.26592508106E+02  0.10165519201E+01  0.42748808096E+02  0.50355292262E+02  0.00000000000E+00 0. -1.
        -14    1    4    4    0    0 -0.43097998145E+02 -0.11223540909E+02  0.23036074516E+03  0.23462625221E+03  0.00000000000E+00 0.  1.
</event>
<event>
12    1  0.8133495E-002  0.1756987E+03  0.7818608E-02  0.1172246E+00
         21   -1    0    0  503  502  0.00000000000E+00  0.00000000000E+00  0.10930299367E+04  0.10930299367E+04  0.00000000000E+00 0. -1.
         21   -1    0    0  501  503 -0.00000000000E+00 -0.00000000000E+00 -0.29231295969E+02  0.29231295969E+02  0.00000000000E+00 0. -1.
          6    2    1    2  501    0  0.14568156464E+02 -0.30440652986E+02  0.64326690118E+03  0.66683007480E+03  0.17242731213E+03 0.  0.
         24    2    3    3    0    0 -0.41032587905E+02 -0.10272567581E+02  0.54190756978E+03  0.54938222039E+03  0.79798565039E+02 0.  0.
         -6    2    1    2    0  502 -0.14568156464E+02  0.30440652986E+02  0.42053173954E+03  0.45543115785E+03  0.17155678666E+03 0.  0.
        -24    2    5    5    0    0 -0.56271268350E+02 -0.27456701829E+02  0.21894753099E+03  0.24153974528E+03  0.80517706804E+02 0.  0.
          5    1    3    3  501    0  0.55600744369E+02 -0.20168085405E+02  0.10135933140E+03  0.11744785441E+03  0.47000000000E+01 0. -1.
        -13    1    4    4    0    0 -0.57567472058E+02 -0.23486342220E+02  0.29016062899E+03  0.29674705175E+03  0.00000000000E+00 0.  1.
         14    1    4    4    0    0  0.16534884153E+02  0.13213774639E+02  0.25174694079E+03  0.25263516864E+03  0.00000000000E+00 0. -1.
         -5    1    5    5    0  502  0.41703111886E+02  0.57897354815E+02  0.20158420855E+03  0.21389141257E+03  0.47000000000E+01 0.  1.
         13    1    6    6    0    0 -0.74867195264E+02 -0.14483490975E+02  0.19026708410E+03  0.20497910071E+03  0.00000000000E+00 0. -1.
        -14    1    6    6    0    0  0.18595926914E+02 -0.12973210853E+02  0.28680446885E+02  0.36560644568E+02  0.00000000000E+00 0.  1.
</event>
<event>
12    1  0.8133495E-002  0.2242338E+03  0.7818608E-02  0.1131164E+00
         21   -1    0    0  501  502  0.00000000000E+00  0.00000000000E+00  0.18697441469E+03  0.18697441469E+03  0.00000000000E+00 0. -1.
         21   -1    0    0  502  503 -0.00000000000E+00 -0.00000000000E+00 -0.10237757743E+04  0.10237757743E+04  0.00000000000E+00 0. -1.
         -6    2    1    2    0  503  0.52870303146E+02 -0.13357567836E+03 -0.93965164851E+03  0.96603624946E+03  0.17217166994E+03 0.  0.
        -24    2    3    3    0    0  0.85602608158E+02 -0.90455398321E+02 -0.83971532278E+03  0.85228159443E+03  0.75842648176E+02 0.  0.
          6    2    1    2  501    0 -0.52870303146E+02  0.13357567836E+03  0.10285028888E+03  0.24471393954E+03  0.16931922360E+03 0.  0.
         24    2    5    5    0    0 -0.75425994323E+02  0.48957154172E+02  0.16367086682E+02  0.12154540419E+03  0.80121908294E+02 0.  0.
          5    1    5    5  501    0  0.22555691177E+02  0.84618524183E+02  0.86483202196E+02  0.12316853535E+03  0.47000000000E+01 0. -1.
        -11    1    6    6    0    0 -0.11271572228E+02  0.52671049952E+02  0.19299327168E+02  0.57216709733E+02  0.00000000000E+00 0.  1.
         12    1    6    6    0    0 -0.64154422094E+02 -0.37138957793E+01 -0.29322404863E+01  0.64328694456E+02  0.00000000000E+00 0. -1.
         -5    1    3    3    0  503 -0.32732305012E+02 -0.43120280034E+02 -0.99936325724E+02  0.11375465503E+03  0.47000000000E+01 0.  1.
         13    1    4    4    0    0  0.84024484807E+02 -0.38753860732E+02 -0.59575493859E+03  0.60289793716E+03  0.00000000000E+00 0. -1.
        -14    1    4    4    0    0  0.15781233507E+01 -0.51701537589E+02 -0.24396038419E+03  0.24938365727E+03  0.00000000000E+00 0.  1.
</event>
<event>
12    1  0.8133495E-002  0.1908848E+03  0.7818608E-02  0.1158411E+00
         21   -1    0    0  501  502  0.00000000000E+00  0.00000000000E+00  0.15576523809E+04  0.15576523809E+04  0.00000000000E+00 0.  1.
         21   -1    0    0  502  503 -0.00000000000E+00 -0.00000000000E+00 -0.60725595411E+02  0.60725595411E+02  0.00000000000E+00 0.  1.
         -6    2    1    2    0  503  0.81424827167E+02  0.13353284418E+02  0.10812620145E+03  0.21652061749E+03  0.16846836402E+03 0.  0.
        -24    2    3    3    0    0  0.94313296746E+02 -0.12988742919E+02  0.13010739066E+03  0.17957095266E+03  0.79082795523E+02 0.  0.
          6    2    1    2  501    0 -0.81424827167E+02 -0.13353284418E+02  0.13888005840E+04  0.14018573588E+04  0.17212983342E+03 0.  0.
         24    2    5    5    0    0 -0.95686165323E+02  0.25295071691E+02  0.12631123160E+04  0.12695066432E+04  0.79991946189E+02 0.  0.
          5    1    5    5  501    0  0.14261338156E+02 -0.38648356109E+02  0.12568826797E+03  0.13235071553E+03  0.47000000000E+01 0. -1.
        -11    1    6    6    0    0 -0.69468026309E+02  0.14860696503E+02  0.11713818357E+04  0.11735340012E+04  0.00000000000E+00 0.  1.
         12    1    6    6    0    0 -0.26218139014E+02  0.10434375188E+02  0.91730480366E+02  0.95972642076E+02  0.00000000000E+00 0. -1.
         -5    1    3    3    0  503 -0.12888469579E+02  0.26342027338E+02 -0.21981189212E+02  0.36949664837E+02  0.47000000000E+01 0.  1.
         11    1    4    4    0    0  0.97052583382E+02  0.82436911060E+01  0.83547965287E+02  0.12832546469E+03  0.00000000000E+00 0. -1.
        -12    1    4    4    0    0 -0.27392866358E+01 -0.21232434025E+02  0.46559425371E+02  0.51245487966E+02  0.00000000000E+00 0.  1.
</event>
<event>
12    1  0.8133495E-002  0.1793657E+03  0.7818608E-02  0.1169208E+00
         21   -1    0    0  503  502  0.00000000000E+00  0.00000000000E+00  0.23381118289E+04  0.23381118289E+04  0.00000000000E+00 0.  1.
         21   -1    0    0  501  503 -0.00000000000E+00 -0.00000000000E+00 -0.16071522292E+02  0.16071522292E+02  0.00000000000E+00 0.  1.
          6    2    1    2  501    0  0.55473079364E+02  0.19556257400E+02  0.70033084090E+03  0.72293521584E+03  0.16944712995E+03 0.  0.
         24    2    3    3    0    0  0.64409411906E+02  0.14310094197E+02  0.21390294678E+03  0.23637425723E+03  0.75927384393E+02 0.  0.
         -6    2    1    2    0  502 -0.55473079364E+02 -0.19556257400E+02  0.16217094657E+04  0.16312481353E+04  0.16603968858E+03 0.  0.
        -24    2    5    5    0    0 -0.36069561512E+02  0.50154111129E+02  0.79559214434E+03  0.80195448974E+03  0.79672425276E+02 0.  0.
          5    1    3    3  501    0 -0.89363325421E+01  0.52461632030E+01  0.48642789412E+03  0.48656095862E+03  0.47000000000E+01 0. -1.
        -13    1    4    4    0    0 -0.79498359664E+01  0.54399796908E+01  0.10428153119E+03  0.10472550319E+03  0.00000000000E+00 0.  1.
         14    1    4    4    0    0  0.72359247873E+02  0.88701145067E+01  0.10962141559E+03  0.13164875404E+03  0.00000000000E+00 0. -1.
         -5    1    5    5    0  502 -0.19403517852E+02 -0.69710368529E+02  0.82611732133E+03  0.82929364558E+03  0.47000000000E+01 0.  1.
         13    1    6    6    0    0 -0.66647561890E+01  0.26070363536E+02  0.67451647199E+03  0.67505300074E+03  0.00000000000E+00 0. -1.
        -14    1    6    6    0    0 -0.29404805323E+02  0.24083747593E+02  0.12107567235E+03  0.12690148899E+03  0.00000000000E+00 0.  1.
</event>
<event>
12    1  0.8133495E-002  0.1856460E+03  0.7818608E-02  0.1163290E+00
         21   -1    0    0  501  502  0.00000000000E+00  0.00000000000E+00  0.21366033910E+03  0.21366033910E+03  0.00000000000E+00 0.  1.
         21   -1    0    0  502  503 -0.00000000000E+00 -0.00000000000E+00 -0.25506712770E+03  0.25506712770E+03  0.00000000000E+00 0.  1.
         -6    2    1    2    0  503 -0.60847547225E+02 -0.36798929149E+02 -0.16524812249E+03  0.24853845622E+03  0.17148713376E+03 0.  0.
        -24    2    3    3    0    0 -0.10272853319E+03 -0.49017690192E+02 -0.11204320105E+03  0.17957347400E+03  0.82079645348E+02 0.  0.
          6    2    1    2  501    0  0.60847547225E+02  0.36798929149E+02  0.12384133389E+03  0.22018901058E+03  0.16760053464E+03 0.  0.
         24    2    5    5    0    0 -0.10527383539E+02  0.21671887109E+02  0.88806900132E+01  0.83949340207E+02  0.79925769130E+02 0.  0.
          5    1    5    5  501    0  0.71374930764E+02  0.15127042040E+02  0.11496064388E+03  0.13623967037E+03  0.47000000000E+01 0. -1.
        -11    1    6    6    0    0  0.20603176826E+02  0.27547477615E+02  0.30190283680E+02  0.45769068670E+02  0.00000000000E+00 0.  1.
         12    1    6    6    0    0 -0.31130560364E+02 -0.58755905063E+01 -0.21309593667E+02  0.38180271537E+02  0.00000000000E+00 0. -1.
         -5    1    3    3    0  503  0.41880985966E+02  0.12218761043E+02 -0.53204921438E+02  0.68964982216E+02  0.47000000000E+01 0.  1.
         13    1    4    4    0    0 -0.22976842139E+02 -0.94716378547E+01  0.11431688626E+02  0.27355633847E+02  0.00000000000E+00 0. -1.
        -14    1    4    4    0    0 -0.79751691053E+02 -0.39546052337E+02 -0.12347488968E+03  0.15221784016E+03  0.00000000000E+00 0.  1.
</event>
<event>
12    1  0.8133495E-002  0.1872382E+03  0.7818608E-02  0.1161100E+00
         21   -1    0    0  501  502  0.00000000000E+00  0.00000000000E+00  0.67165592980E+03  0.67165592980E+03  0.00000000000E+00 0.  1.
         21   -1    0    0  502  503 -0.00000000000E+00 -0.00000000000E+00 -0.83822186705E+02  0.83822186705E+02  0.00000000000E+00 0.  1.
         -6    2    1    2    0  503  0.67512035354E+02 -0.29570077758E+02  0.61079176431E+02  0.19643560810E+03  0.17153430537E+03 0.  0.
        -24    2    3    3    0    0  0.29687410378E+02 -0.11038201061E+02 -0.33360641003E+02  0.92921832080E+02  0.80736300952E+02 0.  0.
          6    2    1    2  501    0 -0.67512035354E+02  0.29570077758E+02  0.52675456667E+03  0.55904250841E+03  0.17212172520E+03 0.  0.
         24    2    5    5    0    0  0.19453837278E+02  0.51432589410E+02  0.30327175173E+03  0.31819464981E+03  0.79058944677E+02 0.  0.
          5    1    5    5  501    0 -0.86965872632E+02 -0.21862511651E+02  0.22348281493E+03  0.24084785859E+03  0.47000000000E+01 0. -1.
        -13    1    6    6    0    0 -0.20897380270E+02  0.35905176127E+01  0.16575222831E+03  0.16710294285E+03  0.00000000000E+00 0.  1.
         14    1    6    6    0    0  0.40351217548E+02  0.47842071797E+02  0.13751952342E+03  0.15109170696E+03  0.00000000000E+00 0. -1.
         -5    1    3    3    0  503  0.37824624976E+02 -0.18531876697E+02  0.94439817435E+02  0.10351377602E+03  0.47000000000E+01 0.  1.
         11    1    4    4    0    0 -0.52034455620E+01 -0.64625574785E+01  0.24129924915E+02  0.25516539172E+02  0.00000000000E+00 0. -1.
        -12    1    4    4    0    0  0.34890855940E+02 -0.45756435823E+01 -0.57490565919E+02  0.67405292909E+02  0.00000000000E+00 0.  1.
</event>
<event>
12    1  0.8133495E-002  0.1760010E+03  0.7818608E-02  0.1171951E+00
         21   -1    0    0  501  502  0.00000000000E+00  0.00000000000E+00  0.39532987063E+02  0.39532987063E+02  0.00000000000E+00 0.  1.
         21   -1    0    0  502  503 -0.00000000000E+00 -0.00000000000E+00 -0.83937255603E+03  0.83937255603E+03  0.00000000000E+00 0.  1.
         -6    2    1    2    0  503  0.38972840335E+02 -0.83507024508E+01 -0.28361654362E+03  0.33378838957E+03  0.17142849437E+03 0.  0.
        -24    2    3    3    0    0 -0.16002306858E+02  0.28874552882E+02 -0.23798136008E+03  0.25308742043E+03  0.79550619149E+02 0.  0.
          6    2    1    2  501    0 -0.38972840335E+02  0.83507024508E+01 -0.51622302535E+03  0.54511715352E+03  0.17052238166E+03 0.  0.
         24    2    5    5    0    0 -0.78984882528E+02 -0.32840168187E+02 -0.31289321622E+03  0.33378151378E+03  0.78681928487E+02 0.  0.
          5    1    5    5  501    0  0.40012042193E+02  0.41190870638E+02 -0.20332980913E+03  0.21133563974E+03  0.47000000000E+01 0. -1.
        -11    1    6    6    0    0 -0.65744984821E+02 -0.40038482872E+02 -0.30868015283E+03  0.31813349382E+03  0.00000000000E+00 0.  1.
         12    1    6    6    0    0 -0.13239897707E+02  0.71983146850E+01 -0.42130633939E+01  0.15648019963E+02  0.00000000000E+00 0. -1.
         -5    1    3    3    0  503  0.54975147193E+02 -0.37225255333E+02 -0.45635183541E+02  0.80700969141E+02  0.47000000000E+01 0.  1.
         11    1    4    4    0    0  0.33532503289E+01 -0.22571586137E+02 -0.28474646561E+02  0.36490084753E+02  0.00000000000E+00 0. -1.
        -12    1    4    4    0    0 -0.19355557187E+02  0.51446139020E+02 -0.20950671352E+03  0.21659733568E+03  0.00000000000E+00 0.  1.
</event>
<event>
12    1  0.8133495E-002  0.1911429E+03  0.7818608E-02  0.1157572E+00
         21   -1    0    0  501  502  0.00000000000E+00  0.00000000000E+00  0.48946184813E+03  0.48946184813E+03  0.00000000000E+00 0.  1.
         21   -1    0    0  502  503 -0.00000000000E+00 -0.00000000000E+00 -0.17202827595E+03  0.17202827595E+03  0.00000000000E+00 0. -1.
         -6    2    1    2    0  503 -0.17449609245E+02  0.82421491964E+02 -0.90327783680E+02  0.21141122884E+03  0.17157449687E+03 0.  0.
        -24    2    3    3    0    0  0.52819597674E+02  0.24133057295E+02 -0.36602575142E+02  0.10537448479E+03  0.79948228152E+02 0.  0.
          6    2    1    2  501    0  0.17449609245E+02 -0.82421491964E+02  0.40776135586E+03  0.45007889523E+03  0.17089147844E+03 0.  0.
         24    2    5    5    0    0  0.52612881734E+02 -0.63205112129E+02  0.38930084127E+03  0.40570992427E+03  0.79261567657E+02 0.  0.
          5    1    5    5  501    0 -0.35163272488E+02 -0.19216379836E+02  0.18460514584E+02  0.44368970968E+02  0.47000000000E+01 0. -1.
        -13    1    6    6    0    0  0.64083957662E+02 -0.16879551909E+02  0.23867032069E+03  0.24769980799E+03  0.00000000000E+00 0.  1.
         14    1    6    6    0    0 -0.11471075928E+02 -0.46325560220E+02  0.15063052059E+03  0.15801011627E+03  0.00000000000E+00 0. -1.
         -5    1    3    3    0  503 -0.70269206919E+02  0.58288434669E+02 -0.53725208538E+02  0.10603674405E+03  0.47000000000E+01 0.  1.
         13    1    4    4    0    0  0.23537930748E+02  0.18984116531E+02 -0.60232255744E+02  0.67396999164E+02  0.00000000000E+00 0. -1.
        -14    1    4    4    0    0  0.29281666926E+02  0.51489407645E+01  0.23629680602E+02  0.37977485624E+02  0.00000000000E+00 0.  1.
</event>
<event>
12    1  0.8133495E-002  0.2517166E+03  0.7818608E-02  0.1112532E+00
         21   -1    0    0  503  502  0.00000000000E+00  0.00000000000E+00  0.43436637210E+03  0.43436637210E+03  0.00000000000E+00 0. -1.
         21   -1    0    0  501  503 -0.00000000000E+00 -0.00000000000E+00 -0.27739396112E+03  0.27739396112E+03  0.00000000000E+00 0.  1.
          6    2    1    2  501    0  0.18305996241E+02  0.18346201117E+03 -0.16745391389E+03  0.30232775715E+03  0.17137047711E+03 0.  0.
         24    2    3    3    0    0  0.64496225821E+02  0.17925176973E+03 -0.14559320220E+03  0.25083752354E+03  0.73696150466E+02 0.  0.
         -6    2    1    2    0  502 -0.18305996241E+02 -0.18346201117E+03  0.32442632488E+03  0.40943257606E+03  0.16849087520E+03 0.  0.
        -24    2    5    5    0    0  0.19199316986E+02 -0.25962879748E+02  0.92709843388E+02  0.12671851077E+03  0.80123535952E+02 0.  0.
          5    1    3    3  501    0 -0.46190229580E+02  0.42102414455E+01 -0.21860711697E+02  0.51490233614E+02  0.47000000000E+01 0. -1.
        -13    1    4    4    0    0  0.38879780411E+02  0.17361957231E+03 -0.12404861251E+03  0.21689502411E+03  0.00000000000E+00 0.  1.
         14    1    4    4    0    0  0.25616445410E+02  0.56321974139E+01 -0.21544589684E+02  0.33942499434E+02  0.00000000000E+00 0. -1.
         -5    1    5    5    0  502 -0.37505313227E+02 -0.15749913143E+03  0.23171648149E+03  0.28271406529E+03  0.47000000000E+01 0.  1.
         11    1    6    6    0    0  0.31144835034E+02 -0.93268970398E+01  0.99865189478E+02  0.10502403452E+03  0.00000000000E+00 0. -1.
        -12    1    6    6    0    0 -0.11945518048E+02 -0.16635982708E+02 -0.71553460898E+01  0.21694476250E+02  0.00000000000E+00 0.  1.
</event>
<event>
12    1  0.8133495E-002  0.1747737E+03  0.7818608E-02  0.1173394E+00
         21   -1    0    0  503  502  0.00000000000E+00  0.00000000000E+00  0.41282595484E+02  0.41282595484E+02  0.00000000000E+00 0.  1.
         21   -1    0    0  501  503 -0.00000000000E+00 -0.00000000000E+00 -0.86072797850E+03  0.86072797850E+03  0.00000000000E+00 0.  1.
          6    2    1    2  501    0  0.25852213334E+02  0.17331970250E+02 -0.23403047602E+03  0.29106338402E+03  0.17023188798E+03 0.  0.
         24    2    3    3    0    0  0.62822828712E+02  0.48396317973E+02 -0.10530871735E+03  0.15350175690E+03  0.78638107947E+02 0.  0.
         -6    2    1    2    0  502 -0.25852213334E+02 -0.17331970250E+02 -0.58541490699E+03  0.61094718996E+03  0.17198000308E+03 0.  0.
        -24    2    5    5    0    0 -0.70299908698E+02 -0.37283293390E+02 -0.28611254937E+03  0.30766902689E+03  0.80422124248E+02 0.  0.
          5    1    3    3  501    0 -0.36970615378E+02 -0.31064347723E+02 -0.12872175867E+03  0.13756162712E+03  0.47000000000E+01 0. -1.
        -13    1    4    4    0    0  0.22915541439E+02 -0.85177816873E+01  0.31812273034E+01  0.24653495725E+02  0.00000000000E+00 0.  1.
         14    1    4    4    0    0  0.39907287273E+02  0.56914099660E+02 -0.10848994465E+03  0.12884826117E+03  0.00000000000E+00 0. -1.
         -5    1    5    5    0  502  0.44447695364E+02  0.19951323140E+02 -0.29930235762E+03  0.30327816307E+03  0.47000000000E+01 0.  1.
         13    1    6    6    0    0 -0.28491100949E+02 -0.43067703446E+02 -0.67328918095E+02  0.84851359007E+02  0.00000000000E+00 0. -1.
        -14    1    6    6    0    0 -0.41808807749E+02  0.57844100559E+01 -0.21878363128E+03  0.22281766788E+03  0.00000000000E+00 0.  1.
</event>
<event>
12    1  0.8133495E-002  0.1927568E+03  0.7818608E-02  0.1156362E+00
         21   -1    0    0  503  502  0.00000000000E+00  0.00000000000E+00  0.25959106153E+02  0.25959106153E+02  0.00000000000E+00 0.  1.
         21   -1    0    0  501  503 -0.00000000000E+00 -0.00000000000E+00 -0.16032320421E+04  0.16032320421E+04  0.00000000000E+00 0.  1.
          6    2    1    2  501    0 -0.79705376699E+02 -0.31001274489E+02 -0.50964859915E+03  0.54430547615E+03  0.17091732112E+03 0.  0.
         24    2    3    3    0    0 -0.70189039439E+02 -0.79520826664E+02 -0.28101489440E+03  0.31033930645E+03  0.78045186404E+02 0.  0.
         -6    2    1    2    0  502  0.79705376699E+02  0.31001274489E+02 -0.10676243368E+04  0.10848856722E+04  0.17274597222E+03 0.  0.
        -24    2    5    5    0    0  0.74421712258E+02 -0.30761016595E+02 -0.88518876876E+03  0.89214926093E+03  0.76722330723E+02 0.  0.
          5    1    3    3  501    0 -0.95163372602E+01  0.48519552175E+02 -0.22863370475E+03  0.23396616970E+03  0.47000000000E+01 0. -1.
        -13    1    4    4    0    0 -0.18809640188E+02 -0.72663929648E+02 -0.20521303988E+03  0.21850913247E+03  0.00000000000E+00 0.  1.
         14    1    4    4    0    0 -0.51379399251E+02 -0.68568970154E+01 -0.75801854521E+02  0.91830173978E+02  0.00000000000E+00 0. -1.
         -5    1    5    5    0  502  0.52836644411E+01  0.61762291083E+02 -0.18243556808E+03  0.19273641122E+03  0.47000000000E+01 0.  1.
         11    1    6    6    0    0  0.69866882453E+02 -0.44215645307E+02 -0.50732067000E+03  0.51401426708E+03  0.00000000000E+00 0. -1.
        -12    1    6    6    0    0  0.45548298050E+01  0.13454628712E+02 -0.37786809876E+03  0.37813499385E+03  0.00000000000E+00 0.  1.
</event>
<event>
12    1  0.8133495E-002  0.1885332E+03  0.7818608E-02  0.1160024E+00
         21   -1    0    0  501  502  0.00000000000E+00  0.00000000000E+00  0.50865064295E+03  0.50865064295E+03  0.00000000000E+00 0.  1.
         21   -1    0    0  502  503 -0.00000000000E+00 -0.00000000000E+00 -0.14384769087E+03  0.14384769087E+03  0.00000000000E+00 0.  1.
         -6    2    1    2    0  503  0.44761085373E+02  0.61795213382E+02 -0.51902468449E+02  0.19554701488E+03  0.17240233652E+03 0.  0.
        -24    2    3    3    0    0  0.38775406681E+02 -0.29284743550E+02 -0.45958850749E+02  0.10395660329E+03  0.79584112968E+02 0.  0.
          6    2    1    2  501    0 -0.44761085373E+02 -0.61795213382E+02  0.41670542053E+03  0.45695131894E+03  0.17128601000E+03 0.  0.
         24    2    5    5    0    0 -0.58510852051E+02 -0.39876570057E+02  0.41739193542E+03  0.43064458384E+03  0.78899107642E+02 0.  0.
          5    1    5    5  501    0  0.13749766678E+02 -0.21918643326E+02 -0.68651489576E+00  0.26306735100E+02  0.47000000000E+01 0. -1.
        -11    1    6    6    0    0 -0.30995942238E+02  0.21590671106E+02  0.12417966910E+03  0.12979790342E+03  0.00000000000E+00 0.  1.
         12    1    6    6    0    0 -0.27514909813E+02 -0.61467241162E+02  0.29321226632E+03  0.30084668042E+03  0.00000000000E+00 0. -1.
         -5    1    3    3    0  503  0.59856786918E+01  0.91079956932E+02 -0.59436176992E+01  0.91590411591E+02  0.47000000000E+01 0.  1.
         13    1    4    4    0    0  0.29791819482E+02 -0.18180938257E+02  0.17406777686E+02  0.39001217076E+02  0.00000000000E+00 0. -1.
        -14    1    4    4    0    0  0.89835871993E+01 -0.11103805293E+02 -0.63365628436E+02  0.64955386212E+02  0.00000000000E+00 0.  1.
</event>
<event>
12    1  0.8133495E-002  0.2640710E+03  0.7818608E-02  0.1104746E+00
         21   -1    0    0  501  502  0.00000000000E+00  0.00000000000E+00  0.11489925774E+03  0.11489925774E+03  0.00000000000E+00 0.  1.
         21   -1    0    0  502  503 -0.00000000000E+00 -0.00000000000E+00 -0.74141301745E+03  0.74141301745E+03  0.00000000000E+00 0.  1.
         -6    2    1    2    0  503  0.19597899133E+03 -0.41814941483E+02 -0.49579749770E+03  0.56165957421E+03  0.17172671372E+03 0.  0.
        -24    2    3    3    0    0  0.98644818957E+02 -0.49324489761E+02 -0.15099598094E+03  0.20327359460E+03  0.79728679921E+02 0.  0.
          6    2    1    2  501    0 -0.19597899133E+03  0.41814941483E+02 -0.13071626202E+03  0.29465270098E+03  0.17198028570E+03 0.  0.
         24    2    5    5    0    0 -0.11982773227E+03  0.77769786282E+02 -0.36513067137E+02  0.16820865389E+03  0.80957532645E+02 0.  0.
          5    1    5    5  501    0 -0.76151259057E+02 -0.35954844799E+02 -0.94203194879E+02  0.12644404710E+03  0.47000000000E+01 0. -1.
        -13    1    6    6    0    0 -0.12439990483E+03  0.47318729789E+02 -0.25568946053E+02  0.13552922015E+03  0.00000000000E+00 0.  1.
         14    1    6    6    0    0  0.45721725622E+01  0.30451056493E+02 -0.10944121084E+02  0.32679433743E+02  0.00000000000E+00 0. -1.
         -5    1    3    3    0  503  0.97334172370E+02  0.75095482779E+01 -0.34480151675E+03  0.35838597961E+03  0.47000000000E+01 0.  1.
         13    1    4    4    0    0 -0.37382129904E+01 -0.54974301001E+01 -0.57439323783E+02  0.57822762738E+02  0.00000000000E+00 0. -1.
        -14    1    4    4    0    0  0.10238303195E+03 -0.43827059661E+02 -0.93556657162E+02  0.14545083186E+03  0.00000000000E+00 0.  1.
</event>
<event>
12    1  0.8133495E-002  0.1867202E+03  0.7818608E-02  0.1162353E+00
         21   -1    0    0  503  502  0.00000000000E+00  0.00000000000E+00  0.82870127508E+02  0.82870127508E+02  0.00000000000E+00 0.  1.
         21   -1    0    0  501  503 -0.00000000000E+00 -0.00000000000E+00 -0.48920492511E+03  0.48920492511E+03  0.00000000000E+00 0. -1.
          6    2    1    2  501    0 -0.61414380135E+02  0.17561447223E+02 -0.31853005647E+03  0.36922330114E+03  0.17545460584E+03 0.  0.
         24    2    3    3    0    0  0.15444731462E+02 -0.37106132261E+02 -0.12685495647E+03  0.15554760940E+03  0.80544857227E+02 0.  0.
         -6    2    1    2    0  502  0.61414380135E+02 -0.17561447223E+02 -0.87804741130E+02  0.20285175148E+03  0.17134476939E+03 0.  0.
        -24    2    5    5    0    0  0.95359811043E+01  0.35811210463E+02 -0.90849402001E+02  0.12821014891E+03  0.82527878374E+02 0.  0.
          5    1    3    3  501    0 -0.76859111596E+02  0.54667579485E+02 -0.19167510000E+03  0.21367569174E+03  0.47000000000E+01 0. -1.
        -11    1    4    4    0    0  0.47302064583E+02 -0.10423668362E+02 -0.66494539431E+02  0.82265800610E+02  0.00000000000E+00 0.  1.
         12    1    4    4    0    0 -0.31857333122E+02 -0.26682463899E+02 -0.60360417041E+02  0.73281808785E+02  0.00000000000E+00 0. -1.
         -5    1    5    5    0  502  0.51878399031E+02 -0.53372657687E+02  0.30446608710E+01  0.74641602571E+02  0.47000000000E+01 0.  1.
         11    1    6    6    0    0 -0.36261585954E+02  0.10721612806E+02 -0.44413972079E+02  0.58330579569E+02  0.00000000000E+00 0. -1.
        -12    1    6    6    0    0  0.45797567058E+02  0.25089597657E+02 -0.46435429922E+02  0.69879569340E+02  0.00000000000E+00 0.  1.
</event>
<event>
12    1  0.8133495E-002  0.1890104E+03  0.7818608E-02  0.1159573E+00
         21   -1    0    0  501  502  0.00000000000E+00  0.00000000000E+00  0.49801762159E+03  0.49801762159E+03  0.00000000000E+00 0.  1.
         21   -1    0    0  502  503 -0.00000000000E+00 -0.00000000000E+00 -0.14587635643E+03  0.14587635643E+03  0.00000000000E+00 0. -1.
         -6    2    1    2    0  503 -0.76316050890E+02 -0.50344811653E+01 -0.53790632810E+02  0.19651550965E+03  0.17284509750E+03 0.  0.
        -24    2    3    3    0    0  0.17406310131E+02 -0.35487165928E+02 -0.16360391303E+02  0.90996033041E+02  0.80313741337E+02 0.  0.
          6    2    1    2  501    0  0.76316050890E+02  0.50344811653E+01  0.40593189797E+03  0.44737846837E+03  0.17180600265E+03 0.  0.
         24    2    5    5    0    0  0.87885343198E+01  0.60851322618E+00  0.77131924733E+02  0.11165377895E+03  0.80247267346E+02 0.  0.
          5    1    5    5  501    0  0.67527516570E+02  0.44259679391E+01  0.32879997324E+03  0.33572468942E+03  0.47000000000E+01 0. -1.
        -13    1    6    6    0    0  0.61322375232E+01 -0.24859362510E+01  0.94034072830E+02  0.94266595722E+02  0.00000000000E+00 0.  1.
         14    1    6    6    0    0  0.26562967966E+01  0.30944494771E+01 -0.16902148097E+02  0.17387183226E+02  0.00000000000E+00 0. -1.
         -5    1    3    3    0  503 -0.93722361020E+02  0.30452684763E+02 -0.37430241506E+02  0.10551947661E+03  0.47000000000E+01 0.  1.
         13    1    4    4    0    0 -0.20267258285E+01  0.76711536895E+01 -0.38095116720E+02  0.38912621788E+02  0.00000000000E+00 0. -1.
        -14    1    4    4    0    0  0.19433035959E+02 -0.43158319617E+02  0.21734725417E+02  0.52083411253E+02  0.00000000000E+00 0.  1.
</event>
<event>
12    1  0.8133495E-002  0.3437928E+03  0.7818608E-02  0.1065216E+00
         21   -1    0    0  503  502  0.00000000000E+00  0.00000000000E+00  0.20284203297E+04  0.20284203297E+04  0.00000000000E+00 0.  1.
         21   -1    0    0  501  503 -0.00000000000E+00 -0.00000000000E+00 -0.85702994197E+02  0.85702994197E+02  0.00000000000E+00 0. -1.
          6    2    1    2  501    0 -0.23309939960E+03  0.18485517392E+03  0.37266307735E+03  0.50686981137E+03  0.17185014122E+03 0.  0.
         24    2    3    3    0    0 -0.10933344835E+03  0.16110357098E+03  0.26418194756E+03  0.34051959390E+03  0.90847833776E+02 0.  0.
         -6    2    1    2    0  502  0.23309939960E+03 -0.18485517392E+03  0.15700542582E+04  0.16072535125E+04  0.17229833021E+03 0.  0.
        -24    2    5    5    0    0  0.10625023089E+03 -0.14828587958E+03  0.71526325943E+03  0.74231549950E+03  0.78440785712E+02 0.  0.
          5    1    3    3  501    0 -0.12376595125E+03  0.23751602934E+02  0.10848112979E+03  0.16635021746E+03  0.47000000000E+01 0. -1.
        -13    1    4    4    0    0 -0.10949231871E+03  0.90453881339E+02  0.19834238499E+03  0.24394707252E+03  0.00000000000E+00 0.  1.
         14    1    4    4    0    0  0.15887036413E+00  0.70649689646E+02  0.65839562572E+02  0.96572521385E+02  0.00000000000E+00 0. -1.
         -5    1    5    5    0  502  0.12684916871E+03 -0.36569294338E+02  0.85479099873E+03  0.86493801304E+03  0.47000000000E+01 0.  1.
         11    1    6    6    0    0  0.10676734106E+03 -0.15587154155E+03  0.70247022475E+03  0.72743358407E+03  0.00000000000E+00 0. -1.
        -12    1    6    6    0    0 -0.51711017168E+00  0.75856619678E+01  0.12793034685E+02  0.14881915430E+02  0.00000000000E+00 0.  1.
</event>
<event>
12    1  0.8133495E-002  0.1846995E+03  0.7818608E-02  0.1163880E+00
         21   -1    0    0  501  502  0.00000000000E+00  0.00000000000E+00  0.34089242718E+02  0.34089242718E+02  0.00000000000E+00 0.  1.
         21   -1    0    0  502  503 -0.00000000000E+00 -0.00000000000E+00 -0.12080281631E+04  0.12080281631E+04  0.00000000000E+00 0.  1.
         -6    2    1    2    0  503 -0.50247113063E+02 -0.50125808556E+02 -0.84889112244E+03  0.86825916111E+03  0.16798947602E+03 0.  0.
        -24    2    3    3    0    0 -0.94212443389E+02 -0.43679064202E+02 -0.51837074507E+03  0.53473206980E+03  0.80288928210E+02 0.  0.
          6    2    1    2  501    0  0.50247113063E+02  0.50125808556E+02 -0.32504779790E+03  0.37385824466E+03  0.17051846564E+03 0.  0.
         24    2    5    5    0    0 -0.19169719872E+02 -0.64928014242E+01 -0.10187243336E+03  0.13333028988E+03  0.83602266063E+02 0.  0.
          5    1    5    5  501    0  0.69416832934E+02  0.56618609980E+02 -0.22317536454E+03  0.24052795478E+03  0.47000000000E+01 0. -1.
        -11    1    6    6    0    0  0.68153738551E+01 -0.14359866778E+02 -0.10482231849E+03  0.10602062793E+03  0.00000000000E+00 0.  1.
         12    1    6    6    0    0 -0.25985093727E+02  0.78670653534E+01  0.29498851303E+01  0.27309661945E+02  0.00000000000E+00 0. -1.
         -5    1    3    3    0  503  0.43965330327E+02 -0.64467443538E+01 -0.33052037737E+03  0.33352709131E+03  0.47000000000E+01 0.  1.
         11    1    4    4    0    0 -0.37800947662E+01 -0.38126170995E+02 -0.20396053987E+03  0.20752781947E+03  0.00000000000E+00 0. -1.
        -12    1    4    4    0    0 -0.90432348623E+02 -0.55528932065E+01 -0.31441020519E+03  0.32720425032E+03  0.00000000000E+00 0.  1.
</event>
<event>
12    1  0.8133495E-002  0.2455876E+03  0.7818608E-02  0.1117267E+00
         21   -1    0    0  501  502  0.00000000000E+00  0.00000000000E+00  0.19924160537E+03  0.19924160537E+03  0.00000000000E+00 0. -1.
         21   -1    0    0  502  503 -0.00000000000E+00 -0.00000000000E+00 -0.41914481299E+03  0.41914481299E+03  0.00000000000E+00 0.  1.
         -6    2    1    2    0  503  0.65153359054E+02 -0.16247851758E+03 -0.27985539365E+03  0.37233362856E+03  0.17224709209E+03 0.  0.
        -24    2    3    3    0    0  0.34206990716E+02 -0.14750126779E+03 -0.11870515091E+03  0.20748980411E+03  0.77681167232E+02 0.  0.
          6    2    1    2  501    0 -0.65153359054E+02  0.16247851758E+03  0.59952186028E+02  0.24605278979E+03  0.16218348216E+03 0.  0.
         24    2    5    5    0    0 -0.55599160848E+02  0.13295616853E+03 -0.14908754182E+02  0.16487950499E+03  0.78704325025E+02 0.  0.
          5    1    5    5  501    0 -0.95541982062E+01  0.29522349050E+02  0.74860940210E+02  0.81173284804E+02  0.47000000000E+01 0. -1.
        -11    1    6    6    0    0 -0.25637373794E+02  0.13157260601E+03 -0.93301825237E+01  0.13437141769E+03  0.00000000000E+00 0.  1.
         12    1    6    6    0    0 -0.29961787054E+02  0.13835625186E+01 -0.55785716587E+01  0.30508087296E+02  0.00000000000E+00 0. -1.
         -5    1    3    3    0  503  0.30946368338E+02 -0.14977249785E+02 -0.16115024274E+03  0.16484382446E+03  0.47000000000E+01 0.  1.
         11    1    4    4    0    0  0.34626378896E+02 -0.11562790917E+03 -0.12632120504E+03  0.17471647415E+03  0.00000000000E+00 0. -1.
        -12    1    4    4    0    0 -0.41938817999E+00 -0.31873358618E+02  0.76160541350E+01  0.32773329959E+02  0.00000000000E+00 0.  1.
</event>
<event>
12    1  0.8133495E-002  0.2297932E+03  0.7818608E-02  0.1126837E+00
         21   -1    0    0  503  502  0.00000000000E+00  0.00000000000E+00  0.30852533097E+03  0.30852533097E+03  0.00000000000E+00 0.  1.
         21   -1    0    0  501  503 -0.00000000000E+00 -0.00000000000E+00 -0.28238323605E+03  0.28238323605E+03  0.00000000000E+00 0. -1.
          6    2    1    2  501    0  0.10797137256E+03  0.10704461202E+03 -0.17254662289E+03  0.28712887032E+03  0.17191359704E+03 0.  0.
         24    2    3    3    0    0  0.12899745274E+03  0.61227155497E+02 -0.81067178186E+02  0.18257307578E+03  0.79824389985E+02 0.  0.
         -6    2    1    2    0  502 -0.10797137256E+03 -0.10704461202E+03  0.19868871781E+03  0.30377969670E+03  0.17230360207E+03 0.  0.
        -24    2    5    5    0    0  0.33971088972E+01 -0.79377634997E+02  0.12107536936E+03  0.16516396116E+03  0.79420020868E+02 0.  0.
          5    1    3    3  501    0 -0.21026080177E+02  0.45817456518E+02 -0.91479444700E+02  0.10455579454E+03  0.47000000000E+01 0. -1.
        -11    1    4    4    0    0  0.45159000228E+02  0.65390466299E+02 -0.35173995762E+02  0.86904881119E+02  0.00000000000E+00 0.  1.
         12    1    4    4    0    0  0.83838452512E+02 -0.41633108020E+01 -0.45893182425E+02  0.95668194660E+02  0.00000000000E+00 0. -1.
         -5    1    5    5    0  502 -0.11136848146E+03 -0.27666977018E+02  0.77613348452E+02  0.13861573554E+03  0.47000000000E+01 0.  1.
         11    1    6    6    0    0 -0.29183865592E+02 -0.27257485720E+02  0.15177029935E+02  0.42720144853E+02  0.00000000000E+00 0. -1.
        -12    1    6    6    0    0  0.32580974489E+02 -0.52120149277E+02  0.10589833943E+03  0.12244381631E+03  0.00000000000E+00 0.  1.
</event>
<event>
12    1  0.8133495E-002  0.1766941E+03  0.7818608E-02  0.1171146E+00
         21   -1    0    0  501  502  0.00000000000E+00  0.00000000000E+00  0.76907244225E+02  0.76907244225E+02  0.00000000000E+00 0.  1.
         21   -1    0    0  502  503 -0.00000000000E+00 -0.00000000000E+00 -0.43613645708E+03  0.43613645708E+03  0.00000000000E+00 0.  1.
         -6    2    1    2    0  503  0.41638802578E+01  0.37550089032E+02 -0.11125936156E+03  0.20880477905E+03  0.17260777253E+03 0.  0.
        -24    2    3    3    0    0  0.11541982708E+02  0.28078557818E+02  0.10112433423E+02  0.86750082642E+02  0.80633074819E+02 0.  0.
          6    2    1    2  501    0 -0.41638802578E+01 -0.37550089032E+02 -0.24796985130E+03  0.30423892225E+03  0.17217702395E+03 0.  0.
         24    2    5    5    0    0 -0.27986280561E+02 -0.82205571433E+01 -0.25540564505E+03  0.26544318504E+03  0.66160649188E+02 0.  0.
          5    1    5    5  501    0  0.23822400303E+02 -0.29329531889E+02  0.74357937540E+01  0.38795737212E+02  0.47000000000E+01 0. -1.
        -11    1    6    6    0    0 -0.45648654014E+02  0.60733564975E+01 -0.12810671245E+03  0.13613234387E+03  0.00000000000E+00 0.  1.
         12    1    6    6    0    0  0.17662373453E+02 -0.14293913641E+02 -0.12729893260E+03  0.12931084117E+03  0.00000000000E+00 0. -1.
         -5    1    3    3    0  503 -0.73781024504E+01  0.94715312146E+01 -0.12137179498E+03  0.12205469641E+03  0.47000000000E+01 0.  1.
         13    1    4    4    0    0  0.25202317535E+01  0.13023753371E+02  0.45421810630E+02  0.47319241338E+02  0.00000000000E+00 0. -1.
        -14    1    4    4    0    0  0.90217509547E+01  0.15054804446E+02 -0.35309377207E+02  0.39430841304E+02  0.00000000000E+00 0.  1.
</event>
<event>
12    1  0.8133495E-002  0.1936876E+03  0.7818608E-02  0.1156072E+00
         21   -1    0    0  503  502  0.00000000000E+00  0.00000000000E+00  0.34655224137E+03  0.34655224137E+03  0.00000000000E+00 0.  1.
         21   -1    0    0  501  503 -0.00000000000E+00 -0.00000000000E+00 -0.17470582316E+03  0.17470582316E+03  0.00000000000E+00 0.  1.
          6    2    1    2  501    0 -0.83969896411E+02 -0.12458873049E+02 -0.78044558287E+02  0.20509293487E+03  0.16960540037E+03 0.  0.
         24    2    3    3    0    0 -0.67262968221E+02 -0.34826631460E+01 -0.11968134153E+03  0.15909939715E+03  0.80327821002E+02 0.  0.
         -6    2    1    2    0  502  0.83969896411E+02  0.12458873049E+02  0.24989097649E+03  0.31616512966E+03  0.17409400352E+03 0.  0.
        -24    2    5    5    0    0 -0.19898283404E+02  0.25900874766E+02  0.88106152326E+02  0.12338103924E+03  0.79958675394E+02 0.  0.
          5    1    3    3  501    0 -0.16706928190E+02 -0.89762099032E+01  0.41636783240E+02  0.45993537724E+02  0.47000000000E+01 0. -1.
        -11    1    4    4    0    0 -0.62475910084E+02 -0.23460270499E+02 -0.42240941624E+02  0.78980508874E+02  0.00000000000E+00 0.  1.
         12    1    4    4    0    0 -0.47870581367E+01  0.19977607353E+02 -0.77440399903E+02  0.80118888274E+02  0.00000000000E+00 0. -1.
         -5    1    5    5    0  502  0.10386817982E+03 -0.13442001717E+02  0.16178482417E+03  0.19278409042E+03  0.47000000000E+01 0.  1.
         13    1    6    6    0    0  0.51300467789E+01 -0.17537016599E+02 -0.38259348079E+01  0.18668211171E+02  0.00000000000E+00 0. -1.
        -14    1    6    6    0    0 -0.25028330183E+02  0.43437891365E+02  0.91932087134E+02  0.10471282807E+03  0.00000000000E+00 0.  1.
</event>
<event>
12    1  0.8133495E-002  0.3181028E+03  0.7818608E-02  0.1076604E+00
         21   -1    0    0  503  502  0.00000000000E+00  0.00000000000E+00  0.15269468190E+03  0.15269468190E+03  0.00000000000E+00 0. -1.
         21   -1    0    0  501  503 -0.00000000000E+00 -0.00000000000E+00 -0.97624921399E+03  0.97624921399E+03  0.00000000000E+00 0.  1.
          6    2    1    2  501    0 -0.26437807276E+03  0.33544022941E+02 -0.91453384908E+02  0.33098806135E+03  0.17369055332E+03 0.  0.
         24    2    3    3    0    0 -0.77394466795E+02  0.57618720496E+02 -0.63356698911E+02  0.14032088083E+03  0.79787579599E+02 0.  0.
         -6    2    1    2    0  502  0.26437807276E+03 -0.33544022941E+02 -0.73210114719E+03  0.79795583454E+03  0.17245421808E+03 0.  0.
        -24    2    5    5    0    0  0.21268967790E+03 -0.54648666732E+02 -0.41282426744E+03  0.47380014341E+03  0.76415471241E+02 0.  0.
          5    1    3    3  501    0 -0.18698360597E+03 -0.24074697555E+02 -0.28096685997E+02  0.19066718052E+03  0.47000000000E+01 0. -1.
        -11    1    4    4    0    0 -0.59370770605E+01 -0.58527995005E+01 -0.41431803438E+02  0.42262258365E+02  0.00000000000E+00 0.  1.
         12    1    4    4    0    0 -0.71457389735E+02  0.63471519996E+02 -0.21924895473E+02  0.98058622466E+02  0.00000000000E+00 0. -1.
         -5    1    5    5    0  502  0.51688394861E+02  0.21104643791E+02 -0.31927687975E+03  0.32415569113E+03  0.47000000000E+01 0.  1.
         11    1    6    6    0    0  0.20568736710E+02 -0.40155108560E+01 -0.72499652606E+01  0.22175645505E+02  0.00000000000E+00 0. -1.
        -12    1    6    6    0    0  0.19212094119E+03 -0.50633155876E+02 -0.40557430218E+03  0.45162449790E+03  0.00000000000E+00 0.  1.
</event>
<event>
12    1  0.8133495E-002  0.1854247E+03  0.7818608E-02  0.1162814E+00
         21   -1    0    0  503  502  0.00000000000E+00  0.00000000000E+00  0.18538716263E+03  0.18538716263E+03  0.00000000000E+00 0. -1.
         21   -1    0    0  501  503 -0.00000000000E+00 -0.00000000000E+00 -0.25415398698E+03  0.25415398698E+03  0.00000000000E+00 0.  1.
          6    2    1    2  501    0 -0.18189668561E+02  0.65972749684E+02 -0.14925205903E+03  0.23803047205E+03  0.17233415436E+03 0.  0.
         24    2    3    3    0    0 -0.15501815862E+02  0.44237890129E+02 -0.59767325923E+01  0.93014825180E+02  0.80117034099E+02 0.  0.
         -6    2    1    2    0  502  0.18189668561E+02 -0.65972749684E+02  0.80485234679E+02  0.20151067756E+03  0.17159665622E+03 0.  0.
        -24    2    5    5    0    0  0.19645390097E+02 -0.75602312045E+02  0.11807566658E+03  0.16239574221E+03  0.79554152057E+02 0.  0.
          5    1    3    3  501    0 -0.26878526991E+01  0.21734859556E+02 -0.14327532644E+03  0.14501564687E+03  0.47000000000E+01 0. -1.
        -13    1    4    4    0    0 -0.11682214852E+02  0.60937558911E+01 -0.39779730446E+02  0.41905070803E+02  0.00000000000E+00 0.  1.
         14    1    4    4    0    0 -0.38196010095E+01  0.38144134238E+02  0.33802997853E+02  0.51109754377E+02  0.00000000000E+00 0. -1.
         -5    1    5    5    0  502 -0.14557215365E+01  0.96295623603E+01 -0.37590431905E+02  0.39114935348E+02  0.47000000000E+01 0.  1.
         11    1    6    6    0    0 -0.18693144316E+02 -0.39751833674E+02  0.14464805691E+02  0.46247946209E+02  0.00000000000E+00 0. -1.
        -12    1    6    6    0    0  0.38338534413E+02 -0.35850478370E+02  0.10361086089E+03  0.11614779600E+03  0.00000000000E+00 0.  1.
</event>
<event>
12    1  0.8133495E-002  0.2348134E+03  0.7818608E-02  0.1124063E+00
         21   -1    0    0  501  502  0.00000000000E+00  0.00000000000E+00  0.10390863256E+03  0.10390863256E+03  0.00000000000E+00 0.  1.
         21   -1    0    0  502  503 -0.00000000000E+00 -0.00000000000E+00 -0.52317016249E+03  0.52317016249E+03  0.00000000000E+00 0. -1.
         -6    2    1    2    0  503  0.58398032472E+02 -0.14927566416E+03 -0.23327204889E+03  0.33098815763E+03  0.17159183427E+03 0.  0.
        -24    2    3    3    0    0  0.96627848444E+02 -0.10707794775E+03 -0.21050241488E+03  0.26948439894E+03  0.86648408023E+02 0.  0.
          6    2    1    2  501    0 -0.58398032472E+02  0.14927566416E+03 -0.18598948104E+03  0.29609063742E+03  0.16548119048E+03 0.  0.
         24    2    5    5    0    0 -0.31243824306E+02  0.13619238446E+02 -0.34895817540E+02  0.91172600125E+02  0.77026389755E+02 0.  0.
          5    1    5    5  501    0 -0.27154208165E+02  0.13565642572E+03 -0.15109366350E+03  0.20491803729E+03  0.47000000000E+01 0. -1.
        -13    1    6    6    0    0 -0.42725062988E+02  0.37334545973E+02 -0.30638026351E+02  0.64482462647E+02  0.00000000000E+00 0.  1.
         14    1    6    6    0    0  0.11481238682E+02 -0.23715307527E+02 -0.42577911888E+01  0.26690137478E+02  0.00000000000E+00 0. -1.
         -5    1    3    3    0  503 -0.38229815973E+02 -0.42197716415E+02 -0.22769634016E+02  0.61503758692E+02  0.47000000000E+01 0.  1.
         13    1    4    4    0    0  0.48796149247E+02 -0.89654639878E+02 -0.80908027859E+02  0.13025024992E+03  0.00000000000E+00 0. -1.
        -14    1    4    4    0    0  0.47831699198E+02 -0.17423307870E+02 -0.12959438702E+03  0.13923414902E+03  0.00000000000E+00 0.  1.
</event>
<event>
12    1  0.8133495E-002  0.1905012E+03  0.7818608E-02  0.1158203E+00
         21   -1    0    0  503  502  0.00000000000E+00  0.00000000000E+00  0.55071698329E+03  0.55071698329E+03  0.00000000000E+00 0. -1.
         21   -1    0    0  501  503 -0.00000000000E+00 -0.00000000000E+00 -0.85908228846E+02  0.85908228846E+02  0.00000000000E+00 0. -1.
          6    2    1    2  501    0  0.20023171282E+02 -0.78818285948E+02  0.77242427001E+02  0.20477065290E+03  0.17132243920E+03 0.  0.
         24    2    3    3    0    0  0.27765893285E+02 -0.65681921196E+02  0.11760449056E+03  0.16136904005E+03  0.84404332147E+02 0.  0.
         -6    2    1    2    0  502 -0.20023171282E+02  0.78818285948E+02  0.38756632744E+03  0.43185455924E+03  0.17227145027E+03 0.  0.
        -24    2    5    5    0    0  0.50310261307E+01  0.45514322110E+02  0.37584877565E+03  0.38830851653E+03  0.86164593153E+02 0.  0.
          5    1    3    3  501    0 -0.77427220033E+01 -0.13136364751E+02 -0.40362063561E+02  0.43401612848E+02  0.47000000000E+01 0. -1.
        -11    1    4    4    0    0 -0.26406083671E+02 -0.30163622606E+02  0.71112843800E+02  0.81634318377E+02  0.00000000000E+00 0.  1.
         12    1    4    4    0    0  0.54171976956E+02 -0.35518298591E+02  0.46491646762E+02  0.79734721676E+02  0.00000000000E+00 0. -1.
         -5    1    5    5    0  502 -0.25054197412E+02  0.33303963838E+02  0.11717551797E+02  0.43546042707E+02  0.47000000000E+01 0.  1.
         13    1    6    6    0    0  0.30473785296E+02  0.31808419387E+02  0.82358954239E+02  0.93399274502E+02  0.00000000000E+00 0. -1.
        -14    1    6    6    0    0 -0.25442759165E+02  0.13705902723E+02  0.29348982141E+03  0.29490924203E+03  0.00000000000E+00 0.  1.
</event>
<event>
12    1  0.8133495E-002  0.2067809E+03  0.7818608E-02  0.1144706E+00
         21   -1    0    0  503  502  0.00000000000E+00  0.00000000000E+00  0.53965628805E+03  0.53965628805E+03  0.00000000000E+00 0.  1.
         21   -1    0    0  501  503 -0.00000000000E+00 -0.00000000000E+00 -0.11102911464E+03  0.11102911464E+03  0.00000000000E+00 0.  1.
          6    2    1    2  501    0 -0.51877595417E+02  0.98463861342E+02  0.38351561962E+02  0.21030731429E+03  0.17427537761E+03 0.  0.
         24    2    3    3    0    0  0.24967469275E+02  0.14968226107E+02 -0.17061139919E+02  0.83937450000E+02  0.76856949604E+02 0.  0.
         -6    2    1    2    0  502  0.51877595417E+02 -0.98463861342E+02  0.39027561144E+03  0.44037808840E+03  0.17097190109E+03 0.  0.
        -24    2    5    5    0    0  0.43336886695E+02 -0.72172259663E+02  0.39527731416E+03  0.41189477654E+03  0.79537607705E+02 0.  0.
          5    1    3    3  501    0 -0.76845064692E+02  0.83495635234E+02  0.55412701881E+02  0.12636986429E+03  0.47000000000E+01 0. -1.
        -13    1    4    4    0    0 -0.15647752874E+02 -0.17623800937E+02 -0.21197231369E+02  0.31698156842E+02  0.00000000000E+00 0.  1.
         14    1    4    4    0    0  0.40615222150E+02  0.32592027044E+02  0.41360914500E+01  0.52239293158E+02  0.00000000000E+00 0. -1.
         -5    1    5    5    0  502  0.85407087218E+01 -0.26291601679E+02 -0.50017027204E+01  0.28483311858E+02  0.47000000000E+01 0.  1.
         13    1    6    6    0    0 -0.16618090883E+01  0.10310787774E+02  0.13092503602E+03  0.13134092664E+03  0.00000000000E+00 0. -1.
        -14    1    6    6    0    0  0.44998695783E+02 -0.82483047436E+02  0.26435227815E+03  0.28055384991E+03  0.00000000000E+00 0.  1.
</event>
<event>
12    1  0.8133495E-002  0.2766224E+03  0.7818608E-02  0.1097742E+00
         21   -1    0    0  503  502  0.00000000000E+00  0.00000000000E+00  0.32730929597E+03  0.32730929597E+03  0.00000000000E+00 0. -1.
         21   -1    0    0  501  503 -0.00000000000E+00 -0.00000000000E+00 -0.30734240289E+03  0.30734240289E+03  0.00000000000E+00 0.  1.
          6    2    1    2  501    0  0.18919021135E+03  0.10267174203E+03 -0.14651203218E+03  0.31179694858E+03  0.17151425272E+03 0.  0.
         24    2    3    3    0    0  0.69746260247E+02  0.47096934635E+02 -0.13772525093E+03  0.17968065815E+03  0.78957153560E+02 0.  0.
         -6    2    1    2    0  502 -0.18919021135E+03 -0.10267174203E+03  0.16647892526E+03  0.32285475029E+03  0.17373984732E+03 0.  0.
        -24    2    5    5    0    0 -0.15020918678E+03 -0.13214253517E+03  0.16858138589E+03  0.27371659540E+03  0.80477584046E+02 0.  0.
          5    1    3    3  501    0  0.11944395111E+03  0.55574807392E+02 -0.87867812514E+01  0.13211629043E+03  0.47000000000E+01 0. -1.
        -13    1    4    4    0    0  0.53415540137E+02  0.52064485858E+02 -0.48811189081E+02  0.89142934635E+02  0.00000000000E+00 0.  1.
         14    1    4    4    0    0  0.16330720109E+02 -0.49675512231E+01 -0.88914061846E+02  0.90537723511E+02  0.00000000000E+00 0. -1.
         -5    1    5    5    0  502 -0.38981024573E+02  0.29470793146E+02 -0.21024606303E+01  0.49138154891E+02  0.47000000000E+01 0.  1.
         11    1    6    6    0    0 -0.61752220169E+02 -0.68737145806E+02  0.12733489549E+03  0.15732866083E+03  0.00000000000E+00 0. -1.
        -12    1    6    6    0    0 -0.88456966609E+02 -0.63405389367E+02  0.41246490397E+02  0.11638793457E+03  0.00000000000E+00 0.  1.
</event>
<event>
12    1  0.8133495E-002  0.2710337E+03  0.7818608E-02  0.1101290E+00
         21   -1    0    0  503  502  0.00000000000E+00  0.00000000000E+00  0.13451985945E+03  0.13451985945E+03  0.00000000000E+00 0. -1.
         21   -1    0    0  501  503 -0.00000000000E+00 -0.00000000000E+00 -0.54093450880E+03  0.54093450880E+03  0.00000000000E+00 0. -1.
          6    2    1    2  501    0  0.20270440642E+03 -0.19459458583E+02 -0.22777287108E+03  0.35084360624E+03  0.17246161407E+03 0.  0.
         24    2    3    3    0    0  0.20785308999E+03 -0.37992899712E+02 -0.15056371237E+03  0.27113575486E+03  0.78732449700E+02 0.  0.
         -6    2    1    2    0  502 -0.20270440642E+03  0.19459458583E+02 -0.17864177827E+03  0.32461076201E+03  0.17886172023E+03 0.  0.
        -24    2    5    5    0    0 -0.59777530585E+02 -0.52909530778E+02 -0.63759424649E+02  0.12741692938E+03  0.76138282423E+02 0.  0.
          5    1    3    3  501    0 -0.51486835669E+01  0.18533441129E+02 -0.77209158710E+02  0.79707851378E+02  0.47000000000E+01 0. -1.
        -13    1    4    4    0    0  0.85963627034E+01  0.44136229960E+01 -0.36290707083E+02  0.37555198579E+02  0.00000000000E+00 0.  1.
         14    1    4    4    0    0  0.19925672728E+03 -0.42406522708E+02 -0.11427300529E+03  0.23358055628E+03  0.00000000000E+00 0. -1.
         -5    1    5    5    0  502 -0.14292687583E+03  0.72368989361E+02 -0.11488235362E+03  0.19719383264E+03  0.47000000000E+01 0.  1.
         11    1    6    6    0    0 -0.75779258493E+02 -0.43179285482E+02 -0.64807390727E+02  0.10865976535E+03  0.00000000000E+00 0. -1.
        -12    1    6    6    0    0  0.16001727908E+02 -0.97302452963E+01  0.10479660779E+01  0.18757164030E+02  0.00000000000E+00 0.  1.
</event>
<event>
12    1  0.8133495E-002  0.1863311E+03  0.7818608E-02  0.1162039E+00
         21   -1    0    0  501  502  0.00000000000E+00  0.00000000000E+00  0.59270371477E+02  0.59270371477E+02  0.00000000000E+00 0. -1.
         21   -1    0    0  502  503 -0.00000000000E+00 -0.00000000000E+00 -0.62035429292E+03  0.62035429292E+03  0.00000000000E+00 0. -1.
         -6    2    1    2    0  503  0.51976604520E+02  0.49779136681E+02 -0.36494234502E+03  0.40975871560E+03  0.17187134710E+03 0.  0.
        -24    2    3    3    0    0  0.75207625359E+02 -0.15898570424E+02 -0.26836005846E+03  0.29058040542E+03  0.80690145519E+02 0.  0.
          6    2    1    2  501    0 -0.51976604520E+02 -0.49779136681E+02 -0.19614157642E+03  0.26986594880E+03  0.17081154075E+03 0.  0.
         24    2    5    5    0    0 -0.36435511332E+02 -0.45885945457E+02 -0.32484741616E+02  0.10535962037E+03  0.81316201888E+02 0.  0.
          5    1    5    5  501    0 -0.15541093188E+02 -0.38931912240E+01 -0.16365683481E+03  0.16450632843E+03  0.47000000000E+01 0. -1.
        -13    1    6    6    0    0  0.17877369624E+02  0.93621908373E+01 -0.16925231283E+02  0.26338458875E+02  0.00000000000E+00 0.  1.
         14    1    6    6    0    0 -0.54312880956E+02 -0.55248136294E+02 -0.15559510333E+02  0.79021161492E+02  0.00000000000E+00 0. -1.
         -5    1    3    3    0  503 -0.23231020839E+02  0.65677707105E+02 -0.96582286564E+02  0.11917831018E+03  0.47000000000E+01 0.  1.
         13    1    4    4    0    0  0.68478174870E+02  0.14770482569E+02 -0.12014846467E+03  0.13907940592E+03  0.00000000000E+00 0. -1.
        -14    1    4    4    0    0  0.67294504893E+01 -0.30669052993E+02 -0.14821159379E+03  0.15150099950E+03  0.00000000000E+00 0.  1.
</event>
<event>
12    1  0.8133495E-002  0.1939099E+03  0.7818608E-02  0.1157168E+00
         21   -1    0    0  503  502  0.00000000000E+00  0.00000000000E+00  0.10958112327E+03  0.10958112327E+03  0.00000000000E+00 0.  1.
         21   -1    0    0  501  503 -0.00000000000E+00 -0.00000000000E+00 -0.60108994628E+03  0.60108994628E+03  0.00000000000E+00 0.  1.
          6    2    1    2  501    0  0.35170892463E+02 -0.80460293261E+02 -0.48942414136E+03  0.52643806052E+03  0.17288779875E+03 0.  0.
         24    2    3    3    0    0 -0.16907690180E+01 -0.11639770679E+03 -0.32245486739E+03  0.35164930737E+03  0.78286710425E+02 0.  0.
         -6    2    1    2    0  502 -0.35170892463E+02  0.80460293261E+02 -0.20846816511E+01  0.18423300903E+03  0.16194630360E+03 0.  0.
        -24    2    5    5    0    0  0.12951794888E+02 -0.18203642577E+01 -0.26739266552E+02  0.85664057548E+02  0.80326083329E+02 0.  0.
          5    1    3    3  501    0  0.36861661481E+02  0.35937413526E+02 -0.16696927397E+03  0.17478875315E+03  0.47000000000E+01 0. -1.
        -11    1    4    4    0    0  0.97261886573E+01 -0.47228945275E+02 -0.23330986740E+03  0.23824077368E+03  0.00000000000E+00 0.  1.
         12    1    4    4    0    0 -0.11416957675E+02 -0.69168761512E+02 -0.89144999988E+02  0.11340853369E+03  0.00000000000E+00 0. -1.
         -5    1    5    5    0  502 -0.48122687351E+02  0.82280657518E+02  0.24654584901E+02  0.98568951482E+02  0.47000000000E+01 0.  1.
         11    1    6    6    0    0 -0.93965025734E+01  0.91030553785E+01 -0.49954260338E+02  0.51639016293E+02  0.00000000000E+00 0. -1.
        -12    1    6    6    0    0  0.22348297461E+02 -0.10923419636E+02  0.23214993785E+02  0.34025041255E+02  0.00000000000E+00 0.  1.
</event>
<event>
12    1  0.8133495E-002  0.2041336E+03  0.7818608E-02  0.1146637E+00
         21   -1    0    0  501  502  0.00000000000E+00  0.00000000000E+00  0.17074396444E+03  0.17074396444E+03  0.00000000000E+00 0. -1.
         21   -1    0    0  502  503 -0.00000000000E+00 -0.00000000000E+00 -0.25406455123E+03  0.25406455123E+03  0.00000000000E+00 0.  1.
         -6    2    1    2    0  503  0.84097068173E+02  0.64045202326E+02  0.42964051047E+01  0.20417880182E+03  0.17463223987E+03 0.  0.
        -24    2    3    3    0    0  0.48503129684E+02 -0.12983368593E+02 -0.47262167739E+02  0.10477706326E+03  0.78888522850E+02 0.  0.
          6    2    1    2  501    0 -0.84097068173E+02 -0.64045202326E+02 -0.87616991888E+02  0.22062971385E+03  0.17270387531E+03 0.  0.
         24    2    5    5    0    0 -0.90233035906E+02 -0.28529901392E+02  0.20456302679E+01  0.12388023058E+03  0.79913521281E+02 0.  0.
          5    1    5    5  501    0  0.61359677330E+01 -0.35515300933E+02 -0.89662622156E+02  0.96749483266E+02  0.47000000000E+01 0. -1.
        -11    1    6    6    0    0 -0.11025494067E+02  0.21812579203E+02 -0.14736322360E+02  0.28539609802E+02  0.00000000000E+00 0.  1.
         12    1    6    6    0    0 -0.79207541839E+02 -0.50342480596E+02  0.16781952628E+02  0.95340620780E+02  0.00000000000E+00 0. -1.
         -5    1    3    3    0  503  0.35593938488E+02  0.77028570919E+02  0.51558572843E+02  0.99401738559E+02  0.47000000000E+01 0.  1.
         13    1    4    4    0    0  0.36928627814E+02 -0.90650268989E+01  0.15333217448E+02  0.41000071003E+02  0.00000000000E+00 0. -1.
        -14    1    4    4    0    0  0.11574501870E+02 -0.39183416942E+01 -0.62595385186E+02  0.63776992261E+02  0.00000000000E+00 0.  1.
</event>
<event>
12    1  0.8133495E-002  0.1958037E+03  0.7818608E-02  0.1156955E+00
         21   -1    0    0  503  502  0.00000000000E+00  0.00000000000E+00  0.47305092647E+03  0.47305092647E+03  0.00000000000E+00 0. -1.
         21   -1    0    0  501  503 -0.00000000000E+00 -0.00000000000E+00 -0.19756598066E+03  0.19756598066E+03  0.00000000000E+00 0. -1.
          6    2    1    2  501    0  0.49877376652E+02 -0.39315819098E+01 -0.12894941057E+03  0.22127711266E+03  0.17272058379E+03 0.  0.
         24    2    3    3    0    0  0.30000498081E+02  0.18429026917E+02  0.33737321440E+01  0.85532531826E+02  0.77876652558E+02 0.  0.
         -6    2    1    2    0  502 -0.49877376652E+02  0.39315819098E+01  0.40443435638E+03  0.44933979446E+03  0.18930370367E+03 0.  0.
        -24    2    5    5    0    0 -0.90866661024E+02  0.68784133635E+01  0.15506370030E+03  0.19656198815E+03  0.79295658002E+02 0.  0.
          5    1    3    3  501    0  0.19876878571E+02 -0.22360608827E+02 -0.13232314272E+03  0.13574458084E+03  0.47000000000E+01 0. -1.
        -11    1    4    4    0    0  0.49531699393E+02  0.33079922805E+02  0.96114118384E+01  0.60332825022E+02  0.00000000000E+00 0.  1.
         12    1    4    4    0    0 -0.19531201312E+02 -0.14650895888E+02 -0.62376796944E+01  0.25199706804E+02  0.00000000000E+00 0. -1.
         -5    1    5    5    0  502  0.40989284372E+02 -0.29468314537E+01  0.24937065608E+03  0.25277780631E+03  0.47000000000E+01 0.  1.
         11    1    6    6    0    0 -0.67657328045E+02 -0.29840727379E+02  0.11900021272E+03  0.14010365333E+03  0.00000000000E+00 0. -1.
        -12    1    6    6    0    0 -0.23209332979E+02  0.36719140743E+02  0.36063487585E+02  0.56458334823E+02  0.00000000000E+00 0.  1.
</event>
<event>
12    1  0.8133495E-002  0.2402771E+03  0.7818608E-02  0.1121818E+00
         21   -1    0    0  501  502  0.00000000000E+00  0.00000000000E+00  0.18369573922E+04  0.18369573922E+04  0.00000000000E+00 0. -1.
         21   -1    0    0  502  503 -0.00000000000E+00 -0.00000000000E+00 -0.68140474158E+02  0.68140474158E+02  0.00000000000E+00 0. -1.
         -6    2    1    2    0  503  0.12894357181E+03  0.10575835919E+03  0.15901057555E+03  0.27745860855E+03  0.15455627154E+03 0.  0.
        -24    2    3    3    0    0  0.14687957564E+03  0.11273942932E+03  0.12526736029E+03  0.23832895037E+03  0.82613487790E+02 0.  0.
          6    2    1    2  501    0 -0.12894357181E+03 -0.10575835919E+03  0.16098063425E+04  0.16276392578E+04  0.17297924146E+03 0.  0.
         24    2    5    5    0    0 -0.32379234546E+02  0.12352578400E+02  0.63829131775E+03  0.64420730891E+03  0.79914013268E+02 0.  0.
          5    1    5    5  501    0 -0.96564337262E+02 -0.11811093759E+03  0.97151502474E+03  0.98343194889E+03  0.47000000000E+01 0. -1.
        -13    1    6    6    0    0 -0.54869297376E+02  0.22102894733E+02  0.52327252257E+03  0.52660546012E+03  0.00000000000E+00 0.  1.
         14    1    6    6    0    0  0.22490062830E+02 -0.97503163335E+01  0.11501879518E+03  0.11760184879E+03  0.00000000000E+00 0. -1.
         -5    1    3    3    0  503 -0.17936003834E+02 -0.69810701270E+01  0.33743215251E+02  0.39129658178E+02  0.47000000000E+01 0.  1.
         11    1    4    4    0    0  0.14249834903E+03  0.68244425632E+02  0.99720587583E+02  0.18683489153E+03  0.00000000000E+00 0. -1.
        -12    1    4    4    0    0  0.43812266156E+01  0.44495003687E+02  0.25546772711E+02  0.51494058839E+02  0.00000000000E+00 0.  1.
</event>
<event>
12    1  0.8133495E-002  0.2117926E+03  0.7818608E-02  0.1141103E+00
         21   -1    0    0  503  502  0.00000000000E+00  0.00000000000E+00  0.47865717390E+03  0.47865717390E+03  0.00000000000E+00 0.  1.
         21   -1    0    0  501  503 -0.00000000000E+00 -0.00000000000E+00 -0.19770927932E+03  0.19770927932E+03  0.00000000000E+00 0.  1.
          6    2    1    2  501    0  0.12105946014E+03 -0.15616292459E+02 -0.10800675163E+03  0.23348745954E+03  0.16718754106E+03 0.  0.
         24    2    3    3    0    0  0.86688217393E+02 -0.57146129172E+02 -0.30189130947E+02  0.13870464594E+03  0.86873862953E+02 0.  0.
         -6    2    1    2    0  502 -0.12105946014E+03  0.15616292459E+02  0.38895464621E+03  0.44287899368E+03  0.17308039967E+03 0.  0.
        -24    2    5    5    0    0 -0.11878500371E+03  0.68219038949E+02  0.27567426328E+03  0.31787196488E+03  0.79262678744E+02 0.  0.
          5    1    3    3  501    0  0.34371242749E+02  0.41529836713E+02 -0.77817620681E+02  0.94782813600E+02  0.47000000000E+01 0. -1.
        -11    1    4    4    0    0  0.45361124597E+02  0.18563646677E+02 -0.82346133690E+01  0.49699592152E+02  0.00000000000E+00 0.  1.
         12    1    4    4    0    0  0.41327092795E+02 -0.75709775849E+02 -0.21954517578E+02  0.89005053790E+02  0.00000000000E+00 0. -1.
         -5    1    5    5    0  502 -0.22744564287E+01 -0.52602746490E+02  0.11328038294E+03  0.12500702880E+03  0.47000000000E+01 0.  1.
         11    1    6    6    0    0 -0.73545159617E+02 -0.33034407382E+01  0.12632645416E+03  0.14621277729E+03  0.00000000000E+00 0. -1.
        -12    1    6    6    0    0 -0.45239844096E+02  0.71522479687E+02  0.14934780912E+03  0.17165918759E+03  0.00000000000E+00 0.  1.
</event>
<event>
12    1  0.8133495E-002  0.2155408E+03  0.7818608E-02  0.1137295E+00
         21   -1    0    0  501  502  0.00000000000E+00  0.00000000000E+00  0.41407941344E+03  0.41407941344E+03  0.00000000000E+00 0. -1.
         21   -1    0    0  502  503 -0.00000000000E+00 -0.00000000000E+00 -0.19707026172E+03  0.19707026172E+03  0.00000000000E+00 0. -1.
         -6    2    1    2    0  503  0.56722377069E+02  0.11766056346E+03 -0.92138943728E+02  0.23440863714E+03  0.17145374875E+03 0.  0.
        -24    2    3    3    0    0 -0.20426506442E+02  0.11559570518E+02 -0.27133127283E+02  0.87925815272E+02  0.80273760091E+02 0.  0.
          6    2    1    2  501    0 -0.56722377069E+02 -0.11766056346E+03  0.30914809545E+03  0.37674103802E+03  0.17117192690E+03 0.  0.
         24    2    5    5    0    0 -0.28235762520E+00 -0.11349478338E+03  0.28246637844E+03  0.31399684673E+03  0.76978043808E+02 0.  0.
          5    1    5    5  501    0 -0.56440019443E+02 -0.41657800821E+01  0.26681717011E+02  0.62744191294E+02  0.47000000000E+01 0. -1.
        -11    1    6    6    0    0 -0.69244021192E+01  0.97172879032E+01  0.42795980306E+02  0.44428245061E+02  0.00000000000E+00 0.  1.
         12    1    6    6    0    0  0.66420444940E+01 -0.12321207128E+03  0.23967039813E+03  0.26956860167E+03  0.00000000000E+00 0. -1.
         -5    1    3    3    0  503  0.77148883510E+02  0.10610099294E+03 -0.65005816445E+02  0.14648282187E+03  0.47000000000E+01 0.  1.
         11    1    4    4    0    0 -0.29179806567E+02  0.13601591335E+02 -0.52181416746E+02  0.61313657954E+02  0.00000000000E+00 0. -1.
        -12    1    4    4    0    0  0.87533001248E+01 -0.20420208170E+01  0.25048289463E+02  0.26612157318E+02  0.00000000000E+00 0.  1.
</event>
<event>
12    1  0.8133495E-002  0.2155548E+03  0.7818608E-02  0.1137446E+00
         21   -1    0    0  501  502  0.00000000000E+00  0.00000000000E+00  0.38331693945E+02  0.38331693945E+02  0.00000000000E+00 0. -1.
         21   -1    0    0  502  503 -0.00000000000E+00 -0.00000000000E+00 -0.12730239903E+04  0.12730239903E+04  0.00000000000E+00 0. -1.
         -6    2    1    2    0  503 -0.12688525580E+03 -0.14235785372E+02 -0.76617321746E+03  0.79562900138E+03  0.17234147195E+03 0.  0.
        -24    2    3    3    0    0 -0.43235250888E+01 -0.38696097117E+02 -0.30099743228E+03  0.31393378051E+03  0.80242653906E+02 0.  0.
          6    2    1    2  501    0  0.12688525580E+03  0.14235785372E+02 -0.46851907888E+03  0.51572668285E+03  0.17367025770E+03 0.  0.
         24    2    5    5    0    0  0.14371212934E+03 -0.25522624970E+02 -0.41083921902E+03  0.44352605198E+03  0.81375146027E+02 0.  0.
          5    1    5    5  501    0 -0.16826873536E+02  0.39758410342E+02 -0.57679859857E+02  0.72200630877E+02  0.47000000000E+01 0. -1.
        -13    1    6    6    0    0 -0.87471939779E+01 -0.25534355170E+01 -0.77704858699E+01  0.11975553686E+02  0.00000000000E+00 0.  1.
         14    1    6    6    0    0  0.15245932331E+03 -0.22969189453E+02 -0.40306873315E+03  0.43155049829E+03  0.00000000000E+00 0. -1.
         -5    1    3    3    0  503 -0.12256173071E+03  0.24460311746E+02 -0.46517578518E+03  0.48169522086E+03  0.47000000000E+01 0.  1.
         13    1    4    4    0    0 -0.40428267162E+02 -0.31030687829E+02 -0.20040258085E+03  0.20678138887E+03  0.00000000000E+00 0. -1.
        -14    1    4    4    0    0  0.36104742073E+02 -0.76654092883E+01 -0.10059485143E+03  0.10715239164E+03  0.00000000000E+00 0.  1.
</event>
<event>
12    1  0.8133495E-002  0.1942701E+03  0.7818608E-02  0.1154709E+00
         21   -1    0    0  503  502  0.00000000000E+00  0.00000000000E+00  0.54329484868E+02  0.54329484868E+02  0.00000000000E+00 0. -1.
         21   -1    0    0  501  503 -0.00000000000E+00 -0.00000000000E+00 -0.21863935857E+04  0.21863935857E+04  0.00000000000E+00 0. -1.
          6    2    1    2  501    0  0.57026307017E+02  0.66873254221E+02 -0.19914984913E+04  0.20009324288E+04  0.17303269046E+03 0.  0.
         24    2    3    3    0    0 -0.45820216517E+01 -0.20979221826E+02 -0.10630063247E+04  0.10662488261E+04  0.80268238773E+02 0.  0.
         -6    2    1    2    0  502 -0.57026307017E+02 -0.66873254221E+02 -0.14056560952E+03  0.23979064175E+03  0.17325365644E+03 0.  0.
        -24    2    5    5    0    0  0.23028759744E+02 -0.77451196947E+02 -0.85224638529E+02  0.14178339887E+03  0.79437280290E+02 0.  0.
          5    1    3    3  501    0  0.61608328669E+02  0.87852476047E+02 -0.92849216654E+03  0.93468360264E+03  0.47000000000E+01 0. -1.
        -11    1    4    4    0    0  0.32556327305E+02 -0.96947411397E+01 -0.76108838528E+03  0.76184606887E+03  0.00000000000E+00 0.  1.
         12    1    4    4    0    0 -0.37138348957E+02 -0.11284480686E+02 -0.30191793945E+03  0.30440275726E+03  0.00000000000E+00 0. -1.
         -5    1    5    5    0  502 -0.80055066761E+02  0.10577942726E+02 -0.55340970992E+02  0.98007242880E+02  0.47000000000E+01 0.  1.
         13    1    6    6    0    0 -0.21034873785E+02 -0.59161518762E+02 -0.63699346449E+02  0.89443602093E+02  0.00000000000E+00 0. -1.
        -14    1    6    6    0    0  0.44063633529E+02 -0.18289678185E+02 -0.21525292080E+02  0.52339796781E+02  0.00000000000E+00 0.  1.
</event>
<event>
12    1  0.8133495E-002  0.2001036E+03  0.7818608E-02  0.1149765E+00
         21   -1    0    0  503  502  0.00000000000E+00  0.00000000000E+00  0.13051087488E+03  0.13051087488E+03  0.00000000000E+00 0.  1.
         21   -1    0    0  501  503 -0.00000000000E+00 -0.00000000000E+00 -0.35131484160E+03  0.35131484160E+03  0.00000000000E+00 0.  1.
          6    2    1    2  501    0  0.72404986192E+02 -0.71629760273E+02 -0.19707311551E+03  0.28085449120E+03  0.17224438392E+03 0.  0.
         24    2    3    3    0    0  0.90958973089E+02 -0.10578337766E+03 -0.15242206502E+03  0.22146992823E+03  0.79704362674E+02 0.  0.
         -6    2    1    2    0  502 -0.72404986192E+02  0.71629760273E+02 -0.23730851211E+02  0.20097122527E+03  0.17161869218E+03 0.  0.
        -24    2    5    5    0    0 -0.57450060345E+02  0.95624110284E+02 -0.57401308411E+02  0.15675393988E+03  0.93980889330E+02 0.  0.
          5    1    3    3  501    0 -0.18553986897E+02  0.34153617388E+02 -0.44651050489E+02  0.59384562979E+02  0.47000000000E+01 0. -1.
        -13    1    4    4    0    0  0.57011971944E+02 -0.40687493474E+02 -0.12464274175E+03  0.14297429888E+03  0.00000000000E+00 0.  1.
         14    1    4    4    0    0  0.33947001145E+02 -0.65095884187E+02 -0.27779323268E+02  0.78495629344E+02  0.00000000000E+00 0. -1.
         -5    1    5    5    0  502 -0.14954925847E+02 -0.23994350011E+02  0.33670457200E+02  0.44217285393E+02  0.47000000000E+01 0.  1.
         11    1    6    6    0    0 -0.19426899881E+02  0.36133503530E+02 -0.73649467382E+02  0.84304676988E+02  0.00000000000E+00 0. -1.
        -12    1    6    6    0    0 -0.38023160464E+02  0.59490606754E+02  0.16248158971E+02  0.72449262892E+02  0.00000000000E+00 0.  1.
</event>
<event>
12    1  0.8133495E-002  0.2356117E+03  0.7818608E-02  0.1123607E+00
         21   -1    0    0  501  502  0.00000000000E+00  0.00000000000E+00  0.43414975953E+03  0.43414975953E+03  0.00000000000E+00 0. -1.
         21   -1    0    0  502  503 -0.00000000000E+00 -0.00000000000E+00 -0.10263796490E+04  0.10263796490E+04  0.00000000000E+00 0.  1.
         -6    2    1    2    0  503 -0.34047277041E+01  0.15283862088E+03 -0.98077605556E+03  0.10086796117E+04  0.17928092984E+03 0.  0.
        -24    2    3    3    0    0 -0.99963408643E+01  0.21364194814E+02 -0.60821120115E+03  0.61351428583E+03  0.76958157843E+02 0.  0.
          6    2    1    2  501    0  0.34047277041E+01 -0.15283862088E+03  0.38854616606E+03  0.45184979681E+03  0.17271039203E+03 0.  0.
         24    2    5    5    0    0 -0.29087119560E+02 -0.11230353966E+03  0.14454869948E+03  0.20233894204E+03  0.81170040051E+02 0.  0.
          5    1    5    5  501    0  0.32491847264E+02 -0.40535081222E+02  0.24399746658E+03  0.24951085477E+03  0.47000000000E+01 0. -1.
        -13    1    6    6    0    0  0.11848798002E+02  0.40337904513E+01  0.35751997218E+02  0.37879688285E+02  0.00000000000E+00 0.  1.
         14    1    6    6    0    0 -0.40935917563E+02 -0.11633733011E+03  0.10879670226E+03  0.16445925376E+03  0.00000000000E+00 0. -1.
         -5    1    3    3    0  503  0.65916131602E+01  0.13147442607E+03 -0.37256485440E+03  0.39516532592E+03  0.47000000000E+01 0.  1.
         13    1    4    4    0    0 -0.37325164216E+02 -0.22644573351E+01 -0.18362155679E+03  0.18739042604E+03  0.00000000000E+00 0. -1.
        -14    1    4    4    0    0  0.27328823351E+02  0.23628652149E+02 -0.42458964436E+03  0.42612385979E+03  0.00000000000E+00 0.  1.
</event>
<event>
12    1  0.8133495E-002  0.2139019E+03  0.7818608E-02  0.1138517E+00
         21   -1    0    0  501  502  0.00000000000E+00  0.00000000000E+00  0.33358500545E+03  0.33358500545E+03  0.00000000000E+00 0.  1.
         21   -1    0    0  502  503 -0.00000000000E+00 -0.00000000000E+00 -0.17598515137E+03  0.17598515137E+03  0.00000000000E+00 0. -1.
         -6    2    1    2    0  503 -0.12663370106E+03 -0.90142803522E-01 -0.40897996594E+02  0.21775613524E+03  0.17236294829E+03 0.  0.
        -24    2    3    3    0    0 -0.10498192714E+02  0.29961323196E+02 -0.45463736393E+02  0.97616704223E+02  0.80337890678E+02 0.  0.
          6    2    1    2  501    0  0.12663370106E+03  0.90142803522E-01  0.19849785067E+03  0.29181402158E+03  0.17238887464E+03 0.  0.
         24    2    5    5    0    0  0.15256598743E+03 -0.67622663178E+01  0.12760923180E+03  0.21587506403E+03  0.83641009477E+02 0.  0.
          5    1    5    5  501    0 -0.25932286371E+02  0.68524091213E+01  0.70888618871E+02  0.75938957542E+02  0.47000000000E+01 0. -1.
        -13    1    6    6    0    0  0.11057839854E+03 -0.39831193037E+02  0.10584071970E+03  0.15816562240E+03  0.00000000000E+00 0.  1.
         14    1    6    6    0    0  0.41987588882E+02  0.33068926719E+02  0.21768512100E+02  0.57709441633E+02  0.00000000000E+00 0. -1.
         -5    1    3    3    0  503 -0.11613550834E+03 -0.30051466000E+02  0.45657397993E+01  0.12013943102E+03  0.47000000000E+01 0.  1.
         11    1    4    4    0    0  0.22738888074E+02 -0.12673966413E+02  0.14024193083E+01  0.26070159865E+02  0.00000000000E+00 0. -1.
        -12    1    4    4    0    0 -0.33237080787E+02  0.42635289609E+02 -0.46866155701E+02  0.71546544358E+02  0.00000000000E+00 0.  1.
</event>
<event>
12    1  0.8133495E-002  0.1852073E+03  0.7818608E-02  0.1163526E+00
         21   -1    0    0  501  502  0.00000000000E+00  0.00000000000E+00  0.96019537275E+02  0.96019537275E+02  0.00000000000E+00 0. -1.
         21   -1    0    0  502  503 -0.00000000000E+00 -0.00000000000E+00 -0.69256700112E+03  0.69256700112E+03  0.00000000000E+00 0.  1.
         -6    2    1    2    0  503  0.56746889342E+02 -0.31935899571E+02 -0.57368723741E+03  0.60197378109E+03  0.17033870854E+03 0.  0.
        -24    2    3    3    0    0  0.60807590126E+02 -0.71300836408E+02 -0.29542199825E+03  0.32086931498E+03  0.83075796460E+02 0.  0.
          6    2    1    2  501    0 -0.56746889342E+02  0.31935899571E+02 -0.22860226430E+02  0.18661275730E+03  0.17338287142E+03 0.  0.
         24    2    5    5    0    0 -0.67822692623E+02  0.63598784987E+02 -0.41184371553E+02  0.14810203118E+03  0.10767235529E+03 0.  0.
          5    1    5    5  501    0  0.11075803281E+02 -0.31662885416E+02  0.18324145123E+02  0.38510726112E+02  0.47000000000E+01 0. -1.
        -13    1    6    6    0    0  0.24553932243E+02  0.37329979115E+02 -0.23372819684E+02  0.50425307429E+02  0.00000000000E+00 0.  1.
         14    1    6    6    0    0 -0.92376624866E+02  0.26268805872E+02 -0.17811551869E+02  0.97676723755E+02  0.00000000000E+00 0. -1.
         -5    1    3    3    0  503 -0.40607007841E+01  0.39364936837E+02 -0.27826523916E+03  0.28110446611E+03  0.47000000000E+01 0.  1.
         11    1    4    4    0    0  0.14660750825E+02  0.18797628658E+02 -0.50094785558E+02  0.55477707217E+02  0.00000000000E+00 0. -1.
        -12    1    4    4    0    0  0.46146839301E+02 -0.90098465066E+02 -0.24532721269E+03  0.26539160776E+03  0.00000000000E+00 0.  1.
</event>
<event>
12    1  0.8133495E-002  0.1911919E+03  0.7818608E-02  0.1157500E+00
         21   -1    0    0  503  502  0.00000000000E+00  0.00000000000E+00  0.60208165033E+03  0.60208165033E+03  0.00000000000E+00 0. -1.
         21   -1    0    0  501  503 -0.00000000000E+00 -0.00000000000E+00 -0.64944023334E+02  0.64944023334E+02  0.00000000000E+00 0.  1.
          6    2    1    2  501    0 -0.71168993162E+02 -0.42565371659E+02  0.18157629991E+03  0.26332007477E+03  0.17172848522E+03 0.  0.
         24    2    3    3    0    0 -0.12979566716E+02 -0.84784575922E+02  0.12568771511E+03  0.17213841834E+03  0.80481922637E+02 0.  0.
         -6    2    1    2    0  502  0.71168993162E+02  0.42565371659E+02  0.35556132708E+03  0.40370559889E+03  0.17227163669E+03 0.  0.
        -24    2    5    5    0    0  0.98460685820E+02  0.75684544555E+02  0.28934716224E+03  0.32466053752E+03  0.79120334879E+02 0.  0.
          5    1    3    3  501    0 -0.58189426446E+02  0.42219204262E+02  0.55888584800E+02  0.91181656432E+02  0.47000000000E+01 0. -1.
        -13    1    4    4    0    0 -0.33151285849E+02 -0.61563201632E+02  0.12271300280E+03  0.14123567752E+03  0.00000000000E+00 0.  1.
         14    1    4    4    0    0  0.20171719133E+02 -0.23221374289E+02  0.29747123131E+01  0.30902740817E+02  0.00000000000E+00 0. -1.
         -5    1    5    5    0  502 -0.27291692658E+02 -0.33119172895E+02  0.66214164835E+02  0.79045061365E+02  0.47000000000E+01 0.  1.
         11    1    6    6    0    0  0.59263262071E+02 -0.15930951873E+01  0.13929964345E+03  0.15139043182E+03  0.00000000000E+00 0. -1.
        -12    1    6    6    0    0  0.39197423749E+02  0.77277639742E+02  0.15004751879E+03  0.17327010570E+03  0.00000000000E+00 0.  1.
</event>
<event>
12    1  0.8133495E-002  0.1910413E+03  0.7818608E-02  0.1157816E+00
         21   -1    0    0  501  502  0.00000000000E+00  0.00000000000E+00  0.70103588666E+02  0.70103588666E+02  0.00000000000E+00 0. -1.
         21   -1    0    0  502  503 -0.00000000000E+00 -0.00000000000E+00 -0.74640400383E+03  0.74640400383E+03  0.00000000000E+00 0.  1.
         -6    2    1    2    0  503  0.33445883858E+02  0.73262001662E+02 -0.56523274315E+03  0.59664464564E+03  0.17323634495E+03 0.  0.
        -24    2    3    3    0    0 -0.42322900571E+02  0.56105504883E+02 -0.25468933214E+03  0.27649693880E+03  0.81515922793E+02 0.  0.
          6    2    1    2  501    0 -0.33445883858E+02 -0.73262001662E+02 -0.11106767202E+03  0.21986294686E+03  0.17180727458E+03 0.  0.
         24    2    5    5    0    0 -0.16703445948E+00  0.26134596162E+02 -0.54615997159E+02  0.10071578126E+03  0.80484262010E+02 0.  0.
          5    1    5    5  501    0 -0.33278849398E+02 -0.99396597825E+02 -0.56451674862E+02  0.11914716560E+03  0.47000000000E+01 0. -1.
        -11    1    6    6    0    0 -0.23040659127E+02  0.36464629436E+02 -0.28999882915E+01  0.43231367142E+02  0.00000000000E+00 0.  1.
         12    1    6    6    0    0  0.22873624667E+02 -0.10330033274E+02 -0.51716008867E+02  0.57484414114E+02  0.00000000000E+00 0. -1.
         -5    1    3    3    0  503  0.75768784428E+02  0.17156496780E+02 -0.31054341100E+03  0.32014770684E+03  0.47000000000E+01 0.  1.
         13    1    4    4    0    0  0.67659849805E+01 -0.13687253086E+02 -0.87183666460E+02  0.88510514332E+02  0.00000000000E+00 0. -1.
        -14    1    4    4    0    0 -0.49088885551E+02  0.69792757968E+02 -0.16750566568E+03  0.18798642447E+03  0.00000000000E+00 0.  1.
</event>
<event>
12    1  0.8133495E-002  0.1894580E+03  0.7818608E-02  0.1158986E+00
         21   -1    0    0  501  502  0.00000000000E+00  0.00000000000E+00  0.11463791455E+04  0.11463791455E+04  0.00000000000E+00 0.  1.
         21   -1    0    0  502  503 -0.00000000000E+00 -0.00000000000E+00 -0.31371127881E+02  0.31371127881E+02  0.00000000000E+00 0.  1.
         -6    2    1    2    0  503 -0.43313857182E+02  0.62826271101E+02  0.58799976091E+03  0.61772168335E+03  0.17324297590E+03 0.  0.
        -24    2    3    3    0    0  0.40378708442E+01 -0.18613517469E+02  0.18400012952E+03  0.20285734713E+03  0.83260363853E+02 0.  0.
          6    2    1    2  501    0  0.43313857182E+02 -0.62826271101E+02  0.52700825673E+03  0.56002859004E+03  0.17341017398E+03 0.  0.
         24    2    5    5    0    0 -0.31834008957E+02 -0.61472768344E+01  0.32729926144E+03  0.33919950913E+03  0.82947617911E+02 0.  0.
          5    1    5    5  501    0  0.75147866139E+02 -0.56678994266E+02  0.19970899529E+03  0.22082908091E+03  0.47000000000E+01 0. -1.
        -13    1    6    6    0    0 -0.45882614267E+02 -0.26392846726E+02  0.12993624981E+03  0.14030404722E+03  0.00000000000E+00 0.  1.
         14    1    6    6    0    0  0.14048605310E+02  0.20245569891E+02  0.19736301163E+03  0.19889546191E+03  0.00000000000E+00 0. -1.
         -5    1    3    3    0  503 -0.47351728026E+02  0.81439788570E+02  0.40399963138E+03  0.41486433622E+03  0.47000000000E+01 0.  1.
         13    1    4    4    0    0  0.40433077972E+02 -0.10044073101E+01  0.12462288958E+03  0.13102178153E+03  0.00000000000E+00 0. -1.
        -14    1    4    4    0    0 -0.36395207128E+02 -0.17609110159E+02  0.59377239943E+02  0.71835565604E+02  0.00000000000E+00 0.  1.
</event>
<event>
12    1  0.8133495E-002  0.1742125E+03  0.7818608E-02  0.1174325E+00
         21   -1    0    0  501  502  0.00000000000E+00  0.00000000000E+00  0.90546156837E+02  0.90546156837E+02  0.00000000000E+00 0. -1.
         21   -1    0    0  502  503 -0.00000000000E+00 -0.00000000000E+00 -0.34722140010E+03  0.34722140010E+03  0.00000000000E+00 0. -1.
         -6    2    1    2    0  503 -0.18630850585E+02  0.91429118756E+01 -0.17933993152E+03  0.25002562727E+03  0.17297196831E+03 0.  0.
        -24    2    3    3    0    0  0.37290036904E+02  0.28994649429E+02 -0.16499090941E+03  0.18879473983E+03  0.78677932422E+02 0.  0.
          6    2    1    2  501    0  0.18630850585E+02 -0.91429118756E+01 -0.77335311743E+02  0.18774192967E+03  0.16981042454E+03 0.  0.
         24    2    5    5    0    0  0.29460300925E+02  0.49693506054E+02 -0.81649571367E+02  0.12757795452E+03  0.79196768249E+02 0.  0.
          5    1    5    5  501    0 -0.10829450340E+02 -0.58836417930E+02  0.43142596240E+01  0.60163975148E+02  0.47000000000E+01 0. -1.
        -13    1    6    6    0    0 -0.35180602583E+01  0.57710919464E+02 -0.28360687096E+02  0.64399189016E+02  0.00000000000E+00 0.  1.
         14    1    6    6    0    0  0.32978361183E+02 -0.80174134092E+01 -0.53288884271E+02  0.63178765507E+02  0.00000000000E+00 0. -1.
         -5    1    3    3    0  503 -0.55920887489E+02 -0.19851737553E+02 -0.14349022111E+02  0.61230887442E+02  0.47000000000E+01 0.  1.
         13    1    4    4    0    0 -0.14744481671E+02  0.36020230067E+02 -0.78364604128E+02  0.87497816510E+02  0.00000000000E+00 0. -1.
        -14    1    4    4    0    0  0.52034518574E+02 -0.70255806380E+01 -0.86626305282E+02  0.10129692332E+03  0.00000000000E+00 0.  1.
</event>
<event>
12    1  0.8133495E-002  0.1960056E+03  0.7818608E-02  0.1153350E+00
         21   -1    0    0  501  502  0.00000000000E+00  0.00000000000E+00  0.54847124765E+03  0.54847124765E+03  0.00000000000E+00 0.  1.
         21   -1    0    0  502  503 -0.00000000000E+00 -0.00000000000E+00 -0.97088891515E+02  0.97088891515E+02  0.00000000000E+00 0.  1.
         -6    2    1    2    0  503  0.32800412061E+02  0.85039429642E+02  0.39743287319E+03  0.44313776521E+03  0.17352411544E+03 0.  0.
        -24    2    3    3    0    0 -0.35056569884E+02  0.75295501494E+02  0.31627235716E+03  0.33679570629E+03  0.80652143382E+02 0.  0.
          6    2    1    2  501    0 -0.32800412061E+02 -0.85039429642E+02  0.53949482944E+02  0.20242237395E+03  0.17250130185E+03 0.  0.
         24    2    5    5    0    0 -0.41137623790E+01 -0.71226686941E+02 -0.30507819249E+02  0.11204072966E+03  0.80822237620E+02 0.  0.
          5    1    5    5  501    0 -0.28686649682E+02 -0.13812742701E+02  0.84457302193E+02  0.90381644290E+02  0.47000000000E+01 0. -1.
        -11    1    6    6    0    0 -0.92004860350E+01 -0.78990469059E+02  0.65275071968E+00  0.79527160322E+02  0.00000000000E+00 0.  1.
         12    1    6    6    0    0  0.50867236561E+01  0.77637821176E+01 -0.31160569969E+02  0.32513569338E+02  0.00000000000E+00 0. -1.
         -5    1    3    3    0  503  0.67856981945E+02  0.97439281481E+01  0.81160516030E+02  0.10634205893E+03  0.47000000000E+01 0.  1.
         11    1    4    4    0    0 -0.12979740240E+02  0.73447146645E+02  0.30045597454E+03  0.30957511147E+03  0.00000000000E+00 0. -1.
        -12    1    4    4    0    0 -0.22076829644E+02  0.18483548492E+01  0.15816382618E+02  0.27220594811E+02  0.00000000000E+00 0.  1.
</event>
<event>
12    1  0.8133495E-002  0.2240911E+03  0.7818608E-02  0.1130879E+00
         21   -1    0    0  501  502  0.00000000000E+00  0.00000000000E+00  0.26779226527E+03  0.26779226527E+03  0.00000000000E+00 0.  1.
         21   -1    0    0  502  503 -0.00000000000E+00 -0.00000000000E+00 -0.21612888628E+03  0.21612888628E+03  0.00000000000E+00 0. -1.
         -6    2    1    2    0  503  0.12371714503E+03  0.71569921823E+02 -0.62266502693E+02  0.23253135279E+03  0.17252688773E+03 0.  0.
        -24    2    3    3    0    0  0.11107938276E+02  0.71992551941E+02 -0.10198417717E+02  0.10837746628E+03  0.79594934800E+02 0.  0.
          6    2    1    2  501    0 -0.12371714503E+03 -0.71569921823E+02  0.11392988169E+03  0.25138979876E+03  0.17259382171E+03 0.  0.
         24    2    5    5    0    0 -0.82269990187E+02  0.44606128214E+00  0.21861615984E+02  0.12728168453E+03  0.94626353133E+02 0.  0.
          5    1    5    5  501    0 -0.41447154843E+02 -0.72015983105E+02  0.92068265704E+02  0.12410811423E+03  0.47000000000E+01 0. -1.
        -13    1    6    6    0    0 -0.25778730491E+02 -0.35538596028E+02  0.38359670154E+02  0.58300935221E+02  0.00000000000E+00 0.  1.
         14    1    6    6    0    0 -0.56491259696E+02  0.35984657311E+02 -0.16498054170E+02  0.68980749309E+02  0.00000000000E+00 0. -1.
         -5    1    3    3    0  503  0.11260920675E+03 -0.42263011855E+00 -0.52068084976E+02  0.12415388651E+03  0.47000000000E+01 0.  1.
         13    1    4    4    0    0  0.14550553133E+02  0.86038108216E+02 -0.21679714674E+02  0.89912650335E+02  0.00000000000E+00 0. -1.
        -14    1    4    4    0    0 -0.34426148570E+01 -0.14045556275E+02  0.11481296957E+02  0.18464815946E+02  0.00000000000E+00 0.  1.
</event>
<event>
12    1  0.8133495E-002  0.1826306E+03  0.7818608E-02  0.1168433E+00
         21   -1    0    0  501  502  0.00000000000E+00  0.00000000000E+00  0.35379863186E+02  0.35379863186E+02  0.00000000000E+00 0. -1.
         21   -1    0    0  502  503 -0.00000000000E+00 -0.00000000000E+00 -0.93405844569E+03  0.93405844569E+03  0.00000000000E+00 0. -1.
         -6    2    1    2    0  503 -0.48689852642E+02 -0.29102908815E+02 -0.34594054207E+03  0.39118895212E+03  0.17359797396E+03 0.  0.
        -24    2    3    3    0    0 -0.45579268139E+02  0.26523290226E+02 -0.12642599882E+03  0.16466594125E+03  0.91380437856E+02 0.  0.
          6    2    1    2  501    0  0.48689852642E+02  0.29102908815E+02 -0.55273804044E+03  0.57824935676E+03  0.16011026260E+03 0.  0.
         24    2    5    5    0    0  0.11118710788E+02 -0.36513429357E+02 -0.21925151336E+03  0.23626624566E+03  0.79332568802E+02 0.  0.
          5    1    5    5  501    0  0.37571141853E+02  0.65616338172E+02 -0.33348652708E+03  0.34198311110E+03  0.47000000000E+01 0. -1.
        -13    1    6    6    0    0 -0.29809830184E+02  0.43103238038E+01 -0.80782530063E+02  0.86214975673E+02  0.00000000000E+00 0.  1.
         14    1    6    6    0    0  0.40928540972E+02 -0.40823753161E+02 -0.13846898330E+03  0.15005126998E+03  0.00000000000E+00 0. -1.
         -5    1    3    3    0  503 -0.31105845029E+01 -0.55626199041E+02 -0.21951454325E+03  0.22652301087E+03  0.47000000000E+01 0.  1.
         13    1    4    4    0    0 -0.62716697529E+02  0.11551306448E+02 -0.12677055255E+03  0.14190697595E+03  0.00000000000E+00 0. -1.
        -14    1    4    4    0    0  0.17137429390E+02  0.14971983778E+02  0.34455373158E+00  0.22758965302E+02  0.00000000000E+00 0.  1.
</event>
<event>
12    1  0.8133495E-002  0.1903094E+03  0.7818608E-02  0.1158702E+00
         21   -1    0    0  503  502  0.00000000000E+00  0.00000000000E+00  0.25843550786E+03  0.25843550786E+03  0.00000000000E+00 0.  1.
         21   -1    0    0  501  503 -0.00000000000E+00 -0.00000000000E+00 -0.20528241542E+03  0.20528241542E+03  0.00000000000E+00 0.  1.
          6    2    1    2  501    0 -0.70012489403E+02  0.23566039775E+02 -0.10559974023E+03  0.21764416146E+03  0.17538691221E+03 0.  0.
         24    2    3    3    0    0 -0.29100037390E+02  0.43882324179E+02 -0.13286632631E+03  0.16423876044E+03  0.80922427130E+02 0.  0.
         -6    2    1    2    0  502  0.70012489403E+02 -0.23566039775E+02  0.15875283267E+03  0.24607376183E+03  0.17289513433E+03 0.  0.
        -24    2    5    5    0    0  0.73038495133E+02  0.45885696760E+02  0.73155989296E+02  0.13570343060E+03  0.74990021792E+02 0.  0.
          5    1    3    3  501    0 -0.40912452013E+02 -0.20316284404E+02  0.27266586075E+02  0.53405401018E+02  0.47000000000E+01 0. -1.
        -11    1    4    4    0    0 -0.25473675848E+02  0.67057193039E+02 -0.87311435971E+02  0.11299939005E+03  0.00000000000E+00 0.  1.
         12    1    4    4    0    0 -0.36263615419E+01 -0.23174868860E+02 -0.45554890338E+02  0.51239370394E+02  0.00000000000E+00 0. -1.
         -5    1    5    5    0  502 -0.30260057301E+01 -0.69451736535E+02  0.85596843378E+02  0.11037033122E+03  0.47000000000E+01 0.  1.
         13    1    6    6    0    0  0.24621419999E+02  0.34847937571E+02 -0.51506538244E+01  0.42978160856E+02  0.00000000000E+00 0. -1.
        -14    1    6    6    0    0  0.48417075134E+02  0.11037759189E+02  0.78306643120E+02  0.92725269745E+02  0.00000000000E+00 0.  1.
</event>
<event>
12    1  0.8133495E-002  0.2648837E+03  0.7818608E-02  0.1104371E+00
         21   -1    0    0  503  502  0.00000000000E+00  0.00000000000E+00  0.47637024500E+03  0.47637024500E+03  0.00000000000E+00 0.  1.
         21   -1    0    0  501  503 -0.00000000000E+00 -0.00000000000E+00 -0.24777514734E+03  0.24777514734E+03  0.00000000000E+00 0.  1.
          6    2    1    2  501    0 -0.10152516203E+03 -0.17321325429E+03 -0.11672314193E+03  0.28946096221E+03  0.17278068988E+03 0.  0.
         24    2    3    3    0    0 -0.13897825006E+03 -0.13500223029E+03 -0.10615046203E+03  0.23471895168E+03  0.79274898368E+02 0.  0.
         -6    2    1    2    0  502  0.10152516203E+03  0.17321325429E+03  0.34531823959E+03  0.43468443013E+03  0.17145167605E+03 0.  0.
        -24    2    5    5    0    0  0.62419655255E+02  0.15183854402E+03  0.15779223301E+03  0.24187827867E+03  0.81581591559E+02 0.  0.
          5    1    3    3  501    0  0.37453088028E+02 -0.38211023993E+02 -0.10572679892E+02  0.54742010536E+02  0.47000000000E+01 0. -1.
        -11    1    4    4    0    0 -0.81250003483E+02 -0.10189236480E+03 -0.10628901757E+03  0.16816947502E+03  0.00000000000E+00 0.  1.
         12    1    4    4    0    0 -0.57728246576E+02 -0.33109865495E+02  0.13855554028E+00  0.66549476658E+02  0.00000000000E+00 0. -1.
         -5    1    5    5    0  502  0.39105506776E+02  0.21374710270E+02  0.18752600658E+03  0.19280615147E+03  0.47000000000E+01 0.  1.
         13    1    6    6    0    0 -0.16705981669E+02  0.66993131113E+01  0.14566159823E+02  0.23154775570E+02  0.00000000000E+00 0. -1.
        -14    1    6    6    0    0  0.79125636924E+02  0.14513923091E+03  0.14322607319E+03  0.21872350310E+03  0.00000000000E+00 0.  1.
</event>
<event>
12    1  0.8133495E-002  0.1847091E+03  0.7818608E-02  0.1164989E+00
         21   -1    0    0  501  502  0.00000000000E+00  0.00000000000E+00  0.29868103874E+03  0.29868103874E+03  0.00000000000E+00 0. -1.
         21   -1    0    0  502  503 -0.00000000000E+00 -0.00000000000E+00 -0.44415151421E+03  0.44415151421E+03  0.00000000000E+00 0. -1.
         -6    2    1    2    0  503 -0.34092585590E+02 -0.32132610584E+02 -0.39524767746E+03  0.43627762197E+03  0.17866904555E+03 0.  0.
        -24    2    3    3    0    0  0.43637274069E+02 -0.39848833850E+02 -0.16136290081E+03  0.18964905523E+03  0.80228655374E+02 0.  0.
          6    2    1    2  501    0  0.34092585590E+02  0.32132610584E+02  0.24977720199E+03  0.30655493097E+03  0.17144231104E+03 0.  0.
         24    2    5    5    0    0  0.29414708181E+02  0.18379991036E+02  0.26866658676E+03  0.28226674581E+03  0.79307829519E+02 0.  0.
          5    1    5    5  501    0  0.46778774083E+01  0.13752619548E+02 -0.18889384767E+02  0.24288185160E+02  0.47000000000E+01 0. -1.
        -11    1    6    6    0    0  0.91410800348E+01  0.65355834280E+01 -0.12720075908E+01  0.11308899074E+02  0.00000000000E+00 0.  1.
         12    1    6    6    0    0  0.20273628146E+02  0.11844407608E+02  0.26993859435E+03  0.27095784674E+03  0.00000000000E+00 0. -1.
         -5    1    3    3    0  503 -0.77729859658E+02  0.77162232660E+01 -0.23388477665E+03  0.24662856674E+03  0.47000000000E+01 0.  1.
         11    1    4    4    0    0  0.33446679568E+02 -0.23429415104E+02 -0.16500583156E+03  0.16998394723E+03  0.00000000000E+00 0. -1.
        -12    1    4    4    0    0  0.10190594500E+02 -0.16419418746E+02  0.36429307482E+01  0.19665108000E+02  0.00000000000E+00 0.  1.
</event>
<event>
12    1  0.8133495E-002  0.1859725E+03  0.7818608E-02  0.1162288E+00
         21   -1    0    0  501  502  0.00000000000E+00  0.00000000000E+00  0.48776173725E+02  0.48776173725E+02  0.00000000000E+00 0.  1.
         21   -1    0    0  502  503 -0.00000000000E+00 -0.00000000000E+00 -0.86895658366E+03  0.86895658366E+03  0.00000000000E+00 0. -1.
         -6    2    1    2    0  503  0.50390786511E+02  0.49411973349E+02 -0.60891146949E+03  0.63667804817E+03  0.17206099172E+03 0.  0.
        -24    2    3    3    0    0 -0.33956252470E+02 -0.98288881325E+01 -0.24248594746E+03  0.25600278519E+03  0.74083447436E+02 0.  0.
          6    2    1    2  501    0 -0.50390786511E+02 -0.49411973349E+02 -0.21126894044E+03  0.28105470921E+03  0.17139547806E+03 0.  0.
         24    2    5    5    0    0 -0.35168664578E+02 -0.78997860725E+02 -0.70333419616E+02  0.13616872383E+03  0.78215308402E+02 0.  0.
          5    1    5    5  501    0 -0.15222121933E+02  0.29585887376E+02 -0.14093552083E+03  0.14488598538E+03  0.47000000000E+01 0. -1.
        -11    1    6    6    0    0 -0.58676798140E+02 -0.61685070498E+02 -0.63434354296E+02  0.10616935465E+03  0.00000000000E+00 0.  1.
         12    1    6    6    0    0  0.23508133562E+02 -0.17312790227E+02 -0.68990653197E+01  0.29999369182E+02  0.00000000000E+00 0. -1.
         -5    1    3    3    0  503  0.84347038980E+02  0.59240861481E+02 -0.36642552202E+03  0.38067526298E+03  0.47000000000E+01 0.  1.
         11    1    4    4    0    0  0.16407245973E+02 -0.21866724735E+02 -0.53894691301E+02  0.60431689712E+02  0.00000000000E+00 0. -1.
        -12    1    4    4    0    0 -0.50363498442E+02  0.12037836602E+02 -0.18859125616E+03  0.19557109548E+03  0.00000000000E+00 0.  1.
</event>
<event>
12    1  0.8133495E-002  0.1739035E+03  0.7818608E-02  0.1174655E+00
         21   -1    0    0  501  502  0.00000000000E+00  0.00000000000E+00  0.21564090908E+04  0.21564090908E+04  0.00000000000E+00 0. -1.
         21   -1    0    0  502  503 -0.00000000000E+00 -0.00000000000E+00 -0.18730351327E+02  0.18730351327E+02  0.00000000000E+00 0. -1.
         -6    2    1    2    0  503 -0.18114845968E+02 -0.84576275908E+01  0.51633946424E+03  0.54483837871E+03  0.17275050644E+03 0.  0.
        -24    2    3    3    0    0  0.45253193407E+02  0.20883418285E+02  0.20124781676E+03  0.22206718777E+03  0.79556165452E+02 0.  0.
          6    2    1    2  501    0  0.18114845968E+02  0.84576275908E+01  0.16213392753E+04  0.16303010635E+04  0.16953121500E+03 0.  0.
         24    2    5    5    0    0 -0.14892200593E+02 -0.53993249634E+02  0.10665979690E+04  0.10710608789E+04  0.80019560692E+02 0.  0.
          5    1    5    5  501    0  0.33007046561E+02  0.62450877225E+02  0.55474130623E+03  0.55924018456E+03  0.47000000000E+01 0. -1.
        -13    1    6    6    0    0 -0.17380587727E+02  0.15056632825E+02  0.13864033311E+03  0.14053444057E+03  0.00000000000E+00 0.  1.
         14    1    6    6    0    0  0.24883871344E+01 -0.69049882459E+02  0.92795763593E+03  0.93052643832E+03  0.00000000000E+00 0. -1.
         -5    1    3    3    0  503 -0.63368039376E+02 -0.29341045876E+02  0.31509164748E+03  0.32277119094E+03  0.47000000000E+01 0.  1.
         11    1    4    4    0    0  0.29922192507E+01  0.30056288228E+02  0.21208706142E+02  0.36907222251E+02  0.00000000000E+00 0. -1.
        -12    1    4    4    0    0  0.42260974157E+02 -0.91728699422E+01  0.18003911062E+03  0.18515996552E+03  0.00000000000E+00 0.  1.
</event>
<event>
12    1  0.8133495E-002  0.1760591E+03  0.7818608E-02  0.1174996E+00
         21   -1    0    0  503  502  0.00000000000E+00  0.00000000000E+00  0.12395164205E+03  0.12395164205E+03  0.00000000000E+00 0.  1.
         21   -1    0    0  501  503 -0.00000000000E+00 -0.00000000000E+00 -0.24617167881E+03  0.24617167881E+03  0.00000000000E+00 0.  1.
          6    2    1    2  501    0  0.36662446421E+02 -0.15066032024E+01 -0.10734305908E+03  0.20620218172E+03  0.17219292257E+03 0.  0.
         24    2    3    3    0    0  0.88475407632E+02  0.11438893219E+02 -0.89723497363E+02  0.14976896649E+03  0.80135456006E+02 0.  0.
         -6    2    1    2    0  502 -0.36662446421E+02  0.15066032024E+01 -0.14876977686E+02  0.16392113913E+03  0.15906731455E+03 0.  0.
        -24    2    5    5    0    0 -0.63979224144E+02 -0.42344635766E+02 -0.88586849907E+01  0.11169617048E+03  0.80691690396E+02 0.  0.
          5    1    3    3  501    0 -0.51812961211E+02 -0.12945496422E+02 -0.17619561714E+02  0.56433215238E+02  0.47000000000E+01 0. -1.
        -13    1    4    4    0    0  0.61960892753E+02 -0.24376511067E+02 -0.80134807137E+02  0.10418710975E+03  0.00000000000E+00 0.  1.
         14    1    4    4    0    0  0.26514514879E+02  0.35815404286E+02 -0.95886902255E+01  0.45581856738E+02  0.00000000000E+00 0. -1.
         -5    1    5    5    0  502  0.27316777723E+02  0.43851238968E+02 -0.60182926954E+01  0.52224968657E+02  0.47000000000E+01 0.  1.
         13    1    6    6    0    0  0.18928104812E+02 -0.76158001148E+01  0.42996796527E+01  0.20850918644E+02  0.00000000000E+00 0. -1.
        -14    1    6    6    0    0 -0.82907328956E+02 -0.34728835651E+02 -0.13158364643E+02  0.90845251832E+02  0.00000000000E+00 0.  1.
</event>
<event>
12    1  0.8133495E-002  0.2090012E+03  0.7818608E-02  0.1142511E+00
         21   -1    0    0  503  502  0.00000000000E+00  0.00000000000E+00  0.23794045539E+03  0.23794045539E+03  0.00000000000E+00 0.  1.
         21   -1    0    0  501  503 -0.00000000000E+00 -0.00000000000E+00 -0.20151407871E+03  0.20151407871E+03  0.00000000000E+00 0. -1.
          6    2    1    2  501    0 -0.95320435090E+02 -0.69571273913E+02 -0.48510792592E+02  0.21455716700E+03  0.17249734321E+03 0.  0.
         24    2    3    3    0    0  0.17257104696E+02 -0.97374268181E+01 -0.18941212178E+02  0.83598235240E+02  0.78976390605E+02 0.  0.
         -6    2    1    2    0  502  0.95320435090E+02  0.69571273913E+02  0.84937169269E+02  0.22489736710E+03  0.17157609246E+03 0.  0.
        -24    2    5    5    0    0 -0.38902143117E+01  0.16454006222E+02  0.43085481930E+00  0.84086840986E+02  0.82368337989E+02 0.  0.
          5    1    3    3  501    0 -0.11257753979E+03 -0.59833847095E+02 -0.29569580414E+02  0.13095893176E+03  0.47000000000E+01 0. -1.
        -11    1    4    4    0    0  0.68317735569E+01 -0.19402873615E+02 -0.47463455147E+02  0.51729336057E+02  0.00000000000E+00 0.  1.
         12    1    4    4    0    0  0.10425331139E+02  0.96654467965E+01  0.28522242969E+02  0.31868899183E+02  0.00000000000E+00 0. -1.
         -5    1    5    5    0  502  0.99210649402E+02  0.53117267691E+02  0.84506314449E+02  0.14081052611E+03  0.47000000000E+01 0.  1.
         11    1    6    6    0    0 -0.13041281652E+02  0.42647823362E+02  0.21247226169E+02  0.49399964418E+02  0.00000000000E+00 0. -1.
        -12    1    6    6    0    0  0.91510673404E+01 -0.26193817140E+02 -0.20816371350E+02  0.34686876568E+02  0.00000000000E+00 0.  1.
</event>
<event>
12    1  0.8133495E-002  0.1741684E+03  0.7818608E-02  0.1173997E+00
         21   -1    0    0  503  502  0.00000000000E+00  0.00000000000E+00  0.41607548994E+03  0.41607548994E+03  0.00000000000E+00 0. -1.
         21   -1    0    0  501  503 -0.00000000000E+00 -0.00000000000E+00 -0.77627945403E+02  0.77627945403E+02  0.00000000000E+00 0. -1.
          6    2    1    2  501    0  0.81478742762E+01  0.79541272358E+01  0.10473070958E+03  0.20323175268E+03  0.17379576454E+03 0.  0.
         24    2    3    3    0    0 -0.37726800744E+02  0.35603654491E+02  0.11735368489E+02  0.95811058072E+02  0.79693840839E+02 0.  0.
         -6    2    1    2    0  502 -0.81478742762E+01 -0.79541272358E+01  0.23371683496E+03  0.29047168267E+03  0.17210631450E+03 0.  0.
        -24    2    5    5    0    0  0.16520895930E+02 -0.36132329858E+02  0.23631197381E+03  0.25263804589E+03  0.80025920783E+02 0.  0.
          5    1    3    3  501    0  0.45874675020E+02 -0.27649527255E+02  0.92995341089E+02  0.10742069461E+03  0.47000000000E+01 0. -1.
        -11    1    4    4    0    0 -0.44430039171E+02  0.48882973431E+02  0.29751024328E+02  0.72447891072E+02  0.00000000000E+00 0.  1.
         12    1    4    4    0    0  0.67032384269E+01 -0.13279318941E+02 -0.18015655839E+02  0.23363166999E+02  0.00000000000E+00 0. -1.
         -5    1    5    5    0  502 -0.24668770206E+02  0.28178202622E+02 -0.25951388524E+01  0.37833636782E+02  0.47000000000E+01 0.  1.
         11    1    6    6    0    0  0.20702117000E+02  0.16654568266E+02  0.14211888402E+03  0.14458122107E+03  0.00000000000E+00 0. -1.
        -12    1    6    6    0    0 -0.41812210697E+01 -0.52786898123E+02  0.94193089800E+02  0.10805682482E+03  0.00000000000E+00 0.  1.
</event>
<event>
12    1  0.8133495E-002  0.2088781E+03  0.7818608E-02  0.1142627E+00
         21   -1    0    0  503  502  0.00000000000E+00  0.00000000000E+00  0.15414037965E+04  0.15414037965E+04  0.00000000000E+00 0. -1.
         21   -1    0    0  501  503 -0.00000000000E+00 -0.00000000000E+00 -0.10399125095E+03  0.10399125095E+03  0.00000000000E+00 0. -1.
          6    2    1    2  501    0 -0.88821275538E+02 -0.77477130202E+02  0.15920249522E+02  0.20863814703E+03  0.17141906941E+03 0.  0.
         24    2    3    3    0    0 -0.88550417309E+02  0.34852332000E+01 -0.18217252788E+02  0.12064702977E+03  0.79815501239E+02 0.  0.
         -6    2    1    2    0  502  0.88821275538E+02  0.77477130202E+02  0.14214922960E+04  0.14367569004E+04  0.17244743710E+03 0.  0.
        -24    2    5    5    0    0  0.86322886916E+02  0.34371147229E+02  0.13274920481E+04  0.13332073745E+04  0.81078659476E+02 0.  0.
          5    1    3    3  501    0 -0.27085822904E+00 -0.80962363402E+02  0.34137502310E+02  0.87991117255E+02  0.47000000000E+01 0. -1.
        -11    1    4    4    0    0 -0.69041860597E+02  0.10132140535E+00  0.24744496461E+02  0.73342203988E+02  0.00000000000E+00 0.  1.
         12    1    4    4    0    0 -0.19508556712E+02  0.33839117947E+01 -0.42961749250E+02  0.47304825786E+02  0.00000000000E+00 0. -1.
         -5    1    5    5    0  502  0.24983886229E+01  0.43105982973E+02  0.94000247926E+02  0.10354952595E+03  0.47000000000E+01 0.  1.
         11    1    6    6    0    0  0.71011609713E+01  0.42956328348E+02  0.49379073608E+03  0.49570652979E+03  0.00000000000E+00 0. -1.
        -12    1    6    6    0    0  0.79221725944E+02 -0.85851811190E+01  0.83370131200E+03  0.83750084467E+03  0.00000000000E+00 0.  1.
</event>
<event>
12    1  0.8133495E-002  0.2217430E+03  0.7818608E-02  0.1132850E+00
         21   -1    0    0  503  502  0.00000000000E+00  0.00000000000E+00  0.97181348358E+02  0.97181348358E+02  0.00000000000E+00 0. -1.
         21   -1    0    0  501  503 -0.00000000000E+00 -0.00000000000E+00 -0.50820912341E+03  0.50820912341E+03  0.00000000000E+00 0. -1.
          6    2    1    2  501    0  0.75240534055E+02  0.11512806225E+03 -0.23619504235E+03  0.32301401707E+03  0.17214629973E+03 0.  0.
         24    2    3    3    0    0 -0.10377468885E+02  0.94680342575E+02 -0.81322722437E+02  0.14481166820E+03  0.72697833065E+02 0.  0.
         -6    2    1    2    0  502 -0.75240534055E+02 -0.11512806225E+03 -0.17483273270E+03  0.28237645470E+03  0.17393783102E+03 0.  0.
        -24    2    5    5    0    0 -0.45725350383E+02 -0.11625521646E+03 -0.55408837951E+02  0.15926441962E+03  0.81785897390E+02 0.  0.
          5    1    3    3  501    0  0.85618002939E+02  0.20447719677E+02 -0.15487231991E+03  0.17820234887E+03  0.47000000000E+01 0. -1.
        -13    1    4    4    0    0 -0.20665126818E+02  0.50034910388E+02 -0.31792777137E+01  0.54227737651E+02  0.00000000000E+00 0.  1.
         14    1    4    4    0    0  0.10287657933E+02  0.44645432187E+02 -0.78143444723E+02  0.90583930551E+02  0.00000000000E+00 0. -1.
         -5    1    5    5    0  502 -0.29515183671E+02  0.11271542074E+01 -0.11942389475E+03  0.12311203508E+03  0.47000000000E+01 0.  1.
         11    1    6    6    0    0  0.11862744918E+02 -0.23235901673E+02 -0.41446923363E+02  0.48974271815E+02  0.00000000000E+00 0. -1.
        -12    1    6    6    0    0 -0.57588095301E+02 -0.93019314786E+02 -0.13961914588E+02  0.11029014780E+03  0.00000000000E+00 0.  1.
</event>
<event>
12    1  0.8133495E-002  0.2210505E+03  0.7818608E-02  0.1133115E+00
         21   -1    0    0  501  502  0.00000000000E+00  0.00000000000E+00  0.79804253780E+03  0.79804253780E+03  0.00000000000E+00 0. -1.
         21   -1    0    0  502  503 -0.00000000000E+00 -0.00000000000E+00 -0.72643732830E+02  0.72643732830E+02  0.00000000000E+00 0. -1.
         -6    2    1    2    0  503 -0.46053400225E+02  0.13089536743E+03  0.19002931745E+03  0.29150380448E+03  0.17207211759E+03 0.  0.
        -24    2    3    3    0    0  0.33186625206E+02  0.27911963205E+02  0.83558639914E+02  0.12344828285E+03  0.79856135969E+02 0.  0.
          6    2    1    2  501    0  0.46053400225E+02 -0.13089536743E+03  0.53536948752E+03  0.57918246615E+03  0.17198060366E+03 0.  0.
         24    2    5    5    0    0 -0.40119570548E+01 -0.13185153605E+03  0.28837624128E+03  0.32712055322E+03  0.80287461339E+02 0.  0.
          5    1    5    5  501    0  0.50065357280E+02  0.95616861295E+00  0.24699324624E+03  0.25206191292E+03  0.47000000000E+01 0. -1.
        -13    1    6    6    0    0 -0.41409486754E+02 -0.58190772447E+02  0.14540704933E+03  0.16200037527E+03  0.00000000000E+00 0.  1.
         14    1    6    6    0    0  0.37397529699E+02 -0.73660763599E+02  0.14296919195E+03  0.16512017796E+03  0.00000000000E+00 0. -1.
         -5    1    3    3    0  503 -0.79240025431E+02  0.10298340423E+03  0.10647067753E+03  0.16805552163E+03  0.47000000000E+01 0.  1.
         11    1    4    4    0    0  0.19144744429E+02  0.45697651439E+02  0.15805224174E+02  0.52005785231E+02  0.00000000000E+00 0. -1.
        -12    1    4    4    0    0  0.14041880776E+02 -0.17785688234E+02  0.67753415739E+02  0.71442497619E+02  0.00000000000E+00 0.  1.
</event>
<event>
12    1  0.8133495E-002  0.3266087E+03  0.7818608E-02  0.1073757E+00
         21   -1    0    0  503  502  0.00000000000E+00  0.00000000000E+00  0.97048082782E+02  0.97048082782E+02  0.00000000000E+00 0.  1.
         21   -1    0    0  501  503 -0.00000000000E+00 -0.00000000000E+00 -0.14592989850E+04  0.14592989850E+04  0.00000000000E+00 0.  1.
          6    2    1    2  501    0 -0.25421966458E+03 -0.11095969500E+03 -0.10772110031E+04  0.11228485301E+04  0.15318480569E+03 0.  0.
         24    2    3    3    0    0 -0.25903567701E+03 -0.11545228450E+03 -0.93311163398E+03  0.97852217941E+03  0.79872537072E+02 0.  0.
         -6    2    1    2    0  502  0.25421966458E+03  0.11095969500E+03 -0.28503989910E+03  0.43349853761E+03  0.17243417950E+03 0.  0.
        -24    2    5    5    0    0  0.96816463041E+02 -0.11433057094E+02 -0.13096544693E+03  0.18147318089E+03  0.79223890232E+02 0.  0.
          5    1    3    3  501    0  0.48160124376E+01  0.44925895019E+01 -0.14409936911E+03  0.14432635073E+03  0.47000000000E+01 0. -1.
        -11    1    4    4    0    0 -0.20468231190E+03 -0.72997978074E+02 -0.79474682458E+03  0.82392115448E+03  0.00000000000E+00 0.  1.
         12    1    4    4    0    0 -0.54353365113E+02 -0.42454306423E+02 -0.13836480939E+03  0.15460102494E+03  0.00000000000E+00 0. -1.
         -5    1    5    5    0  502  0.15740320153E+03  0.12239275209E+03 -0.15407445217E+03  0.25202535672E+03  0.47000000000E+01 0.  1.
         11    1    6    6    0    0  0.10990038483E+03 -0.16625925504E+02 -0.12047904716E+03  0.16391984868E+03  0.00000000000E+00 0. -1.
        -12    1    6    6    0    0 -0.13083921791E+02  0.51928684098E+01 -0.10486399762E+02  0.17553332212E+02  0.00000000000E+00 0.  1.
</event>
<event>
12    1  0.8133495E-002  0.1796797E+03  0.7818608E-02  0.1168262E+00
         21   -1    0    0  501  502  0.00000000000E+00  0.00000000000E+00  0.22696968317E+03  0.22696968317E+03  0.00000000000E+00 0.  1.
         21   -1    0    0  502  503 -0.00000000000E+00 -0.00000000000E+00 -0.16497237726E+03  0.16497237726E+03  0.00000000000E+00 0.  1.
         -6    2    1    2    0  503 -0.19182046655E+02 -0.47486402337E+02 -0.42555773525E+02  0.18405711188E+03  0.17158996840E+03 0.  0.
        -24    2    3    3    0    0  0.42617145671E+02 -0.15427519148E+02 -0.62082061852E+02  0.11159830911E+03  0.80905937609E+02 0.  0.
          6    2    1    2  501    0  0.19182046655E+02  0.47486402337E+02  0.10455307944E+03  0.20788494854E+03  0.17222629326E+03 0.  0.
         24    2    5    5    0    0  0.50444607727E+02  0.81926041699E+02  0.10479546327E+03  0.16113470540E+03  0.75668813953E+02 0.  0.
          5    1    5    5  501    0 -0.31262561072E+02 -0.34439639362E+02 -0.24238383094E+00  0.46750243144E+02  0.47000000000E+01 0. -1.
        -13    1    6    6    0    0  0.66723408048E+02  0.41250442195E+02  0.70967490215E+02  0.10578278135E+03  0.00000000000E+00 0.  1.
         14    1    6    6    0    0 -0.16278800321E+02  0.40675599505E+02  0.33827973055E+02  0.55351924050E+02  0.00000000000E+00 0. -1.
         -5    1    3    3    0  503 -0.61799192326E+02 -0.32058883189E+02  0.19526288328E+02  0.72458802773E+02  0.47000000000E+01 0.  1.
         11    1    4    4    0    0  0.62225376960E+02 -0.29206012304E+02 -0.47315247680E+02  0.83448914646E+02  0.00000000000E+00 0. -1.
        -12    1    4    4    0    0 -0.19608231289E+02  0.13778493156E+02 -0.14766814172E+02  0.28149394465E+02  0.00000000000E+00 0.  1.
</event>
<event>
12    1  0.8133495E-002  0.2458288E+03  0.7818608E-02  0.1116192E+00
         21   -1    0    0  503  502  0.00000000000E+00  0.00000000000E+00  0.84771280018E+02  0.84771280018E+02  0.00000000000E+00 0. -1.
         21   -1    0    0  501  503 -0.00000000000E+00 -0.00000000000E+00 -0.71559479802E+03  0.71559479802E+03  0.00000000000E+00 0. -1.
          6    2    1    2  501    0 -0.17006715413E+02  0.17406442101E+03 -0.27586700721E+03  0.36859540697E+03  0.17079905545E+03 0.  0.
         24    2    3    3    0    0  0.39784800096E+02  0.42748812965E+02 -0.13357070402E+03  0.16675538851E+03  0.80968730360E+02 0.  0.
         -6    2    1    2    0  502  0.17006715413E+02 -0.17406442101E+03 -0.35495651080E+03  0.43177067107E+03  0.17275455656E+03 0.  0.
        -24    2    5    5    0    0 -0.39822956569E+01 -0.29318934580E+02 -0.64460882812E+02  0.10649910099E+03  0.79444285476E+02 0.  0.
          5    1    3    3  501    0 -0.56791515510E+02  0.13131560804E+03 -0.14229630319E+03  0.20184001846E+03  0.47000000000E+01 0. -1.
        -13    1    4    4    0    0  0.19808047521E+02  0.37392530139E+02 -0.13906113952E+03  0.14535666679E+03  0.00000000000E+00 0.  1.
         14    1    4    4    0    0  0.19976752576E+02  0.53562828259E+01  0.54904354988E+01  0.21398721717E+02  0.00000000000E+00 0. -1.
         -5    1    5    5    0  502  0.20989011070E+02 -0.14474548643E+03 -0.29049562799E+03  0.32527157009E+03  0.47000000000E+01 0.  1.
         11    1    6    6    0    0 -0.11437305661E+02 -0.41699285880E+02 -0.29793073239E+01  0.43341881314E+02  0.00000000000E+00 0. -1.
        -12    1    6    6    0    0  0.74550100044E+01  0.12380351300E+02 -0.61481575488E+02  0.63157219674E+02  0.00000000000E+00 0.  1.
</event>
<event>
12    1  0.8133495E-002  0.1841287E+03  0.7818608E-02  0.1164130E+00
         21   -1    0    0  501  502  0.00000000000E+00  0.00000000000E+00  0.14274672886E+03  0.14274672886E+03  0.00000000000E+00 0. -1.
         21   -1    0    0  502  503 -0.00000000000E+00 -0.00000000000E+00 -0.51154165023E+03  0.51154165023E+03  0.00000000000E+00 0.  1.
         -6    2    1    2    0  503 -0.25677798698E+02 -0.64563287074E+02 -0.42420935784E+03  0.46200181678E+03  0.16930544010E+03 0.  0.
        -24    2    3    3    0    0 -0.59109823131E+02 -0.13283631624E+02 -0.14562928478E+03  0.17673658857E+03  0.79733977036E+02 0.  0.
          6    2    1    2  501    0  0.25677798698E+02  0.64563287074E+02  0.55414436464E+02  0.19228656231E+03  0.17051567345E+03 0.  0.
         24    2    5    5    0    0  0.64832958920E+02  0.75777082906E+01  0.61671947734E+02  0.12270402709E+03  0.83618866892E+02 0.  0.
          5    1    5    5  501    0 -0.39155160222E+02  0.56985578783E+02 -0.62575112700E+01  0.69582535227E+02  0.47000000000E+01 0. -1.
        -11    1    6    6    0    0  0.40057364846E+02 -0.36584871468E+02  0.22707847097E+02  0.58810642052E+02  0.00000000000E+00 0.  1.
         12    1    6    6    0    0  0.24775594074E+02  0.44162579758E+02  0.38964100637E+02  0.63893385033E+02  0.00000000000E+00 0. -1.
         -5    1    3    3    0  503  0.33432024432E+02 -0.51279655450E+02 -0.27858007306E+03  0.28526522821E+03  0.47000000000E+01 0.  1.
         11    1    4    4    0    0 -0.95184831613E+01 -0.39699695803E+02 -0.83642069071E+02  0.93073428469E+02  0.00000000000E+00 0. -1.
        -12    1    4    4    0    0 -0.49591339969E+02  0.26416064179E+02 -0.61987215711E+02  0.83663160102E+02  0.00000000000E+00 0.  1.
</event>
<event>
12    1  0.8133495E-002  0.2097164E+03  0.7818608E-02  0.1142072E+00
         21   -1    0    0  503  502  0.00000000000E+00  0.00000000000E+00  0.73321675669E+02  0.73321675669E+02  0.00000000000E+00 0.  1.
         21   -1    0    0  501  503 -0.00000000000E+00 -0.00000000000E+00 -0.61875272203E+03  0.61875272203E+03  0.00000000000E+00 0.  1.
          6    2    1    2  501    0 -0.21276182935E+02  0.11557595556E+03 -0.33847854840E+03  0.39743851449E+03  0.17198595177E+03 0.  0.
         24    2    3    3    0    0 -0.79805011508E+02  0.81010471466E+02 -0.20825735725E+03  0.25046897652E+03  0.80200031187E+02 0.  0.
         -6    2    1    2    0  502  0.21276182935E+02 -0.11557595556E+03 -0.20695249796E+03  0.29463588321E+03  0.17369654515E+03 0.  0.
        -24    2    5    5    0    0  0.62128567674E+02 -0.21109277876E+02 -0.12911493432E+03  0.16550940705E+03  0.80107034797E+02 0.  0.
          5    1    3    3  501    0  0.58528828573E+02  0.34565484097E+02 -0.13022119115E+03  0.14696953796E+03  0.47000000000E+01 0. -1.
        -11    1    4    4    0    0 -0.44136795517E+02  0.66664228000E+02 -0.19336172446E+03  0.20923893638E+03  0.00000000000E+00 0.  1.
         12    1    4    4    0    0 -0.35668215992E+02  0.14346243467E+02 -0.14895632792E+02  0.41230040140E+02  0.00000000000E+00 0. -1.
         -5    1    5    5    0  502 -0.40852384739E+02 -0.94466677687E+02 -0.77837563636E+02  0.12912647616E+03  0.47000000000E+01 0.  1.
         13    1    6    6    0    0 -0.80883340907E+01  0.14822970394E+02 -0.35963951296E+01  0.17264867726E+02  0.00000000000E+00 0. -1.
        -14    1    6    6    0    0  0.70216901764E+02 -0.35932248270E+02 -0.12551853919E+03  0.14824453932E+03  0.00000000000E+00 0.  1.
</event>
<event>
12    1  0.8133495E-002  0.1971197E+03  0.7818608E-02  0.1152576E+00
         21   -1    0    0  501  502  0.00000000000E+00  0.00000000000E+00  0.45537764760E+02  0.45537764760E+02  0.00000000000E+00 0.  1.
         21   -1    0    0  502  503 -0.00000000000E+00 -0.00000000000E+00 -0.89615962531E+03  0.89615962531E+03  0.00000000000E+00 0.  1.
         -6    2    1    2    0  503  0.86710102486E+02  0.31549426870E+02 -0.31528471753E+03  0.37183411646E+03  0.17418997918E+03 0.  0.
        -24    2    3    3    0    0  0.77811348260E+02 -0.44141266808E+02 -0.21346482752E+03  0.24456413203E+03  0.79002055246E+02 0.  0.
          6    2    1    2  501    0 -0.86710102486E+02 -0.31549426870E+02 -0.53533714302E+03  0.56986327361E+03  0.17217515994E+03 0.  0.
         24    2    5    5    0    0 -0.68354716238E+02 -0.69253770201E+01 -0.14736230262E+03  0.18064632791E+03  0.78721785261E+02 0.  0.
          5    1    5    5  501    0 -0.18355386248E+02 -0.24624049849E+02 -0.38797484041E+03  0.38921694570E+03  0.47000000000E+01 0. -1.
        -13    1    6    6    0    0 -0.24536262242E+02 -0.32427113785E+02 -0.11111641112E+03  0.11832329734E+03  0.00000000000E+00 0.  1.
         14    1    6    6    0    0 -0.43818453997E+02  0.25501736765E+02 -0.36245891499E+02  0.62323030569E+02  0.00000000000E+00 0. -1.
         -5    1    3    3    0  503  0.88987542265E+01  0.75690693678E+02 -0.10181989001E+03  0.12726998444E+03  0.47000000000E+01 0.  1.
         13    1    4    4    0    0  0.63895536049E+02 -0.52545244383E+02 -0.21277699841E+03  0.22829299877E+03  0.00000000000E+00 0. -1.
        -14    1    4    4    0    0  0.13915812210E+02  0.84039775749E+01 -0.68782910583E+00  0.16271133256E+02  0.00000000000E+00 0.  1.
</event>
<event>
12    1  0.8133495E-002  0.1748056E+03  0.7818608E-02  0.1172932E+00
         21   -1    0    0  503  502  0.00000000000E+00  0.00000000000E+00  0.77297859614E+02  0.77297859614E+02  0.00000000000E+00 0. -1.
         21   -1    0    0  501  503 -0.00000000000E+00 -0.00000000000E+00 -0.45808932828E+03  0.45808932828E+03  0.00000000000E+00 0. -1.
          6    2    1    2  501    0 -0.26985400083E+02 -0.61338164510E+01 -0.28951913259E+03  0.33818767256E+03  0.17257965759E+03 0.  0.
         24    2    3    3    0    0 -0.60838066201E+01 -0.69668754580E+02 -0.20239656063E+03  0.22825133863E+03  0.79016186724E+02 0.  0.
         -6    2    1    2    0  502  0.26985400083E+02  0.61338164510E+01 -0.91272336075E+02  0.19719951534E+03  0.17260119928E+03 0.  0.
        -24    2    5    5    0    0 -0.38977121561E+02  0.27958619637E+02 -0.35735349793E+02  0.10812750435E+03  0.90075754534E+02 0.  0.
          5    1    3    3  501    0 -0.20901593463E+02  0.63534938129E+02 -0.87122571960E+02  0.10993633393E+03  0.47000000000E+01 0. -1.
        -13    1    4    4    0    0 -0.41954108921E+02 -0.46126620123E+02 -0.12768784535E+03  0.14209855098E+03  0.00000000000E+00 0.  1.
         14    1    4    4    0    0  0.35870302301E+02 -0.23542134457E+02 -0.74708715279E+02  0.86152787655E+02  0.00000000000E+00 0. -1.
         -5    1    5    5    0  502  0.65962521644E+02 -0.21824803186E+02 -0.55536986282E+02  0.89072010986E+02  0.47000000000E+01 0.  1.
         11    1    6    6    0    0  0.76793378849E+01 -0.40704776536E+01 -0.49194802256E+02  0.49956677108E+02  0.00000000000E+00 0. -1.
        -12    1    6    6    0    0 -0.46656459446E+02  0.32029097291E+02  0.13459452464E+02  0.58170827241E+02  0.00000000000E+00 0.  1.
</event>
<event>
12    1  0.8133495E-002  0.1770634E+03  0.7818608E-02  0.1170875E+00
         21   -1    0    0  501  502  0.00000000000E+00  0.00000000000E+00  0.13623062169E+03  0.13623062169E+03  0.00000000000E+00 0. -1.
         21   -1    0    0  502  503 -0.00000000000E+00 -0.00000000000E+00 -0.31037231382E+03  0.31037231382E+03  0.00000000000E+00 0. -1.
         -6    2    1    2    0  503 -0.31455074650E+02 -0.29363979966E+02 -0.20148961676E+03  0.26823408233E+03  0.17175503551E+03 0.  0.
        -24    2    3    3    0    0 -0.41449625826E+02 -0.73764118487E+02 -0.18607327005E+03  0.21995347443E+03  0.81222240980E+02 0.  0.
          6    2    1    2  501    0  0.31455074650E+02  0.29363979966E+02  0.27347924622E+02  0.17836885318E+03  0.17092651568E+03 0.  0.
         24    2    5    5    0    0  0.14065910589E+01 -0.52041602096E+02  0.20673565219E+02  0.91211425321E+02  0.71984866209E+02 0.  0.
          5    1    5    5  501    0  0.30048483591E+02  0.81405582062E+02  0.66743594033E+01  0.87157427856E+02  0.47000000000E+01 0. -1.
        -11    1    6    6    0    0 -0.34093864028E+01  0.18133837115E+02  0.54881021904E+01  0.19250434536E+02  0.00000000000E+00 0.  1.
         12    1    6    6    0    0  0.48159774617E+01 -0.70175439211E+02  0.15185463028E+02  0.71960990785E+02  0.00000000000E+00 0. -1.
         -5    1    3    3    0  503  0.99945511753E+01  0.44400138521E+02 -0.15416346711E+02  0.48280607906E+02  0.47000000000E+01 0.  1.
         11    1    4    4    0    0  0.26001922824E+00 -0.30623997286E+02 -0.14260715223E+03  0.14585848171E+03  0.00000000000E+00 0. -1.
        -12    1    4    4    0    0 -0.41709645054E+02 -0.43140121201E+02 -0.43466117817E+02  0.74094992718E+02  0.00000000000E+00 0.  1.
</event>
<event>
12    1  0.8133495E-002  0.2145701E+03  0.7818608E-02  0.1138049E+00
         21   -1    0    0  501  502  0.00000000000E+00  0.00000000000E+00  0.61371261441E+03  0.61371261441E+03  0.00000000000E+00 0. -1.
         21   -1    0    0  502  503 -0.00000000000E+00 -0.00000000000E+00 -0.88891472746E+02  0.88891472746E+02  0.00000000000E+00 0.  1.
         -6    2    1    2    0  503  0.59135979947E+02 -0.11349593283E+03  0.12329864449E+03  0.24747297816E+03  0.17222638676E+03 0.  0.
        -24    2    3    3    0    0  0.39848309551E+02 -0.66725795624E+02  0.15252653150E+03  0.18885711562E+03  0.79764953031E+02 0.  0.
          6    2    1    2  501    0 -0.59135979947E+02  0.11349593283E+03  0.40152249717E+03  0.45513110899E+03  0.17188839328E+03 0.  0.
         24    2    5    5    0    0 -0.71861849815E+00  0.19015249947E+02  0.78153371950E+02  0.11318247440E+03  0.79625541253E+02 0.  0.
          5    1    5    5  501    0 -0.58417361449E+02  0.94480682879E+02  0.32336912522E+03  0.34194863460E+03  0.47000000000E+01 0. -1.
        -11    1    6    6    0    0 -0.18174012349E+02 -0.24377453340E+02  0.50209327928E+02  0.58698650471E+02  0.00000000000E+00 0.  1.
         12    1    6    6    0    0  0.17455393851E+02  0.43392703287E+02  0.27944044023E+02  0.54483823924E+02  0.00000000000E+00 0. -1.
         -5    1    3    3    0  503  0.19287670396E+02 -0.46770137202E+02 -0.29227887007E+02  0.58615862547E+02  0.47000000000E+01 0.  1.
         13    1    4    4    0    0 -0.45102350742E+00 -0.67222797444E+02  0.70208112464E+02  0.97202299223E+02  0.00000000000E+00 0. -1.
        -14    1    4    4    0    0  0.40299333059E+02  0.49700181979E+00  0.82318419034E+02  0.91654816393E+02  0.00000000000E+00 0.  1.
</event>
<event>
12    1  0.8133495E-002  0.2420715E+03  0.7818608E-02  0.1118782E+00
         21   -1    0    0  501  502  0.00000000000E+00  0.00000000000E+00  0.75838200102E+03  0.75838200102E+03  0.00000000000E+00 0.  1.
         21   -1    0    0  502  503 -0.00000000000E+00 -0.00000000000E+00 -0.10146439103E+03  0.10146439103E+03  0.00000000000E+00 0. -1.
         -6    2    1    2    0  503 -0.87725405206E+02  0.14283881802E+03  0.11438824841E+03  0.26576163527E+03  0.17159807911E+03 0.  0.
        -24    2    3    3    0    0 -0.26662910643E+02  0.11171731915E+03  0.96755390471E+01  0.14052578802E+03  0.80387877447E+02 0.  0.
          6    2    1    2  501    0  0.87725405206E+02 -0.14283881802E+03  0.54252936158E+03  0.59408475679E+03  0.17464224982E+03 0.  0.
         24    2    5    5    0    0  0.77867769337E+02 -0.34661402016E+02  0.38747605666E+03  0.40470908864E+03  0.79918393746E+02 0.  0.
          5    1    5    5  501    0  0.98576358691E+01 -0.10817741600E+03  0.15505330492E+03  0.18937566815E+03  0.47000000000E+01 0. -1.
        -13    1    6    6    0    0  0.26037816221E+02 -0.48548393688E+02  0.26994042669E+03  0.27550453420E+03  0.00000000000E+00 0.  1.
         14    1    6    6    0    0  0.51829953117E+02  0.13886991671E+02  0.11753562996E+03  0.12920455444E+03  0.00000000000E+00 0. -1.
         -5    1    3    3    0  503 -0.61062494564E+02  0.31121498869E+02  0.10471270936E+03  0.12523584725E+03  0.47000000000E+01 0.  1.
         13    1    4    4    0    0 -0.50638068087E+02  0.10127340593E+03  0.19019157942E+01  0.11324369286E+03  0.00000000000E+00 0. -1.
        -14    1    4    4    0    0  0.23975157445E+02  0.10443913217E+02  0.77736232529E+01  0.27282095159E+02  0.00000000000E+00 0.  1.
</event>
<event>
12    1  0.8133495E-002  0.3452073E+03  0.7818608E-02  0.1064652E+00
         21   -1    0    0  501  502  0.00000000000E+00  0.00000000000E+00  0.11415219200E+04  0.11415219200E+04  0.00000000000E+00 0.  1.
         21   -1    0    0  502  503 -0.00000000000E+00 -0.00000000000E+00 -0.12048287744E+03  0.12048287744E+03  0.00000000000E+00 0.  1.
         -6    2    1    2    0  503  0.29349185562E+03  0.54390639005E+02  0.74186890962E+03  0.81804075680E+03  0.17241052691E+03 0.  0.
        -24    2    3    3    0    0  0.29661330104E+03  0.39107482542E+02  0.73941151459E+03  0.80156510557E+03  0.79173133217E+02 0.  0.
          6    2    1    2  501    0 -0.29349185562E+03 -0.54390639005E+02  0.27917013288E+03  0.44396404059E+03  0.17341365378E+03 0.  0.
         24    2    5    5    0    0 -0.69834347182E+02 -0.47501221936E+02  0.61954464209E+02  0.13207482650E+03  0.80449997064E+02 0.  0.
          5    1    5    5  501    0 -0.22365750844E+03 -0.68894170691E+01  0.21721566867E+03  0.31188921409E+03  0.47000000000E+01 0. -1.
        -11    1    6    6    0    0 -0.79503195956E+02 -0.60733317747E+02  0.50411641135E+02  0.11202958365E+03  0.00000000000E+00 0.  1.
         12    1    6    6    0    0  0.96688487741E+01  0.13232095812E+02  0.11542823074E+02  0.20045242845E+02  0.00000000000E+00 0. -1.
         -5    1    3    3    0  503 -0.31214454185E+01  0.15283156463E+02  0.24573950366E+01  0.16475651226E+02  0.47000000000E+01 0.  1.
         11    1    4    4    0    0  0.24520869435E+02  0.92575582163E+01  0.23854208882E+02  0.35440072000E+02  0.00000000000E+00 0. -1.
        -12    1    4    4    0    0  0.27209243161E+03  0.29849924326E+02  0.71555730571E+03  0.76612503357E+03  0.00000000000E+00 0.  1.
</event>
<event>
12    1  0.8133495E-002  0.3089874E+03  0.7818608E-02  0.1081256E+00
         21   -1    0    0  503  502  0.00000000000E+00  0.00000000000E+00  0.31910843112E+03  0.31910843112E+03  0.00000000000E+00 0. -1.
         21   -1    0    0  501  503 -0.00000000000E+00 -0.00000000000E+00 -0.32636114340E+03  0.32636114340E+03  0.00000000000E+00 0. -1.
          6    2    1    2  501    0  0.19649461392E+03  0.16471220102E+03 -0.10235233686E+03  0.32217841841E+03  0.16608037200E+03 0.  0.
         24    2    3    3    0    0  0.77651605715E+02  0.11896930953E+03 -0.10658910228E+03  0.19467895605E+03  0.79719450089E+02 0.  0.
         -6    2    1    2    0  502 -0.19649461392E+03 -0.16471220102E+03  0.95099624577E+02  0.32329115611E+03  0.17243256815E+03 0.  0.
        -24    2    5    5    0    0 -0.63571327332E+02 -0.96791836932E+02  0.10432978808E+03  0.17366140675E+03  0.76574187285E+02 0.  0.
          5    1    3    3  501    0  0.11884300820E+03  0.45742891489E+02  0.42367654210E+01  0.12749946236E+03  0.47000000000E+01 0. -1.
        -13    1    4    4    0    0 -0.10489927521E+02  0.32910240700E+02 -0.47895876730E+01  0.34872090164E+02  0.00000000000E+00 0.  1.
         14    1    4    4    0    0  0.88141533237E+02  0.86059068834E+02 -0.10179951460E+03  0.15980686588E+03  0.00000000000E+00 0. -1.
         -5    1    5    5    0  502 -0.13292328659E+03 -0.67920364091E+02 -0.92301634987E+01  0.14962974936E+03  0.47000000000E+01 0.  1.
         13    1    6    6    0    0 -0.78441297440E+02 -0.95135643422E+02  0.87821617923E+02  0.15138184953E+03  0.00000000000E+00 0. -1.
        -14    1    6    6    0    0  0.14869970108E+02 -0.16561935106E+01  0.16508170152E+02  0.22279557215E+02  0.00000000000E+00 0.  1.
</event>
<event>
12    1  0.8133495E-002  0.1962285E+03  0.7818608E-02  0.1153412E+00
         21   -1    0    0  503  502  0.00000000000E+00  0.00000000000E+00  0.15634977184E+04  0.15634977184E+04  0.00000000000E+00 0. -1.
         21   -1    0    0  501  503 -0.00000000000E+00 -0.00000000000E+00 -0.47284687436E+02  0.47284687436E+02  0.00000000000E+00 0.  1.
          6    2    1    2  501    0  0.61120475737E+01 -0.91339264818E+02  0.19949801071E+03  0.27983047485E+03  0.17356675937E+03 0.  0.
         24    2    3    3    0    0  0.61819527857E+02 -0.96341871067E+02  0.12843244177E+03  0.18927245745E+03  0.78903491069E+02 0.  0.
         -6    2    1    2    0  502 -0.61120475737E+01  0.91339264818E+02  0.13167150202E+04  0.13309519310E+04  0.17121442576E+03 0.  0.
        -24    2    5    5    0    0 -0.16496989315E+02  0.12840194688E+03  0.11277869367E+04  0.11380856556E+04  0.81094847603E+02 0.  0.
          5    1    3    3  501    0 -0.55707480283E+02  0.50026062496E+01  0.71065568937E+02  0.90558017409E+02  0.47000000000E+01 0. -1.
        -11    1    4    4    0    0  0.54256336833E+02 -0.73382354028E+02  0.13614129071E+03  0.16389988105E+03  0.00000000000E+00 0.  1.
         12    1    4    4    0    0  0.75631910240E+01 -0.22959517039E+02 -0.77088489438E+01  0.25372576400E+02  0.00000000000E+00 0. -1.
         -5    1    5    5    0  502  0.10384941741E+02 -0.37062682061E+02  0.18892808351E+03  0.19286627532E+03  0.47000000000E+01 0.  1.
         11    1    6    6    0    0 -0.34671262661E+02  0.22702655236E+02  0.20973646501E+03  0.21379170182E+03  0.00000000000E+00 0. -1.
        -12    1    6    6    0    0  0.18174273345E+02  0.10569929164E+03  0.91805047170E+03  0.92429395382E+03  0.00000000000E+00 0.  1.
</event>
<event>
12    1  0.8133495E-002  0.1879366E+03  0.7818608E-02  0.1160526E+00
         21   -1    0    0  501  502  0.00000000000E+00  0.00000000000E+00  0.44148767076E+03  0.44148767076E+03  0.00000000000E+00 0.  1.
         21   -1    0    0  502  503 -0.00000000000E+00 -0.00000000000E+00 -0.93212537269E+02  0.93212537269E+02  0.00000000000E+00 0.  1.
         -6    2    1    2    0  503 -0.77819668824E+02  0.20016533399E+02  0.71823217913E+02  0.20041613636E+03  0.16897186339E+03 0.  0.
        -24    2    3    3    0    0 -0.10995604369E+03  0.15912210952E+02  0.89308824841E+02  0.16330241246E+03  0.79674849990E+02 0.  0.
          6    2    1    2  501    0  0.77819668824E+02 -0.20016533399E+02  0.27645191558E+03  0.33428407166E+03  0.16989295594E+03 0.  0.
         24    2    5    5    0    0  0.11326615401E+03 -0.43843707723E+02  0.21528640272E+03  0.25953450637E+03  0.79110255037E+02 0.  0.
          5    1    5    5  501    0 -0.35446485182E+02  0.23827174324E+02  0.61165512862E+02  0.74749565295E+02  0.47000000000E+01 0. -1.
        -11    1    6    6    0    0  0.10987318722E+03 -0.11087574240E+02  0.18074249581E+03  0.21180864327E+03  0.00000000000E+00 0.  1.
         12    1    6    6    0    0  0.33929667879E+01 -0.32756133483E+02  0.34543906907E+02  0.47725863101E+02  0.00000000000E+00 0. -1.
         -5    1    3    3    0  503  0.32136374865E+02  0.41043224466E+01 -0.17485606928E+02  0.37113723901E+02  0.47000000000E+01 0.  1.
         11    1    4    4    0    0  0.35244594093E+01 -0.17698493210E+02  0.15750022746E+02  0.23952488232E+02  0.00000000000E+00 0. -1.
        -12    1    4    4    0    0 -0.11348050310E+03  0.33610704162E+02  0.73558802095E+02  0.13934992423E+03  0.00000000000E+00 0.  1.
</event>
<event>
12    1  0.8133495E-002  0.2151895E+03  0.7818608E-02  0.1137752E+00
         21   -1    0    0  501  502  0.00000000000E+00  0.00000000000E+00  0.39131532436E+03  0.39131532436E+03  0.00000000000E+00 0. -1.
         21   -1    0    0  502  503 -0.00000000000E+00 -0.00000000000E+00 -0.13803045588E+03  0.13803045588E+03  0.00000000000E+00 0. -1.
         -6    2    1    2    0  503 -0.12471846731E+03  0.30803846923E+02  0.25307826881E+02  0.21667257667E+03  0.17263529856E+03 0.  0.
        -24    2    3    3    0    0 -0.12395777351E+03  0.37418086332E+02 -0.33975448002E+02  0.15683175867E+03  0.81708179908E+02 0.  0.
          6    2    1    2  501    0  0.12471846731E+03 -0.30803846923E+02  0.22797704160E+03  0.31267320357E+03  0.17113569954E+03 0.  0.
         24    2    5    5    0    0  0.10480882919E+03 -0.19443734416E+02  0.24698396504E+03  0.28252691052E+03  0.86356393496E+02 0.  0.
          5    1    5    5  501    0  0.19909638121E+02 -0.11360112507E+02 -0.19006923432E+02  0.30146293049E+02  0.47000000000E+01 0. -1.
        -11    1    6    6    0    0  0.29726150823E+02 -0.45095829089E+02  0.68742207840E+02  0.87422931675E+02  0.00000000000E+00 0.  1.
         12    1    6    6    0    0  0.75082678365E+02  0.25652094673E+02  0.17824175720E+03  0.19510397884E+03  0.00000000000E+00 0. -1.
         -5    1    3    3    0  503 -0.76069380138E+00 -0.66142394087E+01  0.59283274884E+02  0.59840818000E+02  0.47000000000E+01 0.  1.
         11    1    4    4    0    0 -0.10583474902E+03  0.89930925716E+01  0.36944065380E+01  0.10628037661E+03  0.00000000000E+00 0. -1.
        -12    1    4    4    0    0 -0.18123024489E+02  0.28424993760E+02 -0.37669854540E+02  0.50551382058E+02  0.00000000000E+00 0.  1.
</event>
<event>
12    1  0.8133495E-002  0.1991210E+03  0.7818608E-02  0.1150866E+00
         21   -1    0    0  501  502  0.00000000000E+00  0.00000000000E+00  0.22250829377E+03  0.22250829377E+03  0.00000000000E+00 0.  1.
         21   -1    0    0  502  503 -0.00000000000E+00 -0.00000000000E+00 -0.50240933675E+03  0.50240933675E+03  0.00000000000E+00 0.  1.
         -6    2    1    2    0  503 -0.17640154365E+02  0.95778136457E+02 -0.43206409866E+03  0.47574002376E+03  0.17367947026E+03 0.  0.
        -24    2    3    3    0    0  0.52541837109E+02  0.26316624640E+02 -0.19012887758E+03  0.21438747499E+03  0.79748291289E+02 0.  0.
          6    2    1    2  501    0  0.17640154365E+02 -0.95778136457E+02  0.15216305567E+03  0.24917760676E+03  0.17161368748E+03 0.  0.
         24    2    5    5    0    0  0.64148311627E+02 -0.97443494991E+02  0.14386576346E+03  0.20167268945E+03  0.79776407374E+02 0.  0.
          5    1    5    5  501    0 -0.46508157262E+02  0.16653585338E+01  0.82972922148E+01  0.47504917314E+02  0.47000000000E+01 0. -1.
        -11    1    6    6    0    0 -0.10499465647E+02 -0.18842711021E+02  0.62547262870E+02  0.66162274976E+02  0.00000000000E+00 0.  1.
         12    1    6    6    0    0  0.74647777274E+02 -0.78600783970E+02  0.81318500586E+02  0.13551041447E+03  0.00000000000E+00 0. -1.
         -5    1    3    3    0  503 -0.70181991474E+02  0.69461511817E+02 -0.24193522108E+03  0.26135254877E+03  0.47000000000E+01 0.  1.
         13    1    4    4    0    0  0.70072029361E+01 -0.25590506071E+02 -0.81130028964E+02  0.85358400253E+02  0.00000000000E+00 0. -1.
        -14    1    4    4    0    0  0.45534634173E+02  0.51907130711E+02 -0.10899884862E+03  0.12902907474E+03  0.00000000000E+00 0.  1.
</event>
<event>
12    1  0.8133495E-002  0.1917252E+03  0.7818608E-02  0.1157325E+00
         21   -1    0    0  501  502  0.00000000000E+00  0.00000000000E+00  0.73651095643E+02  0.73651095643E+02  0.00000000000E+00 0. -1.
         21   -1    0    0  502  503 -0.00000000000E+00 -0.00000000000E+00 -0.62575615911E+03  0.62575615911E+03  0.00000000000E+00 0. -1.
         -6    2    1    2    0  503  0.33886192169E-01  0.83340890427E+02 -0.43736236278E+03  0.47753992277E+03  0.17266394035E+03 0.  0.
        -24    2    3    3    0    0  0.20400930199E+01 -0.20355348511E+02 -0.22379208857E+03  0.24007142621E+03  0.84456430069E+02 0.  0.
          6    2    1    2  501    0 -0.33886192169E-01 -0.83340890427E+02 -0.11474270068E+03  0.22186733198E+03  0.17062684570E+03 0.  0.
         24    2    5    5    0    0 -0.25833891260E+02 -0.84821761980E+02 -0.13987103254E+03  0.18551686701E+03  0.83609096145E+02 0.  0.
          5    1    5    5  501    0  0.25800005068E+02  0.14808715534E+01  0.25128331853E+02  0.36350464973E+02  0.47000000000E+01 0. -1.
        -13    1    6    6    0    0 -0.27489836915E+02  0.81694201965E+01 -0.28711902011E+02  0.40580831399E+02  0.00000000000E+00 0.  1.
         14    1    6    6    0    0  0.16559456544E+01 -0.92991182177E+02 -0.11115913053E+03  0.14493603561E+03  0.00000000000E+00 0. -1.
         -5    1    3    3    0  503 -0.20062068277E+01  0.10369623894E+03 -0.21357027421E+03  0.23746849657E+03  0.47000000000E+01 0.  1.
         13    1    4    4    0    0  0.14430859616E+02  0.30308093210E+02 -0.10749153796E+03  0.11261110494E+03  0.00000000000E+00 0. -1.
        -14    1    4    4    0    0 -0.12390766596E+02 -0.50663441720E+02 -0.11630055062E+03  0.12746032127E+03  0.00000000000E+00 0.  1.
</event>
<event>
12    1  0.8133495E-002  0.2533390E+03  0.7818608E-02  0.1112436E+00
         21   -1    0    0  503  502  0.00000000000E+00  0.00000000000E+00  0.41294856790E+03  0.41294856790E+03  0.00000000000E+00 0.  1.
         21   -1    0    0  501  503 -0.00000000000E+00 -0.00000000000E+00 -0.15097440265E+03  0.15097440265E+03  0.00000000000E+00 0.  1.
          6    2    1    2  501    0  0.58601667746E+02 -0.16984479113E+03  0.12112047449E+03  0.28080383404E+03  0.17860351434E+03 0.  0.
         24    2    3    3    0    0  0.73231884651E+01 -0.81572147478E+02 -0.10261304604E+02  0.11435623288E+03  0.79148021406E+02 0.  0.
         -6    2    1    2    0  502 -0.58601667746E+02  0.16984479113E+03  0.14085369076E+03  0.28311913650E+03  0.16743737551E+03 0.  0.
        -24    2    5    5    0    0 -0.22473192304E+00  0.20860604213E+02  0.29628760397E+02  0.88190355351E+02  0.80401865785E+02 0.  0.
          5    1    3    3  501    0  0.51278479281E+02 -0.88272643651E+02  0.13138177909E+03  0.16644760116E+03  0.47000000000E+01 0. -1.
        -13    1    4    4    0    0 -0.30958226848E+02 -0.52957565196E+02  0.10522906601E+02  0.62238630162E+02  0.00000000000E+00 0.  1.
         14    1    4    4    0    0  0.38281415313E+02 -0.28614582282E+02 -0.20784211205E+02  0.52117602717E+02  0.00000000000E+00 0. -1.
         -5    1    5    5    0  502 -0.58376935823E+02  0.14898418692E+03  0.11122493036E+03  0.19492878115E+03  0.47000000000E+01 0.  1.
         13    1    6    6    0    0 -0.36017746738E+02  0.34724886948E+00  0.30088714755E+02  0.46933244267E+02  0.00000000000E+00 0. -1.
        -14    1    6    6    0    0  0.35793014815E+02  0.20513355343E+02 -0.45995435781E+00  0.41257111084E+02  0.00000000000E+00 0.  1.
</event>
<event>
12    1  0.8133495E-002  0.2547554E+03  0.7818608E-02  0.1110573E+00
         21   -1    0    0  501  502  0.00000000000E+00  0.00000000000E+00  0.70334776623E+02  0.70334776623E+02  0.00000000000E+00 0. -1.
         21   -1    0    0  502  503 -0.00000000000E+00 -0.00000000000E+00 -0.10646336044E+04  0.10646336044E+04  0.00000000000E+00 0.  1.
         -6    2    1    2    0  503 -0.12624829681E+03 -0.13730501774E+03 -0.70963013361E+03  0.75397296228E+03  0.17351945417E+03 0.  0.
        -24    2    3    3    0    0 -0.58703217810E+02 -0.13227106568E+03 -0.61968182683E+03  0.64127661689E+03  0.79299623428E+02 0.  0.
          6    2    1    2  501    0  0.12624829681E+03  0.13730501774E+03 -0.28466869421E+03  0.38099541879E+03  0.17125987076E+03 0.  0.
         24    2    5    5    0    0  0.13880583350E+03  0.15773217958E+03 -0.27283674317E+03  0.35384683256E+03  0.81370710966E+02 0.  0.
          5    1    5    5  501    0 -0.12557536689E+02 -0.20427161844E+02 -0.11831951042E+02  0.27148586228E+02  0.47000000000E+01 0. -1.
        -13    1    6    6    0    0  0.43178713289E+02  0.65243028726E+01 -0.77531015544E+02  0.88983291581E+02  0.00000000000E+00 0.  1.
         14    1    6    6    0    0  0.95627120206E+02  0.15120787671E+03 -0.19530572763E+03  0.26486354098E+03  0.00000000000E+00 0. -1.
         -5    1    3    3    0  503 -0.67545078996E+02 -0.50339520591E+01 -0.89948306782E+02  0.11269634538E+03  0.47000000000E+01 0.  1.
         13    1    4    4    0    0  0.86904277845E+01 -0.72263257005E+02 -0.22804940142E+03  0.23938260449E+03  0.00000000000E+00 0. -1.
        -14    1    4    4    0    0 -0.67393645594E+02 -0.60007808676E+02 -0.39163242541E+03  0.40189401240E+03  0.00000000000E+00 0.  1.
</event>
<event>
12    1  0.8133495E-002  0.2260557E+03  0.7818608E-02  0.1130101E+00
         21   -1    0    0  503  502  0.00000000000E+00  0.00000000000E+00  0.20359478455E+03  0.20359478455E+03  0.00000000000E+00 0.  1.
         21   -1    0    0  501  503 -0.00000000000E+00 -0.00000000000E+00 -0.34290710978E+03  0.34290710978E+03  0.00000000000E+00 0. -1.
          6    2    1    2  501    0  0.51699417850E+02 -0.13285243736E+03 -0.21375399460E+03  0.30850451439E+03  0.17076786956E+03 0.  0.
         24    2    3    3    0    0  0.30154508960E+02 -0.12053009616E+03 -0.73485797769E+02  0.16597984904E+03  0.81928928486E+02 0.  0.
         -6    2    1    2    0  502 -0.51699417850E+02  0.13285243736E+03  0.74441669363E+02  0.23799737994E+03  0.17543828203E+03 0.  0.
        -24    2    5    5    0    0 -0.76139555132E+02  0.97207462014E+02  0.10887487047E+03  0.18253910809E+03  0.78868663212E+02 0.  0.
          5    1    3    3  501    0  0.21544908890E+02 -0.12322341206E+02 -0.14026819683E+03  0.14252466535E+03  0.47000000000E+01 0. -1.
        -11    1    4    4    0    0  0.55353941896E+02 -0.56012470304E+02 -0.30430312322E+02  0.84424283361E+02  0.00000000000E+00 0.  1.
         12    1    4    4    0    0 -0.25199432935E+02 -0.64517625853E+02 -0.43055485447E+02  0.81555565678E+02  0.00000000000E+00 0. -1.
         -5    1    5    5    0  502  0.24440137282E+02  0.35644975348E+02 -0.34433201107E+02  0.55458271848E+02  0.47000000000E+01 0.  1.
         11    1    6    6    0    0 -0.27634746486E+02  0.81739690552E+02  0.35660607717E+02  0.93363457346E+02  0.00000000000E+00 0. -1.
        -12    1    6    6    0    0 -0.48504808646E+02  0.15467771462E+02  0.73214262753E+02  0.89175650748E+02  0.00000000000E+00 0.  1.
</event>
<event>
12    1  0.8133495E-002  0.2626231E+03  0.7818608E-02  0.1105590E+00
         21   -1    0    0  503  502  0.00000000000E+00  0.00000000000E+00  0.31142545463E+03  0.31142545463E+03  0.00000000000E+00 0. -1.
         21   -1    0    0  501  503 -0.00000000000E+00 -0.00000000000E+00 -0.32183859420E+03  0.32183859420E+03  0.00000000000E+00 0.  1.
          6    2    1    2  501    0 -0.87740636945E+02 -0.17798746172E+03 -0.18209198674E+03  0.31957535908E+03  0.17202605208E+03 0.  0.
         24    2    3    3    0    0 -0.43792307294E+02 -0.23845675109E+02 -0.10680358140E+03  0.14242689017E+03  0.79950182261E+02 0.  0.
         -6    2    1    2    0  502  0.87740636945E+02  0.17798746172E+03  0.17167884717E+03  0.31368868975E+03  0.17189825947E+03 0.  0.
        -24    2    5    5    0    0  0.49227597169E+02  0.11352797701E+03  0.18665846988E+03  0.23697651015E+03  0.77488864372E+02 0.  0.
          5    1    3    3  501    0 -0.43948329651E+02 -0.15414178661E+03 -0.75288405343E+02  0.17714846891E+03  0.47000000000E+01 0. -1.
        -11    1    4    4    0    0  0.35578074593E+01 -0.30271461466E+01 -0.86867824334E+02  0.86993336022E+02  0.00000000000E+00 0.  1.
         12    1    4    4    0    0 -0.47350114753E+02 -0.20818528962E+02 -0.19935757062E+02  0.55433554143E+02  0.00000000000E+00 0. -1.
         -5    1    5    5    0  502  0.38513039776E+02  0.64459484715E+02 -0.14979622702E+02  0.76712179598E+02  0.47000000000E+01 0.  1.
         11    1    6    6    0    0  0.31695966257E+02  0.21572478707E+01  0.56147809194E+02  0.64512514077E+02  0.00000000000E+00 0. -1.
        -12    1    6    6    0    0  0.17531630913E+02  0.11137072914E+03  0.13051066068E+03  0.17246399608E+03  0.00000000000E+00 0.  1.
</event>
<event>
12    1  0.8133495E-002  0.1899592E+03  0.7818608E-02  0.1159133E+00
         21   -1    0    0  503  502  0.00000000000E+00  0.00000000000E+00  0.95025010739E+02  0.95025010739E+02  0.00000000000E+00 0. -1.
         21   -1    0    0  501  503 -0.00000000000E+00 -0.00000000000E+00 -0.44813132404E+03  0.44813132404E+03  0.00000000000E+00 0. -1.
          6    2    1    2  501    0 -0.86001213678E+02  0.50716147732E+01 -0.28578441629E+03  0.34162036051E+03  0.16616199352E+03 0.  0.
         24    2    3    3    0    0 -0.62285695822E+02 -0.43463877528E+02 -0.25419049924E+03  0.27886380393E+03  0.85927845782E+02 0.  0.
         -6    2    1    2    0  502  0.86001213678E+02 -0.50716147732E+01 -0.67321897011E+02  0.20153597427E+03  0.16930026898E+03 0.  0.
        -24    2    5    5    0    0  0.53379729587E+02 -0.45225422901E+02  0.12302050635E+02  0.10646467171E+03  0.79301018060E+02 0.  0.
          5    1    3    3  501    0 -0.23715517856E+02  0.48535492301E+02 -0.31593917049E+02  0.62756556586E+02  0.47000000000E+01 0. -1.
        -11    1    4    4    0    0  0.19995322156E+02 -0.21471407772E+02 -0.58616865118E+02  0.65549760763E+02  0.00000000000E+00 0.  1.
         12    1    4    4    0    0 -0.82281017979E+02 -0.21992469756E+02 -0.19557363413E+03  0.21331404316E+03  0.00000000000E+00 0. -1.
         -5    1    5    5    0  502  0.32621484091E+02  0.40153808128E+02 -0.79623947646E+02  0.95071302559E+02  0.47000000000E+01 0.  1.
         11    1    6    6    0    0  0.52221607801E+02 -0.22230861344E+02  0.40747642540E+02  0.69869005217E+02  0.00000000000E+00 0. -1.
        -12    1    6    6    0    0  0.11581217859E+01 -0.22994561557E+02 -0.28445591905E+02  0.36595666494E+02  0.00000000000E+00 0.  1.
</event>
<event>
12    1  0.8133495E-002  0.1883390E+03  0.7818608E-02  0.1160428E+00
         21   -1    0    0  503  502  0.00000000000E+00  0.00000000000E+00  0.82450230146E+02  0.82450230146E+02  0.00000000000E+00 0.  1.
         21   -1    0    0  501  503 -0.00000000000E+00 -0.00000000000E+00 -0.50977229669E+03  0.50977229669E+03  0.00000000000E+00 0.  1.
          6    2    1    2  501    0  0.46271048897E+01 -0.73686905032E+02 -0.92415068206E+02  0.20799045093E+03  0.17107984327E+03 0.  0.
         24    2    3    3    0    0  0.11934851151E+02 -0.53721177253E+02  0.15312889891E+02  0.98083961599E+02  0.79734392634E+02 0.  0.
         -6    2    1    2    0  502 -0.46271048897E+01  0.73686905032E+02 -0.33490699834E+03  0.38423207591E+03  0.17326401977E+03 0.  0.
        -24    2    5    5    0    0 -0.17856760378E+01  0.11659336952E+03 -0.26054068806E+03  0.29820024159E+03  0.86282857466E+02 0.  0.
          5    1    3    3  501    0 -0.73077462614E+01 -0.19965727779E+02 -0.10772795810E+03  0.10990648933E+03  0.47000000000E+01 0. -1.
        -11    1    4    4    0    0  0.38445089142E+02 -0.58439687530E+02  0.11391204117E+02  0.70872995484E+02  0.00000000000E+00 0.  1.
         12    1    4    4    0    0 -0.26510237991E+02  0.47185102766E+01  0.39216857739E+01  0.27210966114E+02  0.00000000000E+00 0. -1.
         -5    1    5    5    0  502 -0.28414288519E+01 -0.42906464484E+02 -0.74366310276E+02  0.86031834320E+02  0.47000000000E+01 0.  1.
         13    1    6    6    0    0  0.40351296384E+02  0.51871057155E+02 -0.94821513860E+02  0.11536877039E+03  0.00000000000E+00 0. -1.
        -14    1    6    6    0    0 -0.42136972422E+02  0.64722312361E+02 -0.16571917420E+03  0.18283147120E+03  0.00000000000E+00 0.  1.
</event>
<event>
12    1  0.8133495E-002  0.2385041E+03  0.7818608E-02  0.1121184E+00
         21   -1    0    0  503  502  0.00000000000E+00  0.00000000000E+00  0.24800887461E+03  0.24800887461E+03  0.00000000000E+00 0.  1.
         21   -1    0    0  501  503 -0.00000000000E+00 -0.00000000000E+00 -0.42971483385E+03  0.42971483385E+03  0.00000000000E+00 0.  1.
          6    2    1    2  501    0  0.62725227464E+02 -0.15379911640E+03 -0.32374730974E+03  0.40211503793E+03  0.17115946017E+03 0.  0.
         24    2    3    3    0    0  0.70305008712E+02 -0.15779651108E+03 -0.19000139711E+03  0.26801249735E+03  0.76730923835E+02 0.  0.
         -6    2    1    2    0  502 -0.62725227464E+02  0.15379911640E+03  0.14204135050E+03  0.27560867053E+03  0.16791596604E+03 0.  0.
        -24    2    5    5    0    0 -0.22716051423E+02  0.15990705536E+03  0.14765049692E+03  0.23447968307E+03  0.84224504675E+02 0.  0.
          5    1    3    3  501    0 -0.75797812473E+01  0.39973946775E+01 -0.13374591263E+03  0.13410254059E+03  0.47000000000E+01 0. -1.
        -13    1    4    4    0    0  0.76337831818E+02 -0.96430650231E+02 -0.15221872133E+03  0.19569587118E+03  0.00000000000E+00 0.  1.
         14    1    4    4    0    0 -0.60328231067E+01 -0.61365860847E+02 -0.37782675776E+02  0.72316626172E+02  0.00000000000E+00 0. -1.
         -5    1    5    5    0  502 -0.40009176041E+02 -0.61079389553E+01 -0.56091464181E+01  0.41128987458E+02  0.47000000000E+01 0.  1.
         11    1    6    6    0    0  0.19881074058E+02  0.10976029000E+03  0.65968619930E+02  0.12959335315E+03  0.00000000000E+00 0. -1.
        -12    1    6    6    0    0 -0.42597125481E+02  0.50146765359E+02  0.81681876989E+02  0.10488632992E+03  0.00000000000E+00 0.  1.
</event>
<event>
12    1  0.8133495E-002  0.2258552E+03  0.7818608E-02  0.1129806E+00
         21   -1    0    0  503  502  0.00000000000E+00  0.00000000000E+00  0.12322915283E+03  0.12322915283E+03  0.00000000000E+00 0. -1.
         21   -1    0    0  501  503 -0.00000000000E+00 -0.00000000000E+00 -0.41611210254E+03  0.41611210254E+03  0.00000000000E+00 0.  1.
          6    2    1    2  501    0 -0.26201707804E+02 -0.14375051385E+03 -0.17435353343E+03  0.28532387419E+03  0.17222026257E+03 0.  0.
         24    2    3    3    0    0  0.33218731885E+02 -0.11227247410E+03 -0.15715249072E+03  0.21575648593E+03  0.90251666419E+02 0.  0.
         -6    2    1    2    0  502  0.26201707804E+02  0.14375051385E+03 -0.11852941628E+03  0.25401738119E+03  0.17066009404E+03 0.  0.
        -24    2    5    5    0    0 -0.13811144917E+02  0.14481885870E+03 -0.13261695106E+03  0.21132407516E+03  0.76859348659E+02 0.  0.
          5    1    3    3  501    0 -0.59420439689E+02 -0.31478039754E+02 -0.17201042707E+02  0.69567388263E+02  0.47000000000E+01 0. -1.
        -11    1    4    4    0    0 -0.10189966406E+01  0.91160712685E+01 -0.48272819763E+02  0.49136607915E+02  0.00000000000E+00 0.  1.
         12    1    4    4    0    0  0.34237728526E+02 -0.12138854537E+03 -0.10887967096E+03  0.16661987801E+03  0.00000000000E+00 0. -1.
         -5    1    5    5    0  502  0.40012852721E+02 -0.10683448460E+01  0.14087534775E+02  0.42693306029E+02  0.47000000000E+01 0.  1.
         13    1    6    6    0    0  0.75421794812E+01 -0.32170412349E+01  0.36631367155E+01  0.89806679167E+01  0.00000000000E+00 0. -1.
        -14    1    6    6    0    0 -0.21353324398E+02  0.14803589993E+03 -0.13628008777E+03  0.20234340724E+03  0.00000000000E+00 0.  1.
</event>
<event>
12    1  0.8133495E-002  0.1778042E+03  0.7818608E-02  0.1170385E+00
         21   -1    0    0  503  502  0.00000000000E+00  0.00000000000E+00  0.94889301405E+02  0.94889301405E+02  0.00000000000E+00 0.  1.
         21   -1    0    0  501  503 -0.00000000000E+00 -0.00000000000E+00 -0.36193882954E+03  0.36193882954E+03  0.00000000000E+00 0.  1.
          6    2    1    2  501    0 -0.12871363123E+02  0.35445264917E+02 -0.20215285551E+03  0.26922128918E+03  0.17375927821E+03 0.  0.
         24    2    3    3    0    0  0.11874848139E+02  0.67327832172E+01 -0.18935485584E+02  0.82065000965E+02  0.78675087422E+02 0.  0.
         -6    2    1    2    0  502  0.12871363123E+02 -0.35445264917E+02 -0.64896672628E+02  0.18760684176E+03  0.17193809981E+03 0.  0.
        -24    2    5    5    0    0  0.30944962099E+01  0.17515354814E+02 -0.95309493114E+02  0.12557907364E+03  0.79811281763E+02 0.  0.
          5    1    3    3  501    0 -0.24746211262E+02  0.28712481700E+02 -0.18321736992E+03  0.18715628822E+03  0.47000000000E+01 0. -1.
        -13    1    4    4    0    0  0.16451955629E+02  0.35514034866E+02 -0.31585783675E+02  0.50294882909E+02  0.00000000000E+00 0.  1.
         14    1    4    4    0    0 -0.45771074902E+01 -0.28781251649E+02  0.12650298091E+02  0.31770118055E+02  0.00000000000E+00 0. -1.
         -5    1    5    5    0  502  0.97768669129E+01 -0.52960619731E+02  0.30412820486E+02  0.62027768127E+02  0.47000000000E+01 0.  1.
         11    1    6    6    0    0  0.24581567910E+02  0.42043939067E+02 -0.63485306384E+02  0.80014563798E+02  0.00000000000E+00 0. -1.
        -12    1    6    6    0    0 -0.21487071701E+02 -0.24528584253E+02 -0.31824186730E+02  0.45564509838E+02  0.00000000000E+00 0.  1.
</event>
<event>
12    1  0.8133495E-002  0.2076671E+03  0.7818608E-02  0.1144131E+00
         21   -1    0    0  501  502  0.00000000000E+00  0.00000000000E+00  0.19258436585E+02  0.19258436585E+02  0.00000000000E+00 0.  1.
         21   -1    0    0  502  503 -0.00000000000E+00 -0.00000000000E+00 -0.23363109914E+04  0.23363109914E+04  0.00000000000E+00 0.  1.
         -6    2    1    2    0  503 -0.10587282365E+03 -0.27167022758E+02 -0.14501359883E+04  0.14649300418E+04  0.17657446261E+03 0.  0.
        -24    2    3    3    0    0 -0.89703156495E+02 -0.84881464548E+02 -0.10235294133E+04  0.10341079500E+04  0.80717241506E+02 0.  0.
          6    2    1    2  501    0  0.10587282365E+03  0.27167022758E+02 -0.86691656645E+03  0.89063938614E+03  0.17247342125E+03 0.  0.
         24    2    5    5    0    0  0.76995606874E+01  0.41651418558E+02 -0.58042011440E+03  0.58740664661E+03  0.79780545125E+02 0.  0.
          5    1    5    5  501    0  0.98173262962E+02 -0.14484395800E+02 -0.28649645205E+03  0.30323273952E+03  0.47000000000E+01 0. -1.
        -11    1    6    6    0    0  0.36711620901E+02  0.30344295127E+02 -0.19506575010E+03  0.20079633019E+03  0.00000000000E+00 0.  1.
         12    1    6    6    0    0 -0.29012060213E+02  0.11307123431E+02 -0.38535436430E+03  0.38661031642E+03  0.00000000000E+00 0. -1.
         -5    1    3    3    0  503 -0.16169667155E+02  0.57714441790E+02 -0.42660657506E+03  0.43082209183E+03  0.47000000000E+01 0.  1.
         11    1    4    4    0    0 -0.10016875400E+02  0.14701853288E+02 -0.77240967120E+02  0.79263164739E+02  0.00000000000E+00 0. -1.
        -12    1    4    4    0    0 -0.79686281095E+02 -0.99583317837E+02 -0.94628844616E+03  0.95484478525E+03  0.00000000000E+00 0.  1.
</event>
<event>
12    1  0.8133495E-002  0.2190768E+03  0.7818608E-02  0.1136718E+00
         21   -1    0    0  501  502  0.00000000000E+00  0.00000000000E+00  0.17991327747E+03  0.17991327747E+03  0.00000000000E+00 0.  1.
         21   -1    0    0  502  503 -0.00000000000E+00 -0.00000000000E+00 -0.26552741612E+03  0.26552741612E+03  0.00000000000E+00 0. -1.
         -6    2    1    2    0  503  0.10866384585E+03  0.77868661903E+02 -0.89353495513E+02  0.22633200640E+03  0.15928204562E+03 0.  0.
        -24    2    3    3    0    0  0.13097618496E+03  0.61163091285E+02 -0.10314513294E+03  0.19488020472E+03  0.80272604168E+02 0.  0.
          6    2    1    2  501    0 -0.10866384585E+03 -0.77868661903E+02  0.37393568589E+01  0.21910868720E+03  0.17356057765E+03 0.  0.
         24    2    5    5    0    0 -0.54282499029E+02 -0.56139234293E+01  0.57492671135E+02  0.11380157960E+03  0.81653453382E+02 0.  0.
          5    1    5    5  501    0 -0.54381346821E+02 -0.72254738473E+02 -0.53753314276E+02  0.10530710759E+03  0.47000000000E+01 0. -1.
        -13    1    6    6    0    0  0.18911936091E+01  0.27280704350E+02  0.60834667390E+00  0.27352943694E+02  0.00000000000E+00 0.  1.
         14    1    6    6    0    0 -0.56173692638E+02 -0.32894627779E+02  0.56884324461E+02  0.86448635910E+02  0.00000000000E+00 0. -1.
         -5    1    3    3    0  503 -0.22312339106E+02  0.16705570618E+02  0.13791637427E+02  0.31451801681E+02  0.47000000000E+01 0.  1.
         13    1    4    4    0    0  0.65516222305E+02 -0.36696135513E+01 -0.72498601451E+02  0.97784910191E+02  0.00000000000E+00 0. -1.
        -14    1    4    4    0    0  0.65459962651E+02  0.64832704836E+02 -0.30646531489E+02  0.97095294525E+02  0.00000000000E+00 0.  1.
</event>
<event>
12    1  0.8133495E-002  0.1873594E+03  0.7818608E-02  0.1161832E+00
         21   -1    0    0  501  502  0.00000000000E+00  0.00000000000E+00  0.35404770528E+02  0.35404770528E+02  0.00000000000E+00 0. -1.
         21   -1    0    0  502  503 -0.00000000000E+00 -0.00000000000E+00 -0.11840555294E+04  0.11840555294E+04  0.00000000000E+00 0. -1.
         -6    2    1    2    0  503  0.12168062584E+02 -0.62874024631E+02 -0.30955730547E+03  0.35970373400E+03  0.17163870824E+03 0.  0.
        -24    2    3    3    0    0 -0.24399274781E+02  0.11668688045E+02 -0.22096386143E+03  0.23819375704E+03  0.84733434627E+02 0.  0.
          6    2    1    2  501    0 -0.12168062584E+02  0.62874024631E+02 -0.83909345336E+03  0.85975656588E+03  0.17607476931E+03 0.  0.
         24    2    5    5    0    0 -0.10173012680E+01  0.13136316279E+02 -0.16564426965E+03  0.18436477429E+03  0.79867065954E+02 0.  0.
          5    1    5    5  501    0 -0.11150761316E+02  0.49737708351E+02 -0.67344918371E+03  0.67539179160E+03  0.47000000000E+01 0. -1.
        -13    1    6    6    0    0 -0.96152553379E+01  0.42347874047E+02 -0.13212874243E+03  0.13908199074E+03  0.00000000000E+00 0.  1.
         14    1    6    6    0    0  0.85979540700E+01 -0.29211557768E+02 -0.33515527220E+02  0.45282783552E+02  0.00000000000E+00 0. -1.
         -5    1    3    3    0  503  0.36567337365E+02 -0.74542712675E+02 -0.88593444035E+02  0.12150997696E+03  0.47000000000E+01 0.  1.
         11    1    4    4    0    0 -0.36193636426E+02 -0.23627646330E+01 -0.32078220970E+02  0.48420803742E+02  0.00000000000E+00 0. -1.
        -12    1    4    4    0    0  0.11794361645E+02  0.14031452678E+02 -0.18888564046E+03  0.18977295330E+03  0.00000000000E+00 0.  1.
</event>
<event>
12    1  0.8133495E-002  0.2213726E+03  0.7818608E-02  0.1134783E+00
         21   -1    0    0  503  502  0.00000000000E+00  0.00000000000E+00  0.14352473335E+03  0.14352473335E+03  0.00000000000E+00 0.  1.
         21   -1    0    0  501  503 -0.00000000000E+00 -0.00000000000E+00 -0.36337939788E+03  0.36337939788E+03  0.00000000000E+00 0.  1.
          6    2    1    2  501    0 -0.12423691398E+03 -0.61261337563E+02 -0.18887727443E+03  0.28337462125E+03  0.15949541968E+03 0.  0.
         24    2    3    3    0    0 -0.17431628637E+02 -0.36473059143E+02 -0.39611422653E+02  0.98106674129E+02  0.80135566286E+02 0.  0.
         -6    2    1    2    0  502  0.12423691398E+03  0.61261337563E+02 -0.30977390108E+02  0.22352950998E+03  0.17267912687E+03 0.  0.
        -24    2    5    5    0    0  0.63076228900E+01 -0.13480306205E+02 -0.13537667928E+02  0.82746467959E+02  0.80263346210E+02 0.  0.
          5    1    3    3  501    0 -0.10680528535E+03 -0.24788278420E+02 -0.14926585177E+03  0.18526794712E+03  0.47000000000E+01 0. -1.
        -11    1    4    4    0    0 -0.48595674409E+02 -0.21659912448E+02 -0.13655535716E+02  0.54928726858E+02  0.00000000000E+00 0.  1.
         12    1    4    4    0    0  0.31164045772E+02 -0.14813146694E+02 -0.25955886937E+02  0.43177947271E+02  0.00000000000E+00 0. -1.
         -5    1    5    5    0  502  0.11792929110E+03  0.74741643768E+02 -0.17439722180E+02  0.14078304202E+03  0.47000000000E+01 0.  1.
         11    1    6    6    0    0 -0.27826473875E+02  0.11130017054E+02 -0.25115191657E+02  0.39101953658E+02  0.00000000000E+00 0. -1.
        -12    1    6    6    0    0  0.34134096765E+02 -0.24610323259E+02  0.11577523729E+02  0.43644514301E+02  0.00000000000E+00 0.  1.
</event>
<event>
12    1  0.8133495E-002  0.3855379E+03  0.7818608E-02  0.1048966E+00
         21   -1    0    0  501  502  0.00000000000E+00  0.00000000000E+00  0.43633484501E+03  0.43633484501E+03  0.00000000000E+00 0.  1.
         21   -1    0    0  502  503 -0.00000000000E+00 -0.00000000000E+00 -0.48365431017E+03  0.48365431017E+03  0.00000000000E+00 0. -1.
         -6    2    1    2    0  503  0.34335361460E+03 -0.27087274256E+02 -0.27427975336E+03  0.47260738219E+03  0.17176416831E+03 0.  0.
        -24    2    3    3    0    0  0.33167432406E+03 -0.60338179878E+02 -0.23156091262E+03  0.41702844817E+03  0.81509000405E+02 0.  0.
          6    2    1    2  501    0 -0.34335361460E+03  0.27087274256E+02  0.22696028820E+03  0.44738177299E+03  0.17324564438E+03 0.  0.
         24    2    5    5    0    0 -0.33112939528E+03  0.51221614243E+02  0.17101403247E+03  0.38506025636E+03  0.82190458949E+02 0.  0.
          5    1    5    5  501    0 -0.12224219323E+02 -0.24134339987E+02  0.55946255731E+02  0.62321516629E+02  0.47000000000E+01 0. -1.
        -13    1    6    6    0    0 -0.12023041093E+03  0.16414254128E+02  0.10738697996E+03  0.16203932521E+03  0.00000000000E+00 0.  1.
         14    1    6    6    0    0 -0.21089898435E+03  0.34807360115E+02  0.63627052510E+02  0.22302093115E+03  0.00000000000E+00 0. -1.
         -5    1    3    3    0  503  0.11679290548E+02  0.33250905622E+02 -0.42718840741E+02  0.55578934018E+02  0.47000000000E+01 0.  1.
         11    1    4    4    0    0  0.43386552521E+02 -0.23531014020E+02 -0.66445803029E+02  0.82771651552E+02  0.00000000000E+00 0. -1.
        -12    1    4    4    0    0  0.28828777153E+03 -0.36807165857E+02 -0.16511510959E+03  0.33425679662E+03  0.00000000000E+00 0.  1.
</event>
<event>
12    1  0.8133495E-002  0.3567025E+03  0.7818608E-02  0.1060011E+00
         21   -1    0    0  503  502  0.00000000000E+00  0.00000000000E+00  0.40895790066E+03  0.40895790066E+03  0.00000000000E+00 0. -1.
         21   -1    0    0  501  503 -0.00000000000E+00 -0.00000000000E+00 -0.41742083188E+03  0.41742083188E+03  0.00000000000E+00 0.  1.
          6    2    1    2  501    0 -0.30078344856E+03  0.84815341007E+02 -0.21370443305E+03  0.41484412079E+03  0.16959285024E+03 0.  0.
         24    2    3    3    0    0 -0.11322279007E+03  0.58293954111E+02 -0.15648520936E+03  0.21690848950E+03  0.79649775838E+02 0.  0.
         -6    2    1    2    0  502  0.30078344856E+03 -0.84815341007E+02  0.20524150184E+03  0.41153461174E+03  0.17196609431E+03 0.  0.
        -24    2    5    5    0    0  0.27298719282E+03 -0.19223672494E+02  0.15894636171E+03  0.32644507766E+03  0.80068007351E+02 0.  0.
          5    1    3    3  501    0 -0.18756065849E+03  0.26521386896E+02 -0.57219223695E+02  0.19793563130E+03  0.47000000000E+01 0. -1.
        -13    1    4    4    0    0 -0.94569851676E+02  0.68845159730E+02 -0.91588798430E+02  0.14856520744E+03  0.00000000000E+00 0.  1.
         14    1    4    4    0    0 -0.18652938392E+02 -0.10551205619E+02 -0.64896410928E+02  0.68343282055E+02  0.00000000000E+00 0. -1.
         -5    1    5    5    0  502  0.27796255743E+02 -0.65591668513E+02  0.46295140127E+02  0.85089534086E+02  0.47000000000E+01 0.  1.
         11    1    6    6    0    0  0.37771420698E+02 -0.16916212757E+02  0.56108017369E+02  0.69720499774E+02  0.00000000000E+00 0. -1.
        -12    1    6    6    0    0  0.23521577212E+03 -0.23074597368E+01  0.10283834434E+03  0.25672457788E+03  0.00000000000E+00 0.  1.
</event>
<event>
12    1  0.8133495E-002  0.2027821E+03  0.7818608E-02  0.1147640E+00
         21   -1    0    0  501  502  0.00000000000E+00  0.00000000000E+00  0.49263730887E+02  0.49263730887E+02  0.00000000000E+00 0. -1.
         21   -1    0    0  502  503 -0.00000000000E+00 -0.00000000000E+00 -0.15143452250E+04  0.15143452250E+04  0.00000000000E+00 0.  1.
         -6    2    1    2    0  503  0.83348464748E+02  0.67918283877E+02 -0.12591059377E+04  0.12753306720E+04  0.17193225578E+03 0.  0.
        -24    2    3    3    0    0  0.35398739458E+02 -0.16945855805E+02 -0.35780637368E+03  0.36876346954E+03  0.80130285400E+02 0.  0.
          6    2    1    2  501    0 -0.83348464748E+02 -0.67918283877E+02 -0.20597555637E+03  0.28827828391E+03  0.17064166926E+03 0.  0.
         24    2    5    5    0    0 -0.57311593747E+02  0.24152451314E+02 -0.13379658193E+03  0.16833315778E+03  0.81034356848E+02 0.  0.
          5    1    5    5  501    0 -0.26036871001E+02 -0.92070735192E+02 -0.72178974444E+02  0.11994512613E+03  0.47000000000E+01 0. -1.
        -11    1    6    6    0    0 -0.74053498572E+02  0.33594198780E+02 -0.11874806707E+03  0.14392218132E+03  0.00000000000E+00 0.  1.
         12    1    6    6    0    0  0.16741904825E+02 -0.94417474659E+01 -0.15048514862E+02  0.24410976464E+02  0.00000000000E+00 0. -1.
         -5    1    3    3    0  503  0.47949725290E+02  0.84864139682E+02 -0.90129956407E+03  0.90656720244E+03  0.47000000000E+01 0.  1.
         13    1    4    4    0    0  0.41791186043E+02  0.20028773530E+02 -0.13289558947E+03  0.14074406809E+03  0.00000000000E+00 0. -1.
        -14    1    4    4    0    0 -0.63924465842E+01 -0.36974629335E+02 -0.22491078420E+03  0.22801940145E+03  0.00000000000E+00 0.  1.
</event>
<event>
12    1  0.8133495E-002  0.1774600E+03  0.7818608E-02  0.1170364E+00
         21   -1    0    0  501  502  0.00000000000E+00  0.00000000000E+00  0.22251967266E+03  0.22251967266E+03  0.00000000000E+00 0.  1.
         21   -1    0    0  502  503 -0.00000000000E+00 -0.00000000000E+00 -0.14825103564E+03  0.14825103564E+03  0.00000000000E+00 0.  1.
         -6    2    1    2    0  503 -0.40777855243E+02 -0.21138653177E+01 -0.31327530332E+01  0.17716535041E+03  0.17236718174E+03 0.  0.
        -24    2    3    3    0    0 -0.23914309501E+01 -0.39604274412E+02 -0.53158594467E+02  0.10365532963E+03  0.79651576896E+02 0.  0.
          6    2    1    2  501    0  0.40777855243E+02  0.21138653177E+01  0.77401390050E+02  0.19360535788E+03  0.17269845834E+03 0.  0.
         24    2    5    5    0    0  0.74241438933E+02  0.26167708216E+02  0.17628713457E+01  0.10734021832E+03  0.72953920702E+02 0.  0.
          5    1    5    5  501    0 -0.33463583690E+02 -0.24053842899E+02  0.75638518705E+02  0.86265139561E+02  0.47000000000E+01 0. -1.
        -11    1    6    6    0    0  0.85950699669E+02  0.26707015763E+02  0.13195325926E+02  0.90966499827E+02  0.00000000000E+00 0.  1.
         12    1    6    6    0    0 -0.11709260736E+02 -0.53930754678E+00 -0.11432454580E+02  0.16373718494E+02  0.00000000000E+00 0. -1.
         -5    1    3    3    0  503 -0.38386424293E+02  0.37490409094E+02  0.50025841434E+02  0.73510020781E+02  0.47000000000E+01 0.  1.
         13    1    4    4    0    0  0.38642119542E+02 -0.18734038946E+02 -0.26282540686E+02  0.50348282620E+02  0.00000000000E+00 0. -1.
        -14    1    4    4    0    0 -0.41033550492E+02 -0.20870235466E+02 -0.26876053781E+02  0.53307047013E+02  0.00000000000E+00 0.  1.
</event>
<event>
12    1  0.8133495E-002  0.2208120E+03  0.7818608E-02  0.1133667E+00
         21   -1    0    0  503  502  0.00000000000E+00  0.00000000000E+00  0.15316901651E+03  0.15316901651E+03  0.00000000000E+00 0. -1.
         21   -1    0    0  501  503 -0.00000000000E+00 -0.00000000000E+00 -0.44227203642E+03  0.44227203642E+03  0.00000000000E+00 0.  1.
          6    2    1    2  501    0  0.64798788793E+02  0.11986069052E+03 -0.30453705302E+03  0.37616584044E+03  0.17375976142E+03 0.  0.
         24    2    3    3    0    0  0.10289203585E+01  0.12597859860E+03 -0.16380830397E+03  0.22147034687E+03  0.79651039611E+02 0.  0.
         -6    2    1    2    0  502 -0.64798788793E+02 -0.11986069052E+03  0.15434033118E+02  0.21927521249E+03  0.17110798133E+03 0.  0.
        -24    2    5    5    0    0 -0.27801546408E+02 -0.24614222366E+01 -0.27984129929E+02  0.88666594786E+02  0.79370453702E+02 0.  0.
          5    1    3    3  501    0  0.63769868434E+02 -0.61179080875E+01 -0.14072874905E+03  0.15469549357E+03  0.47000000000E+01 0. -1.
        -11    1    4    4    0    0  0.19349248587E+01 -0.95199031554E+01 -0.27948669787E+02  0.29588859950E+02  0.00000000000E+00 0.  1.
         12    1    4    4    0    0 -0.90600450025E+00  0.13549850176E+03 -0.13585963418E+03  0.19188148692E+03  0.00000000000E+00 0. -1.
         -5    1    5    5    0  502 -0.36997242385E+02 -0.11739926828E+03  0.43418163047E+02  0.13060861771E+03  0.47000000000E+01 0.  1.
         11    1    6    6    0    0 -0.12012960790E+02 -0.83937080635E+01  0.27235840593E+02  0.30928248816E+02  0.00000000000E+00 0. -1.
        -12    1    6    6    0    0 -0.15788585619E+02  0.59322858269E+01 -0.55219970521E+02  0.57738345970E+02  0.00000000000E+00 0.  1.
</event>
<event>
12    1  0.8133495E-002  0.1781891E+03  0.7818608E-02  0.1169573E+00
         21   -1    0    0  501  502  0.00000000000E+00  0.00000000000E+00  0.10243112245E+04  0.10243112245E+04  0.00000000000E+00 0. -1.
         21   -1    0    0  502  503 -0.00000000000E+00 -0.00000000000E+00 -0.36365602169E+02  0.36365602169E+02  0.00000000000E+00 0. -1.
         -6    2    1    2    0  503 -0.47661658154E+02 -0.57317831187E+01  0.29016742759E+03  0.34051212244E+03  0.17160093969E+03 0.  0.
        -24    2    3    3    0    0 -0.42028475209E+02 -0.35883382288E+02  0.29237665206E+03  0.30940227906E+03  0.84803618815E+02 0.  0.
          6    2    1    2  501    0  0.47661658154E+02  0.57317831187E+01  0.69777819470E+03  0.72016470418E+03  0.17157594573E+03 0.  0.
         24    2    5    5    0    0  0.34008232339E+02 -0.40982928366E+02  0.23670793691E+03  0.25650906373E+03  0.83247174693E+02 0.  0.
          5    1    5    5  501    0  0.13653425815E+02  0.46714711484E+02  0.46107025779E+03  0.46365564045E+03  0.47000000000E+01 0. -1.
        -13    1    6    6    0    0 -0.72780033528E+01 -0.53690545832E+02  0.15303393229E+03  0.16234231881E+03  0.00000000000E+00 0.  1.
         14    1    6    6    0    0  0.41286235692E+02  0.12707617466E+02  0.83674004614E+02  0.94166744913E+02  0.00000000000E+00 0. -1.
         -5    1    3    3    0  503 -0.56331829450E+01  0.30151599169E+02 -0.22092244742E+01  0.31109843383E+02  0.47000000000E+01 0.  1.
         13    1    4    4    0    0 -0.54548409311E+02 -0.35315791698E+02  0.28928504388E+03  0.29649379541E+03  0.00000000000E+00 0. -1.
        -14    1    4    4    0    0  0.12519934101E+02 -0.56759059009E+00  0.30916081749E+01  0.12908483648E+02  0.00000000000E+00 0.  1.
</event>
<event>
12    1  0.8133495E-002  0.1775401E+03  0.7818608E-02  0.1170602E+00
         21   -1    0    0  503  502  0.00000000000E+00  0.00000000000E+00  0.19893362398E+04  0.19893362398E+04  0.00000000000E+00 0. -1.
         21   -1    0    0  501  503 -0.00000000000E+00 -0.00000000000E+00 -0.18657417176E+02  0.18657417176E+02  0.00000000000E+00 0. -1.
          6    2    1    2  501    0  0.38601367104E+02 -0.13837518631E+02  0.58950821868E+03  0.61566260132E+03  0.17273956210E+03 0.  0.
         24    2    3    3    0    0  0.21370022020E+02  0.11440589185E+02  0.57536961562E+03  0.58163478792E+03  0.81616585467E+02 0.  0.
         -6    2    1    2    0  502 -0.38601367104E+02  0.13837518631E+02  0.13811706039E+04  0.13923310556E+04  0.17109058673E+03 0.  0.
        -24    2    5    5    0    0 -0.28547051440E+02  0.76049536126E+01  0.34645001878E+03  0.35753217978E+03  0.83239861874E+02 0.  0.
          5    1    3    3  501    0  0.17231345084E+02 -0.25278107816E+02  0.14138603058E+02  0.34027813397E+02  0.47000000000E+01 0. -1.
        -11    1    4    4    0    0  0.52411889143E+02  0.13737180498E+01  0.36652505713E+03  0.37025600701E+03  0.00000000000E+00 0.  1.
         12    1    4    4    0    0 -0.31041867123E+02  0.10066871135E+02  0.20884455849E+03  0.21137878091E+03  0.00000000000E+00 0. -1.
         -5    1    5    5    0  502 -0.10054315664E+02  0.62325650185E+01  0.10347205851E+04  0.10347988758E+04  0.47000000000E+01 0.  1.
         11    1    6    6    0    0 -0.22041133577E+02 -0.13124461490E+02  0.32807776123E+03  0.32907914014E+03  0.00000000000E+00 0. -1.
        -12    1    6    6    0    0 -0.65059178624E+01  0.20729415102E+02  0.18372257542E+02  0.28453039643E+02  0.00000000000E+00 0.  1.
</event>
<event>
12    1  0.8133495E-002  0.2483216E+03  0.7818608E-02  0.1114538E+00
         21   -1    0    0  503  502  0.00000000000E+00  0.00000000000E+00  0.25932488412E+03  0.25932488412E+03  0.00000000000E+00 0.  1.
         21   -1    0    0  501  503 -0.00000000000E+00 -0.00000000000E+00 -0.34207025595E+03  0.34207025595E+03  0.00000000000E+00 0. -1.
          6    2    1    2  501    0  0.10887003780E+02  0.17745607844E+03  0.12539506736E+03  0.27818620178E+03  0.17336220268E+03 0.  0.
         24    2    3    3    0    0  0.26552765934E+02  0.40178741118E+02  0.24049502734E+01  0.93147983173E+02  0.79695560522E+02 0.  0.
         -6    2    1    2    0  502 -0.10887003780E+02 -0.17745607844E+03 -0.20814043919E+03  0.32320893829E+03  0.17184990177E+03 0.  0.
        -24    2    5    5    0    0  0.53656589487E+02 -0.72786085570E+02 -0.74150342520E+02  0.14128280261E+03  0.79282489670E+02 0.  0.
          5    1    3    3  501    0 -0.15665762154E+02  0.13727733732E+03  0.12299011709E+03  0.18503821861E+03  0.47000000000E+01 0. -1.
        -11    1    4    4    0    0  0.49109550743E+02  0.46691820971E+02 -0.64180690682E+01  0.68066627141E+02  0.00000000000E+00 0.  1.
         12    1    4    4    0    0 -0.22556784810E+02 -0.65130798529E+01  0.88230193416E+01  0.25081356032E+02  0.00000000000E+00 0. -1.
         -5    1    5    5    0  502 -0.64543593266E+02 -0.10466999287E+03 -0.13399009667E+03  0.18192613568E+03  0.47000000000E+01 0.  1.
         13    1    6    6    0    0  0.51197107918E+02 -0.54046301006E+02 -0.89870067006E+02  0.11669950923E+03  0.00000000000E+00 0. -1.
        -14    1    6    6    0    0  0.24594815683E+01 -0.18739784564E+02  0.15719724486E+02  0.24583293372E+02  0.00000000000E+00 0.  1.
</event>
<event>
12    1  0.8133495E-002  0.1876083E+03  0.7818608E-02  0.1161071E+00
         21   -1    0    0  503  502  0.00000000000E+00  0.00000000000E+00  0.54347682834E+03  0.54347682834E+03  0.00000000000E+00 0. -1.
         21   -1    0    0  501  503 -0.00000000000E+00 -0.00000000000E+00 -0.64114575959E+02  0.64114575959E+02  0.00000000000E+00 0. -1.
          6    2    1    2  501    0 -0.74542094433E+02 -0.56806983036E+01  0.23730051631E+03  0.30133863333E+03  0.17001365451E+03 0.  0.
         24    2    3    3    0    0 -0.50042292490E+01 -0.56243525983E+02  0.15269747094E+03  0.18062459304E+03  0.78232662316E+02 0.  0.
         -6    2    1    2    0  502  0.74542094433E+02  0.56806983036E+01  0.24206173607E+03  0.30625277097E+03  0.17206999007E+03 0.  0.
        -24    2    5    5    0    0  0.54638824802E+02 -0.36470756534E+02  0.23719477636E+03  0.25915008969E+03  0.81128846861E+02 0.  0.
          5    1    3    3  501    0 -0.69537865184E+02  0.50562827679E+02  0.84603045369E+02  0.12071404029E+03  0.47000000000E+01 0. -1.
        -13    1    4    4    0    0 -0.29342426839E+02 -0.50314518597E+01  0.95714480966E+02  0.10023749492E+03  0.00000000000E+00 0.  1.
         14    1    4    4    0    0  0.24338197590E+02 -0.51212074123E+02  0.56982989979E+02  0.80387098125E+02  0.00000000000E+00 0. -1.
         -5    1    5    5    0  502  0.19903269631E+02  0.42151454838E+02  0.48669597035E+01  0.47102681280E+02  0.47000000000E+01 0.  1.
         11    1    6    6    0    0  0.25999112272E+01  0.11455108042E+02  0.13113735377E+03  0.13166238868E+03  0.00000000000E+00 0. -1.
        -12    1    6    6    0    0  0.52038913575E+02 -0.47925864577E+02  0.10605742259E+03  0.12748770101E+03  0.00000000000E+00 0.  1.
</event>
<event>
12    1  0.8133495E-002  0.2212908E+03  0.7818608E-02  0.1133106E+00
         21   -1    0    0  501  502  0.00000000000E+00  0.00000000000E+00  0.82861264617E+03  0.82861264617E+03  0.00000000000E+00 0.  1.
         21   -1    0    0  502  503 -0.00000000000E+00 -0.00000000000E+00 -0.58905517819E+02  0.58905517819E+02  0.00000000000E+00 0. -1.
         -6    2    1    2    0  503 -0.12305529704E+03  0.51833510037E+02  0.36890842325E+03  0.42968715938E+03  0.17523787063E+03 0.  0.
        -24    2    3    3    0    0 -0.14986339689E+03  0.62801426571E+02  0.25637753547E+03  0.31339330695E+03  0.77992738365E+02 0.  0.
          6    2    1    2  501    0  0.12305529704E+03 -0.51833510037E+02  0.40079870511E+03  0.45783100461E+03  0.17646616637E+03 0.  0.
         24    2    5    5    0    0  0.50055559659E+02 -0.35802835271E+02  0.35728831672E+03  0.37122160507E+03  0.79769271898E+02 0.  0.
          5    1    5    5  501    0  0.72999737379E+02 -0.16030674766E+02  0.43510388384E+02  0.86609399537E+02  0.47000000000E+01 0. -1.
        -13    1    6    6    0    0 -0.14595843756E+02  0.13105471968E+02  0.75117437431E+02  0.77636469888E+02  0.00000000000E+00 0.  1.
         14    1    6    6    0    0  0.64651403416E+02 -0.48908307239E+02  0.28217087929E+03  0.29358513518E+03  0.00000000000E+00 0. -1.
         -5    1    3    3    0  503  0.26808099853E+02 -0.10967916534E+02  0.11253088777E+03  0.11629385243E+03  0.47000000000E+01 0.  1.
         13    1    4    4    0    0 -0.84086384214E+02  0.28991913428E+02  0.70998903607E+02  0.11380639423E+03  0.00000000000E+00 0. -1.
        -14    1    4    4    0    0 -0.65777012677E+02  0.33809513143E+02  0.18537863187E+03  0.19958691272E+03  0.00000000000E+00 0.  1.
</event>
<event>
12    1  0.8133495E-002  0.1989062E+03  0.7818608E-02  0.1151420E+00
         21   -1    0    0  503  502  0.00000000000E+00  0.00000000000E+00  0.88927007565E+03  0.88927007565E+03  0.00000000000E+00 0.  1.
         21   -1    0    0  501  503 -0.00000000000E+00 -0.00000000000E+00 -0.93296109745E+02  0.93296109745E+02  0.00000000000E+00 0. -1.
          6    2    1    2  501    0 -0.77716834911E+02 -0.58201710044E+02  0.38152608441E+02  0.19907599184E+03  0.16955318786E+03 0.  0.
         24    2    3    3    0    0 -0.70703494453E+02  0.99236833403E+01  0.63537845855E+02  0.12588612610E+03  0.81931649987E+02 0.  0.
         -6    2    1    2    0  502  0.77716834911E+02  0.58201710044E+02  0.75782135746E+03  0.78349019356E+03  0.17359817997E+03 0.  0.
        -24    2    5    5    0    0  0.11607773247E+03  0.18388446739E+02  0.37748260777E+03  0.39912538129E+03  0.54733681261E+02 0.  0.
          5    1    3    3  501    0 -0.70133404577E+01 -0.68125393384E+02 -0.25385237414E+02  0.73189865738E+02  0.47000000000E+01 0. -1.
        -13    1    4    4    0    0 -0.11129131463E+02  0.31998787930E+02 -0.28470482530E+01  0.33998318780E+02  0.00000000000E+00 0.  1.
         14    1    4    4    0    0 -0.59574362990E+02 -0.22075104590E+02  0.66384894108E+02  0.91887807320E+02  0.00000000000E+00 0. -1.
         -5    1    5    5    0  502 -0.38360897563E+02  0.39813263305E+02  0.38033874969E+03  0.38436481227E+03  0.47000000000E+01 0.  1.
         11    1    6    6    0    0  0.36078260408E+02  0.29835303985E+02  0.17383422436E+03  0.18002811946E+03  0.00000000000E+00 0. -1.
        -12    1    6    6    0    0  0.79999472066E+02 -0.11446857246E+02  0.20364838342E+03  0.21909726183E+03  0.00000000000E+00 0.  1.
</event>
<event>
12    1  0.8133495E-002  0.2683406E+03  0.7818608E-02  0.1102706E+00
         21   -1    0    0  503  502  0.00000000000E+00  0.00000000000E+00  0.10072380461E+03  0.10072380461E+03  0.00000000000E+00 0. -1.
         21   -1    0    0  501  503 -0.00000000000E+00 -0.00000000000E+00 -0.77311743728E+03  0.77311743728E+03  0.00000000000E+00 0. -1.
          6    2    1    2  501    0  0.17735661539E+03  0.10235449457E+03 -0.46282492652E+03  0.53336254990E+03  0.16833563331E+03 0.  0.
         24    2    3    3    0    0  0.99368243833E+02  0.12888651661E+03 -0.34389738196E+03  0.38861454422E+03  0.79183790090E+02 0.  0.
         -6    2    1    2    0  502 -0.17735661539E+03 -0.10235449457E+03 -0.20956870615E+03  0.34047869200E+03  0.17342112192E+03 0.  0.
        -24    2    5    5    0    0 -0.17684263876E+03 -0.13371315603E+03 -0.17684330404E+03  0.29490817781E+03  0.80899642607E+02 0.  0.
          5    1    3    3  501    0  0.77988371559E+02 -0.26532022044E+02 -0.11892754456E+03  0.14474800568E+03  0.47000000000E+01 0. -1.
        -11    1    4    4    0    0 -0.87969475719E+01  0.32069179022E+02 -0.41510733599E+02  0.53187964181E+02  0.00000000000E+00 0.  1.
         12    1    4    4    0    0  0.10816519140E+03  0.96817337592E+02 -0.30238664836E+03  0.33542658004E+03  0.00000000000E+00 0. -1.
         -5    1    5    5    0  502 -0.51397662835E+00  0.31358661459E+02 -0.32725402109E+02  0.45570514191E+02  0.47000000000E+01 0.  1.
         13    1    6    6    0    0 -0.99276787276E+02 -0.62656455861E+02 -0.43794486139E+02  0.12529831990E+03  0.00000000000E+00 0. -1.
        -14    1    6    6    0    0 -0.77565851487E+02 -0.71056700168E+02 -0.13304881790E+03  0.16960985791E+03  0.00000000000E+00 0.  1.
</event>
<event>
12    1  0.8133495E-002  0.1799153E+03  0.7818608E-02  0.1167934E+00
         21   -1    0    0  503  502  0.00000000000E+00  0.00000000000E+00  0.97602323647E+03  0.97602323647E+03  0.00000000000E+00 0. -1.
         21   -1    0    0  501  503 -0.00000000000E+00 -0.00000000000E+00 -0.86580858495E+02  0.86580858495E+02  0.00000000000E+00 0. -1.
          6    2    1    2  501    0 -0.35457900608E+02  0.36379568205E+02  0.27162966722E+02  0.18175489339E+03  0.17238410255E+03 0.  0.
         24    2    3    3    0    0 -0.74780663241E+02  0.22480189828E+02  0.61712974799E+02  0.12739254025E+03  0.79516422981E+02 0.  0.
         -6    2    1    2    0  502  0.35457900608E+02 -0.36379568205E+02  0.86227941125E+03  0.88084920158E+03  0.17259431379E+03 0.  0.
        -24    2    5    5    0    0  0.37455561795E+02 -0.86329670160E+02  0.51998820439E+03  0.53489492190E+03  0.82880116459E+02 0.  0.
          5    1    3    3  501    0  0.39322762633E+02  0.13899378377E+02 -0.34550008077E+02  0.54362353136E+02  0.47000000000E+01 0. -1.
        -13    1    4    4    0    0  0.34113416178E+01  0.16437892057E+02  0.43856968311E+02  0.46960357924E+02  0.00000000000E+00 0.  1.
         14    1    4    4    0    0 -0.78192004859E+02  0.60422977706E+01  0.17856006488E+02  0.80432182327E+02  0.00000000000E+00 0. -1.
         -5    1    5    5    0  502 -0.19976611867E+01  0.49950101955E+02  0.34229120686E+03  0.34595427968E+03  0.47000000000E+01 0.  1.
         11    1    6    6    0    0  0.34301177268E+02 -0.78517476351E+01  0.28418858753E+03  0.28635882034E+03  0.00000000000E+00 0. -1.
        -12    1    6    6    0    0  0.31543845262E+01 -0.78477922525E+02  0.23579961686E+03  0.24853610156E+03  0.00000000000E+00 0.  1.
</event>
<event>
12    1  0.8133495E-002  0.2187817E+03  0.7818608E-02  0.1134890E+00
         21   -1    0    0  503  502  0.00000000000E+00  0.00000000000E+00  0.83726671407E+02  0.83726671407E+02  0.00000000000E+00 0. -1.
         21   -1    0    0  501  503 -0.00000000000E+00 -0.00000000000E+00 -0.85814662481E+03  0.85814662481E+03  0.00000000000E+00 0. -1.
          6    2    1    2  501    0 -0.10089957175E+03  0.88938546209E+02 -0.66023038019E+03  0.69553546951E+03  0.17255331300E+03 0.  0.
         24    2    3    3    0    0 -0.13798380997E+03  0.75003050196E+02 -0.49177640701E+03  0.52242201003E+03  0.80098269078E+02 0.  0.
         -6    2    1    2    0  502  0.10089957175E+03 -0.88938546209E+02 -0.11418957321E+03  0.24633782671E+03  0.17190775916E+03 0.  0.
        -24    2    5    5    0    0  0.65382800563E+02 -0.69746025890E+02 -0.15169812771E+03  0.19103162876E+03  0.65888864747E+02 0.  0.
          5    1    3    3  501    0  0.37084238219E+02  0.13935496013E+02 -0.16845397318E+03  0.17311345948E+03  0.47000000000E+01 0. -1.
        -11    1    4    4    0    0 -0.65497614372E+02 -0.35002256532E+01 -0.13677831819E+03  0.15169211382E+03  0.00000000000E+00 0.  1.
         12    1    4    4    0    0 -0.72486195601E+02  0.78503275849E+02 -0.35499808883E+03  0.37072989621E+03  0.00000000000E+00 0. -1.
         -5    1    5    5    0  502  0.35516771191E+02 -0.19192520319E+02  0.37508554499E+02  0.55306197958E+02  0.47000000000E+01 0.  1.
         11    1    6    6    0    0  0.74208093403E+02 -0.69380638290E+02 -0.11572325442E+03  0.15398826485E+03  0.00000000000E+00 0. -1.
        -12    1    6    6    0    0 -0.88252928394E+01 -0.36538760038E+00 -0.35974873286E+02  0.37043363910E+02  0.00000000000E+00 0.  1.
</event>
<event>
12    1  0.8133495E-002  0.2631563E+03  0.7818608E-02  0.1105922E+00
         21   -1    0    0  503  502  0.00000000000E+00  0.00000000000E+00  0.22957534544E+03  0.22957534544E+03  0.00000000000E+00 0.  1.
         21   -1    0    0  501  503 -0.00000000000E+00 -0.00000000000E+00 -0.11269584025E+04  0.11269584025E+04  0.00000000000E+00 0.  1.
          6    2    1    2  501    0 -0.10516945097E+03  0.16551265998E+03 -0.10298951851E+04  0.10618971901E+04  0.16877942958E+03 0.  0.
         24    2    3    3    0    0 -0.22992104259E+02  0.14767964788E+02 -0.41262798623E+03  0.42118043182E+03  0.79902262064E+02 0.  0.
         -6    2    1    2    0  502  0.10516945097E+03 -0.16551265998E+03  0.13251212811E+03  0.29463655785E+03  0.17548841300E+03 0.  0.
        -24    2    5    5    0    0  0.68434952437E+02 -0.11528051819E+02  0.57465182472E+02  0.11938012578E+03  0.78314293336E+02 0.  0.
          5    1    3    3  501    0 -0.82177346709E+02  0.15074469519E+03 -0.61726719892E+03  0.64071675825E+03  0.47000000000E+01 0. -1.
        -13    1    4    4    0    0  0.29424764672E+02  0.10390241247E+02 -0.17949786814E+03  0.18219017140E+03  0.00000000000E+00 0.  1.
         14    1    4    4    0    0 -0.52416868930E+02  0.43777235407E+01 -0.23313011810E+03  0.23899026042E+03  0.00000000000E+00 0. -1.
         -5    1    5    5    0  502  0.36734498530E+02 -0.15398460816E+03  0.75046945637E+02  0.17525643207E+03  0.47000000000E+01 0.  1.
         13    1    6    6    0    0 -0.90807442149E+01 -0.21928399565E+02  0.25650513519E+02  0.34946580187E+02  0.00000000000E+00 0. -1.
        -14    1    6    6    0    0  0.77515696652E+02  0.10400347746E+02  0.31814668953E+02  0.84433545592E+02  0.00000000000E+00 0.  1.
</event>
<event>
12    1  0.8133495E-002  0.2307904E+03  0.7818608E-02  0.1126117E+00
         21   -1    0    0  501  502  0.00000000000E+00  0.00000000000E+00  0.28379818987E+03  0.28379818987E+03  0.00000000000E+00 0.  1.
         21   -1    0    0  502  503 -0.00000000000E+00 -0.00000000000E+00 -0.24996160481E+03  0.24996160481E+03  0.00000000000E+00 0. -1.
         -6    2    1    2    0  503 -0.10000282638E+03 -0.11606815725E+03 -0.11644813799E+03  0.25850413319E+03  0.17260311592E+03 0.  0.
        -24    2    3    3    0    0 -0.11828755409E+03 -0.13798075254E+03 -0.85979365654E+02  0.21649307289E+03  0.80288017596E+02 0.  0.
          6    2    1    2  501    0  0.10000282638E+03  0.11606815725E+03  0.15028472304E+03  0.27525566149E+03  0.17235950449E+03 0.  0.
         24    2    5    5    0    0 -0.11997430759E+02  0.21361007005E+02  0.58850434014E+02  0.10235158080E+03  0.80076473099E+02 0.  0.
          5    1    5    5  501    0  0.11200025714E+03  0.94707150243E+02  0.91434289031E+02  0.17290408068E+03  0.47000000000E+01 0. -1.
        -13    1    6    6    0    0  0.25601188078E+02 -0.15050221533E+02  0.11743318656E+02  0.31934863899E+02  0.00000000000E+00 0.  1.
         14    1    6    6    0    0 -0.37598618837E+02  0.36411228538E+02  0.47107115358E+02  0.70416716903E+02  0.00000000000E+00 0. -1.
         -5    1    3    3    0  503  0.18284727711E+02  0.21912595287E+02 -0.30468772331E+02  0.42011060295E+02  0.47000000000E+01 0.  1.
         11    1    4    4    0    0 -0.87315265025E+02 -0.90018140199E+02 -0.96751319022E+02  0.15839204148E+03  0.00000000000E+00 0. -1.
        -12    1    4    4    0    0 -0.30972289067E+02 -0.47962612336E+02  0.10771953368E+02  0.58101031415E+02  0.00000000000E+00 0.  1.
</event>
<event>
12    1  0.8133495E-002  0.2974584E+03  0.7818608E-02  0.1086600E+00
         21   -1    0    0  503  502  0.00000000000E+00  0.00000000000E+00  0.12930372099E+04  0.12930372099E+04  0.00000000000E+00 0. -1.
         21   -1    0    0  501  503 -0.00000000000E+00 -0.00000000000E+00 -0.10776799173E+03  0.10776799173E+03  0.00000000000E+00 0.  1.
          6    2    1    2  501    0 -0.34281621846E+02  0.23999306383E+03  0.10161953736E+04  0.10586539801E+04  0.17124050880E+03 0.  0.
         24    2    3    3    0    0 -0.88523197560E+02  0.16393771924E+03  0.69136787541E+03  0.72062800832E+03  0.81260414328E+02 0.  0.
         -6    2    1    2    0  502  0.34281621846E+02 -0.23999306383E+03  0.16907384448E+03  0.34215122149E+03  0.17236470984E+03 0.  0.
        -24    2    5    5    0    0  0.57908136827E+02 -0.15445182399E+03  0.43750043721E+02  0.18851639159E+03  0.80097723598E+02 0.  0.
          5    1    3    3  501    0  0.54241575714E+02  0.76055344587E+02  0.32482749824E+03  0.33802597177E+03  0.47000000000E+01 0. -1.
        -11    1    4    4    0    0 -0.21253040697E+02  0.11219917522E+03  0.32241322305E+03  0.34203893500E+03  0.00000000000E+00 0.  1.
         12    1    4    4    0    0 -0.67270156863E+02  0.51738544018E+02  0.36895465236E+03  0.37858907332E+03  0.00000000000E+00 0. -1.
         -5    1    5    5    0  502 -0.23626514981E+02 -0.85541239835E+02  0.12532380076E+03  0.15363482990E+03  0.47000000000E+01 0.  1.
         13    1    6    6    0    0 -0.10746110742E+02 -0.36434569090E+02  0.35081758916E+02  0.51707702806E+02  0.00000000000E+00 0. -1.
        -14    1    6    6    0    0  0.68654247569E+02 -0.11801725490E+03  0.86682848049E+01  0.13680868878E+03  0.00000000000E+00 0.  1.
</event>
<event>
12    1  0.8133495E-002  0.3384847E+03  0.7818608E-02  0.1067518E+00
         21   -1    0    0  501  502  0.00000000000E+00  0.00000000000E+00  0.40436098951E+03  0.40436098951E+03  0.00000000000E+00 0.  1.
         21   -1    0    0  502  503 -0.00000000000E+00 -0.00000000000E+00 -0.23224263716E+04  0.23224263716E+04  0.00000000000E+00 0. -1.
         -6    2    1    2    0  503  0.28740038719E+03  0.43604238626E+02 -0.22366161124E+04  0.22619793492E+04  0.17204252313E+03 0.  0.
        -24    2    3    3    0    0  0.17588383571E+03  0.59772111046E+02 -0.17865131838E+04  0.17979620244E+04  0.80810002293E+02 0.  0.
          6    2    1    2  501    0 -0.28740038719E+03 -0.43604238626E+02  0.31855073039E+03  0.46480801184E+03  0.17341167162E+03 0.  0.
         24    2    5    5    0    0 -0.13157168908E+03 -0.78111549066E+02  0.20964145893E+03  0.27152930882E+03  0.79787848599E+02 0.  0.
          5    1    5    5  501    0 -0.15582869811E+03  0.34507310440E+02  0.10890927146E+03  0.19327870301E+03  0.47000000000E+01 0. -1.
        -13    1    6    6    0    0 -0.67009552058E+02 -0.68124206661E+02  0.73604304916E+02  0.12061832905E+03  0.00000000000E+00 0.  1.
         14    1    6    6    0    0 -0.64562137021E+02 -0.99873424049E+01  0.13603715401E+03  0.15091097978E+03  0.00000000000E+00 0. -1.
         -5    1    3    3    0  503  0.11151655148E+03 -0.16167872421E+02 -0.45010292864E+03  0.46401732481E+03  0.47000000000E+01 0.  1.
         13    1    4    4    0    0  0.86532996526E+02  0.39618968988E+02 -0.55966148194E+03  0.56769586625E+03  0.00000000000E+00 0. -1.
        -14    1    4    4    0    0  0.89350839182E+02  0.20153142058E+02 -0.12268517019E+04  0.12302661582E+04  0.00000000000E+00 0.  1.
</event>
<event>
12    1  0.8133495E-002  0.3930803E+03  0.7818608E-02  0.1046253E+00
         21   -1    0    0  503  502  0.00000000000E+00  0.00000000000E+00  0.12470845672E+04  0.12470845672E+04  0.00000000000E+00 0. -1.
         21   -1    0    0  501  503 -0.00000000000E+00 -0.00000000000E+00 -0.16393797522E+03  0.16393797522E+03  0.00000000000E+00 0.  1.
          6    2    1    2  501    0  0.38026929577E+02 -0.35208316187E+03  0.19183813138E+03  0.43688554029E+03  0.16928823473E+03 0.  0.
         24    2    3    3    0    0 -0.24321810106E+02 -0.28622764570E+03  0.12083161887E+03  0.32161052492E+03  0.79468446627E+02 0.  0.
         -6    2    1    2    0  502 -0.38026929577E+02  0.35208316187E+03  0.89130846056E+03  0.97413700209E+03  0.17059755779E+03 0.  0.
        -24    2    5    5    0    0  0.40572474790E+02  0.21196739804E+03  0.57455392452E+03  0.61893871979E+03  0.79978891834E+02 0.  0.
          5    1    3    3  501    0  0.62348739682E+02 -0.65855516172E+02  0.71006512512E+02  0.11527501537E+03  0.47000000000E+01 0. -1.
        -11    1    4    4    0    0  0.97165601530E+01 -0.46127465249E+02  0.50574826298E+02  0.69137310091E+02  0.00000000000E+00 0.  1.
         12    1    4    4    0    0 -0.34038370259E+02 -0.24010018045E+03  0.70256792571E+02  0.25247321483E+03  0.00000000000E+00 0. -1.
         -5    1    5    5    0  502 -0.78599404366E+02  0.14011576384E+03  0.31675453604E+03  0.35519828229E+03  0.47000000000E+01 0.  1.
         11    1    6    6    0    0  0.22630095346E+01  0.12327754170E+03  0.22839520554E+03  0.25955123466E+03  0.00000000000E+00 0. -1.
        -12    1    6    6    0    0  0.38309465255E+02  0.88689856332E+02  0.34615871898E+03  0.35938748514E+03  0.00000000000E+00 0.  1.
</event>
<event>
12    1  0.8133495E-002  0.2590995E+03  0.7818608E-02  0.1107956E+00
         21   -1    0    0  503  502  0.00000000000E+00  0.00000000000E+00  0.33313164342E+02  0.33313164342E+02  0.00000000000E+00 0.  1.
         21   -1    0    0  501  503 -0.00000000000E+00 -0.00000000000E+00 -0.22308676163E+04  0.22308676163E+04  0.00000000000E+00 0. -1.
          6    2    1    2  501    0  0.12743852634E+03 -0.14434985671E+03 -0.73904136102E+03  0.78314410688E+03  0.17336406696E+03 0.  0.
         24    2    3    3    0    0  0.10593539181E+03 -0.23716265347E+02 -0.44235779303E+03  0.46211750724E+03  0.78021823640E+02 0.  0.
         -6    2    1    2    0  502 -0.12743852634E+03  0.14434985671E+03 -0.14585130909E+04  0.14810366738E+04  0.17068020819E+03 0.  0.
        -24    2    5    5    0    0 -0.98753073543E+02  0.15374766993E+03 -0.14076937520E+04  0.14217419075E+04  0.79736043145E+02 0.  0.
          5    1    3    3  501    0  0.21503134525E+02 -0.12063359136E+03 -0.29668356799E+03  0.32102659964E+03  0.47000000000E+01 0. -1.
        -11    1    4    4    0    0  0.70735944089E+02 -0.50723683656E+02 -0.33082640769E+03  0.34208562948E+03  0.00000000000E+00 0.  1.
         12    1    4    4    0    0  0.35199447723E+02  0.27007418309E+02 -0.11153138535E+03  0.12003187777E+03  0.00000000000E+00 0. -1.
         -5    1    5    5    0  502 -0.28685452794E+02 -0.93978132196E+01 -0.50819338882E+02  0.59294766209E+02  0.47000000000E+01 0.  1.
         13    1    6    6    0    0 -0.47923332413E+02  0.14023645201E+02 -0.41021758887E+03  0.41324542179E+03  0.00000000000E+00 0. -1.
        -14    1    6    6    0    0 -0.50829741130E+02  0.13972402473E+03 -0.99747616317E+03  0.10084964858E+04  0.00000000000E+00 0.  1.
</event>
<event>
12    1  0.8133495E-002  0.1912024E+03  0.7818608E-02  0.1157541E+00
         21   -1    0    0  503  502  0.00000000000E+00  0.00000000000E+00  0.24895401364E+03  0.24895401364E+03  0.00000000000E+00 0. -1.
         21   -1    0    0  501  503 -0.00000000000E+00 -0.00000000000E+00 -0.33360752170E+03  0.33360752170E+03  0.00000000000E+00 0. -1.
          6    2    1    2  501    0  0.14298980845E+02  0.81052599400E+02 -0.26054987486E+03  0.32275797974E+03  0.17179200061E+03 0.  0.
         24    2    3    3    0    0 -0.18856782276E+02  0.77537384991E+02 -0.26546183474E+03  0.28873036287E+03  0.80793641027E+02 0.  0.
         -6    2    1    2    0  502 -0.14298980845E+02 -0.81052599400E+02  0.17589636681E+03  0.25980355560E+03  0.17258149067E+03 0.  0.
        -24    2    5    5    0    0 -0.63391120641E+02 -0.89754263853E+02  0.15698355314E+03  0.20627280112E+03  0.76356862620E+02 0.  0.
          5    1    3    3  501    0  0.33155763120E+02  0.35152144090E+01  0.49119598729E+01  0.34027616876E+02  0.47000000000E+01 0. -1.
        -13    1    4    4    0    0  0.26174859038E+02  0.37064599257E+02 -0.64614075384E+02  0.78954965021E+02  0.00000000000E+00 0.  1.
         14    1    4    4    0    0 -0.45031641313E+02  0.40472785733E+02 -0.20084775935E+03  0.20977539784E+03  0.00000000000E+00 0. -1.
         -5    1    5    5    0  502  0.49092139796E+02  0.87016644536E+01  0.18912813662E+02  0.53530754475E+02  0.47000000000E+01 0.  1.
         11    1    6    6    0    0 -0.22761887944E+02 -0.86552962617E+02  0.12832275795E+03  0.15644887052E+03  0.00000000000E+00 0. -1.
        -12    1    6    6    0    0 -0.40629232697E+02 -0.32013012364E+01  0.28660795198E+02  0.49823930601E+02  0.00000000000E+00 0.  1.
</event>
<event>
12    1  0.8133495E-002  0.1790619E+03  0.7818608E-02  0.1168808E+00
         21   -1    0    0  501  502  0.00000000000E+00  0.00000000000E+00  0.36056466643E+03  0.36056466643E+03  0.00000000000E+00 0. -1.
         21   -1    0    0  502  503 -0.00000000000E+00 -0.00000000000E+00 -0.93242344481E+02  0.93242344481E+02  0.00000000000E+00 0. -1.
         -6    2    1    2    0  503 -0.17174195100E+02 -0.49669931203E+02  0.18342244217E+03  0.25606389439E+03  0.17077139888E+03 0.  0.
        -24    2    3    3    0    0  0.21226675083E+02 -0.77336215858E+02  0.17414394003E+03  0.20760534778E+03  0.79639227522E+02 0.  0.
          6    2    1    2  501    0  0.17174195100E+02  0.49669931203E+02  0.83899879773E+02  0.19774311652E+03  0.17117562695E+03 0.  0.
         24    2    5    5    0    0  0.60225706442E+01 -0.10735636755E+02  0.10680871673E+03  0.13201567796E+03  0.76606213874E+02 0.  0.
          5    1    5    5  501    0  0.11151624455E+02  0.60405567958E+02 -0.22908836960E+02  0.65727438557E+02  0.47000000000E+01 0. -1.
        -13    1    6    6    0    0 -0.10070158849E+02 -0.14900062242E+02  0.11289142959E+03  0.11431489329E+03  0.00000000000E+00 0.  1.
         14    1    6    6    0    0  0.16092729493E+02  0.41644254865E+01 -0.60827128572E+01  0.17700784668E+02  0.00000000000E+00 0. -1.
         -5    1    3    3    0  503 -0.38400870182E+02  0.27666284655E+02  0.92785021449E+01  0.48458546609E+02  0.47000000000E+01 0.  1.
         11    1    4    4    0    0 -0.12407286925E+02 -0.60195907811E+02  0.54490538177E+02  0.82138339628E+02  0.00000000000E+00 0. -1.
        -12    1    4    4    0    0  0.33633962007E+02 -0.17140308048E+02  0.11965340185E+03  0.12546700815E+03  0.00000000000E+00 0.  1.
</event>
<event>
12    1  0.8133495E-002  0.1890243E+03  0.7818608E-02  0.1159867E+00
         21   -1    0    0  503  502  0.00000000000E+00  0.00000000000E+00  0.14705444948E+03  0.14705444948E+03  0.00000000000E+00 0.  1.
         21   -1    0    0  501  503 -0.00000000000E+00 -0.00000000000E+00 -0.81603860786E+03  0.81603860786E+03  0.00000000000E+00 0.  1.
          6    2    1    2  501    0  0.67273254200E+02 -0.19915666529E+02 -0.73846048465E+03  0.76170498960E+03  0.17305571152E+03 0.  0.
         24    2    3    3    0    0  0.26772117101E-01 -0.37212487173E+02 -0.56426696760E+03  0.57412369859E+03  0.99176815010E+02 0.  0.
         -6    2    1    2    0  502 -0.67273254200E+02  0.19915666529E+02  0.69476326269E+02  0.20138806774E+03  0.17552170638E+03 0.  0.
        -24    2    5    5    0    0 -0.33158037581E+01 -0.27893902204E+02 -0.20498103431E+02  0.80997875742E+02  0.73153395654E+02 0.  0.
          5    1    3    3  501    0  0.67246482082E+02  0.17296820644E+02 -0.17419351705E+03  0.18758129102E+03  0.47000000000E+01 0. -1.
        -13    1    4    4    0    0  0.72845012273E+01  0.26896137655E+02 -0.32876950577E+03  0.32994825973E+03  0.00000000000E+00 0.  1.
         14    1    4    4    0    0 -0.72577291102E+01 -0.64108624828E+02 -0.23549746183E+03  0.24417543885E+03  0.00000000000E+00 0. -1.
         -5    1    5    5    0  502 -0.63957450441E+02  0.47809568733E+02  0.89974429700E+02  0.12039019200E+03  0.47000000000E+01 0.  1.
         11    1    6    6    0    0 -0.34629572281E+02  0.17303431652E+01 -0.42551393564E+01  0.34932901035E+02  0.00000000000E+00 0. -1.
        -12    1    6    6    0    0  0.31313768523E+02 -0.29624245369E+02 -0.16242964075E+02  0.46064974706E+02  0.00000000000E+00 0.  1.
</event>
<event>
12    1  0.8133495E-002  0.1938742E+03  0.7818608E-02  0.1155529E+00
         21   -1    0    0  501  502  0.00000000000E+00  0.00000000000E+00  0.18687197979E+04  0.18687197979E+04  0.00000000000E+00 0.  1.
         21   -1    0    0  502  503 -0.00000000000E+00 -0.00000000000E+00 -0.30249051798E+02  0.30249051798E+02  0.00000000000E+00 0.  1.
         -6    2    1    2    0  503  0.17994923782E+01  0.87799936696E+02  0.36678840930E+03  0.41487460711E+03  0.17284425176E+03 0.  0.
        -24    2    3    3    0    0  0.28488007652E+02 -0.18390104164E+02  0.19384376750E+03  0.21012954428E+03  0.73683489790E+02 0.  0.
          6    2    1    2  501    0 -0.17994923782E+01 -0.87799936696E+02  0.14716823367E+04  0.14840942425E+04  0.17021972092E+03 0.  0.
         24    2    5    5    0    0 -0.23256863390E+02 -0.87414076445E+02  0.14426559728E+04  0.14476911182E+04  0.79819893118E+02 0.  0.
          5    1    5    5  501    0  0.21457371012E+02 -0.38586025113E+00  0.29026363911E+02  0.36403124327E+02  0.47000000000E+01 0. -1.
        -13    1    6    6    0    0  0.82726205893E+01 -0.94459142130E+01  0.72729088726E+03  0.72739926879E+03  0.00000000000E+00 0.  1.
         14    1    6    6    0    0 -0.31529483979E+02 -0.77968162232E+02  0.71536508557E+03  0.72029184942E+03  0.00000000000E+00 0. -1.
         -5    1    3    3    0  503 -0.26688515274E+02  0.10619004086E+03  0.17294464180E+03  0.20474506283E+03  0.47000000000E+01 0.  1.
         11    1    4    4    0    0  0.44143340433E+02  0.18662222445E+01  0.16815322042E+03  0.17386092956E+03  0.00000000000E+00 0. -1.
        -12    1    4    4    0    0 -0.15655332781E+02 -0.20256326409E+02  0.25690547079E+02  0.36268614714E+02  0.00000000000E+00 0.  1.
</event>
<event>
12    1  0.8133495E-002  0.2196769E+03  0.7818608E-02  0.1134416E+00
         21   -1    0    0  501  502  0.00000000000E+00  0.00000000000E+00  0.69152369899E+03  0.69152369899E+03  0.00000000000E+00 0. -1.
         21   -1    0    0  502  503 -0.00000000000E+00 -0.00000000000E+00 -0.96075028648E+02  0.96075028648E+02  0.00000000000E+00 0.  1.
         -6    2    1    2    0  503 -0.13121061613E+03  0.39068194081E+02  0.90565410797E+02  0.23761322558E+03  0.17180047080E+03 0.  0.
        -24    2    3    3    0    0 -0.55319650640E+02  0.71855147869E+02  0.96188344982E+02  0.15461846448E+03  0.80195048643E+02 0.  0.
          6    2    1    2  501    0  0.13121061613E+03 -0.39068194081E+02  0.50488325954E+03  0.54998550205E+03  0.16980694076E+03 0.  0.
         24    2    5    5    0    0  0.55182816500E+01 -0.33449402986E+02  0.14607610125E+03  0.16972927186E+03  0.79501474055E+02 0.  0.
          5    1    5    5  501    0  0.12569233448E+03 -0.56187910955E+01  0.35880715829E+03  0.38025623019E+03  0.47000000000E+01 0. -1.
        -13    1    6    6    0    0  0.70756092400E+01  0.25848892183E+02  0.52303274814E+02  0.58769567205E+02  0.00000000000E+00 0.  1.
         14    1    6    6    0    0 -0.15573275900E+01 -0.59298295169E+02  0.93772826439E+02  0.11095970466E+03  0.00000000000E+00 0. -1.
         -5    1    3    3    0  503 -0.75890965486E+02 -0.32786953787E+02 -0.56229341857E+01  0.82994761099E+02  0.47000000000E+01 0.  1.
         11    1    4    4    0    0  0.17975202940E+02  0.25093858018E+02  0.10650425930E+02  0.32653349038E+02  0.00000000000E+00 0. -1.
        -12    1    4    4    0    0 -0.73294853580E+02  0.46761289851E+02  0.85537919053E+02  0.12196511545E+03  0.00000000000E+00 0.  1.
</event>
<event>
12    1  0.8133495E-002  0.1777256E+03  0.7818608E-02  0.1170101E+00
         21   -1    0    0  503  502  0.00000000000E+00  0.00000000000E+00  0.15178553320E+03  0.15178553320E+03  0.00000000000E+00 0. -1.
         21   -1    0    0  501  503 -0.00000000000E+00 -0.00000000000E+00 -0.21851894640E+03  0.21851894640E+03  0.00000000000E+00 0. -1.
          6    2    1    2  501    0  0.25535497477E+02  0.39300446948E+02  0.78140292994E+01  0.17757748483E+03  0.17110265136E+03 0.  0.
         24    2    3    3    0    0  0.82528376737E+02  0.21582445367E+02  0.92580218983E+01  0.11769183562E+03  0.80553847129E+02 0.  0.
         -6    2    1    2    0  502 -0.25535497477E+02 -0.39300446948E+02 -0.74547442499E+02  0.19272699477E+03  0.17143449644E+03 0.  0.
        -24    2    5    5    0    0 -0.77142597898E+02 -0.14318906811E+02 -0.20493018418E+02  0.11378815183E+03  0.79823356177E+02 0.  0.
          5    1    3    3  501    0 -0.56992879261E+02  0.17718001581E+02 -0.14439925989E+01  0.59885649208E+02  0.47000000000E+01 0. -1.
        -11    1    4    4    0    0  0.16265113507E+02  0.13167778558E+01 -0.32799153321E+02  0.36634304687E+02  0.00000000000E+00 0.  1.
         12    1    4    4    0    0  0.66263263230E+02  0.20265667511E+02  0.42057175219E+02  0.81057530933E+02  0.00000000000E+00 0. -1.
         -5    1    5    5    0  502  0.51607100421E+02 -0.24981540137E+02 -0.54054424082E+02  0.78938842937E+02  0.47000000000E+01 0.  1.
         13    1    6    6    0    0 -0.54654271127E+02  0.24668794790E+02 -0.31096835238E+02  0.67547405210E+02  0.00000000000E+00 0. -1.
        -14    1    6    6    0    0 -0.22488326771E+02 -0.38987701602E+02  0.10603816821E+02  0.46240746624E+02  0.00000000000E+00 0.  1.
</event>
<event>
12    1  0.8133495E-002  0.3030168E+03  0.7818608E-02  0.1084019E+00
         21   -1    0    0  503  502  0.00000000000E+00  0.00000000000E+00  0.11846657270E+03  0.11846657270E+03  0.00000000000E+00 0.  1.
         21   -1    0    0  501  503 -0.00000000000E+00 -0.00000000000E+00 -0.10906844566E+04  0.10906844566E+04  0.00000000000E+00 0. -1.
          6    2    1    2  501    0  0.21814520108E+03 -0.12049657126E+03 -0.81553156394E+03  0.87000627784E+03  0.17237296557E+03 0.  0.
         24    2    3    3    0    0  0.36473388997E+02 -0.44909012114E+01 -0.29910333339E+03  0.31037946460E+03  0.74311046966E+02 0.  0.
         -6    2    1    2    0  502 -0.21814520108E+03  0.12049657126E+03 -0.15668631998E+03  0.33914475147E+03  0.16840964088E+03 0.  0.
        -24    2    5    5    0    0 -0.22669456204E+03  0.10297272246E+03 -0.17301205707E+03  0.31328365054E+03  0.78864870343E+02 0.  0.
          5    1    3    3  501    0  0.18167181209E+03 -0.11600567005E+03 -0.51642823055E+03  0.55962681324E+03  0.47000000000E+01 0. -1.
        -11    1    4    4    0    0  0.10738959340E+02 -0.38123171017E+02 -0.16802615586E+03  0.17263108199E+03  0.00000000000E+00 0.  1.
         12    1    4    4    0    0  0.25734429657E+02  0.33632269806E+02 -0.13107717753E+03  0.13774838261E+03  0.00000000000E+00 0. -1.
         -5    1    5    5    0  502  0.85493609597E+01  0.17523848799E+02  0.16325737095E+02  0.25861100928E+02  0.47000000000E+01 0.  1.
         11    1    6    6    0    0 -0.16704883752E+03  0.36823123588E+02 -0.12686525517E+03  0.21296959763E+03  0.00000000000E+00 0. -1.
        -12    1    6    6    0    0 -0.59645724523E+02  0.66149598875E+02 -0.46146801905E+02  0.10031405291E+03  0.00000000000E+00 0.  1.
</event>
<event>
12    1  0.8133495E-002  0.3394139E+03  0.7818608E-02  0.1067060E+00
         21   -1    0    0  501  502  0.00000000000E+00  0.00000000000E+00  0.34969073965E+03  0.34969073965E+03  0.00000000000E+00 0.  1.
         21   -1    0    0  502  503 -0.00000000000E+00 -0.00000000000E+00 -0.35605144829E+03  0.35605144829E+03  0.00000000000E+00 0. -1.
         -6    2    1    2    0  503 -0.19627997073E+03 -0.21589266313E+03 -0.99892930457E+02  0.35380837533E+03  0.17339636673E+03 0.  0.
        -24    2    3    3    0    0 -0.20300794936E+02 -0.95648018472E+02 -0.35934457797E+02  0.13123204886E+03  0.79811651263E+02 0.  0.
          6    2    1    2  501    0  0.19627997073E+03  0.21589266313E+03  0.93532221819E+02  0.35193381261E+03  0.17312903580E+03 0.  0.
         24    2    5    5    0    0  0.29619422460E+02  0.48459642403E+02  0.59028518900E+02  0.11314070070E+03  0.78043609494E+02 0.  0.
          5    1    5    5  501    0  0.16666054827E+03  0.16743302073E+03  0.34503702919E+02  0.23879311191E+03  0.47000000000E+01 0. -1.
        -11    1    6    6    0    0  0.36421436983E+02  0.66808551073E+02  0.40531175068E+02  0.86212990441E+02  0.00000000000E+00 0.  1.
         12    1    6    6    0    0 -0.68020145238E+01 -0.18348908670E+02  0.18497343832E+02  0.26927710260E+02  0.00000000000E+00 0. -1.
         -5    1    3    3    0  503 -0.17597917579E+03 -0.12024464466E+03 -0.63958472660E+02  0.22257632647E+03  0.47000000000E+01 0.  1.
         13    1    4    4    0    0  0.19514095626E+02 -0.18322170013E+02 -0.35242176879E+02  0.44255088671E+02  0.00000000000E+00 0. -1.
        -14    1    4    4    0    0 -0.39814890562E+02 -0.77325848458E+02 -0.69228091788E+00  0.86976960186E+02  0.00000000000E+00 0.  1.
</event>
<event>
12    1  0.8133495E-002  0.1754951E+03  0.7818608E-02  0.1172632E+00
         21   -1    0    0  501  502  0.00000000000E+00  0.00000000000E+00  0.66663652118E+02  0.66663652118E+02  0.00000000000E+00 0. -1.
         21   -1    0    0  502  503 -0.00000000000E+00 -0.00000000000E+00 -0.49016882985E+03  0.49016882985E+03  0.00000000000E+00 0. -1.
         -6    2    1    2    0  503 -0.17086554982E+02 -0.20888905708E+02 -0.28234189870E+03  0.33160903907E+03  0.17181184561E+03 0.  0.
        -24    2    3    3    0    0  0.20782072109E+02 -0.27391733205E+02 -0.27665416326E+03  0.29248411073E+03  0.88471619244E+02 0.  0.
          6    2    1    2  501    0  0.17086554982E+02  0.20888905708E+02 -0.14116327904E+03  0.22522344290E+03  0.17340770208E+03 0.  0.
         24    2    5    5    0    0  0.22961149781E+02 -0.19149100018E+02 -0.15011429474E+03  0.18351297121E+03  0.10123639012E+03 0.  0.
          5    1    5    5  501    0 -0.58745947992E+01  0.40038005726E+02  0.89510157051E+01  0.41710471691E+02  0.47000000000E+01 0. -1.
        -11    1    6    6    0    0 -0.26602327172E+02  0.17356438039E+02 -0.97471081892E+02  0.10251605512E+03  0.00000000000E+00 0.  1.
         12    1    6    6    0    0  0.49563476953E+02 -0.36505538057E+02 -0.52643212853E+02  0.80996916089E+02  0.00000000000E+00 0. -1.
         -5    1    3    3    0  503 -0.37868627091E+02  0.65028274968E+01 -0.56877354347E+01  0.39124928340E+02  0.47000000000E+01 0.  1.
         13    1    4    4    0    0  0.51723707369E+02 -0.11326290036E+02 -0.10821284570E+03  0.12047259740E+03  0.00000000000E+00 0. -1.
        -14    1    4    4    0    0 -0.30941635260E+02 -0.16065443168E+02 -0.16844131756E+03  0.17201151333E+03  0.00000000000E+00 0.  1.
</event>
<event>
12    1  0.8133495E-002  0.1806430E+03  0.7818608E-02  0.1170005E+00
         21   -1    0    0  501  502  0.00000000000E+00  0.00000000000E+00  0.22065402103E+03  0.22065402103E+03  0.00000000000E+00 0.  1.
         21   -1    0    0  502  503 -0.00000000000E+00 -0.00000000000E+00 -0.18929780194E+03  0.18929780194E+03  0.00000000000E+00 0.  1.
         -6    2    1    2    0  503 -0.21137545486E+02 -0.17107173296E+02 -0.90558148681E+02  0.19201835470E+03  0.16712515981E+03 0.  0.
        -24    2    3    3    0    0 -0.54651626677E+01  0.48490028027E+02 -0.82180328634E+02  0.12389424536E+03  0.78835441250E+02 0.  0.
          6    2    1    2  501    0  0.21137545486E+02  0.17107173296E+02  0.12191436777E+03  0.21793346827E+03  0.17858452429E+03 0.  0.
         24    2    5    5    0    0  0.58097119856E+02  0.49905821039E+02  0.12601481454E+03  0.16812719261E+03  0.80753656892E+02 0.  0.
          5    1    5    5  501    0 -0.36959574371E+02 -0.32798647743E+02 -0.41004467672E+01  0.49806275660E+02  0.47000000000E+01 0. -1.
        -11    1    6    6    0    0  0.35942249710E+02 -0.50792708337E+01  0.96936537208E+01  0.37571415050E+02  0.00000000000E+00 0.  1.
         12    1    6    6    0    0  0.22154870147E+02  0.54985091873E+02  0.11632116082E+03  0.13055577756E+03  0.00000000000E+00 0. -1.
         -5    1    3    3    0  503 -0.15672382818E+02 -0.65597201322E+02 -0.83778200463E+01  0.68124109339E+02  0.47000000000E+01 0.  1.
         13    1    4    4    0    0 -0.12649513558E+02  0.32963596961E+02  0.44537276708E+01  0.35587141049E+02  0.00000000000E+00 0. -1.
        -14    1    4    4    0    0  0.71843508903E+01  0.15526431066E+02 -0.86634056305E+02  0.88307104308E+02  0.00000000000E+00 0.  1.
</event>
<event>
12    1  0.8133495E-002  0.1782317E+03  0.7818608E-02  0.1169914E+00
         21   -1    0    0  503  502  0.00000000000E+00  0.00000000000E+00  0.53693284376E+03  0.53693284376E+03  0.00000000000E+00 0.  1.
         21   -1    0    0  501  503 -0.00000000000E+00 -0.00000000000E+00 -0.62077133611E+02  0.62077133611E+02  0.00000000000E+00 0.  1.
          6    2    1    2  501    0  0.40253246071E+02 -0.20801794191E+02  0.16795382290E+03  0.24489799337E+03  0.17237604843E+03 0.  0.
         24    2    3    3    0    0  0.27489217257E+02  0.34013115623E+02  0.30128190893E+02  0.95949715078E+02  0.79913020449E+02 0.  0.
         -6    2    1    2    0  502 -0.40253246071E+02  0.20801794191E+02  0.30690188725E+03  0.35411198400E+03  0.17074393211E+03 0.  0.
        -24    2    5    5    0    0 -0.64283079911E+02  0.47647728655E+02  0.29484053895E+03  0.31582748015E+03  0.80083914775E+02 0.  0.
          5    1    3    3  501    0  0.12764028814E+02 -0.54814909813E+02  0.13782563201E+03  0.14894827829E+03  0.47000000000E+01 0. -1.
        -13    1    4    4    0    0 -0.12958449457E+02  0.13800483848E+02  0.44618005819E+02  0.48467940022E+02  0.00000000000E+00 0.  1.
         14    1    4    4    0    0  0.40447666714E+02  0.20212631775E+02 -0.14489814926E+02  0.47481775056E+02  0.00000000000E+00 0. -1.
         -5    1    5    5    0  502  0.24029833840E+02 -0.26845934465E+02  0.12061348304E+02  0.38284503844E+02  0.47000000000E+01 0.  1.
         13    1    6    6    0    0 -0.71981227171E+02  0.55849176531E+02  0.19362102686E+03  0.21398488177E+03  0.00000000000E+00 0. -1.
        -14    1    6    6    0    0  0.76981472601E+01 -0.82014478757E+01  0.10121951208E+03  0.10184259838E+03  0.00000000000E+00 0.  1.
</event>
<event>
12    1  0.8133495E-002  0.2439654E+03  0.7818608E-02  0.1117313E+00
         21   -1    0    0  501  502  0.00000000000E+00  0.00000000000E+00  0.54868222814E+03  0.54868222814E+03  0.00000000000E+00 0. -1.
         21   -1    0    0  502  503 -0.00000000000E+00 -0.00000000000E+00 -0.11176325451E+03  0.11176325451E+03  0.00000000000E+00 0. -1.
         -6    2    1    2    0  503  0.16006898096E+03 -0.64509640503E+02  0.27851224408E+03  0.37025420345E+03  0.17243993936E+03 0.  0.
        -24    2    3    3    0    0  0.15755020450E+03 -0.17871282061E+02  0.14819092846E+03  0.23173627675E+03  0.81238543940E+02 0.  0.
          6    2    1    2  501    0 -0.16006898096E+03  0.64509640503E+02  0.15840672955E+03  0.29019127921E+03  0.17127379887E+03 0.  0.
         24    2    5    5    0    0 -0.14213167270E+03 -0.11475542852E+02  0.12287653844E+03  0.20428447158E+03  0.79375066367E+02 0.  0.
          5    1    5    5  501    0 -0.17937308263E+02  0.75985183355E+02  0.35530191106E+02  0.85906807630E+02  0.47000000000E+01 0. -1.
        -11    1    6    6    0    0 -0.22339282004E+02 -0.34512493653E+02  0.27922138006E+02  0.49697097797E+02  0.00000000000E+00 0.  1.
         12    1    6    6    0    0 -0.11979239069E+03  0.23036950802E+02  0.94954400436E+02  0.15458737378E+03  0.00000000000E+00 0. -1.
         -5    1    3    3    0  503  0.25187764555E+01 -0.46638358442E+02  0.13032131562E+03  0.13851792670E+03  0.47000000000E+01 0.  1.
         11    1    4    4    0    0  0.70540526502E+02  0.32330849982E+02  0.60556307246E+02  0.98429244064E+02  0.00000000000E+00 0. -1.
        -12    1    4    4    0    0  0.87009678001E+02 -0.50202132043E+02  0.87634621213E+02  0.13330703268E+03  0.00000000000E+00 0.  1.
</event>
<event>
12    1  0.8133495E-002  0.2449025E+03  0.7818608E-02  0.1116810E+00
         21   -1    0    0  503  502  0.00000000000E+00  0.00000000000E+00  0.71740505796E+03  0.71740505796E+03  0.00000000000E+00 0. -1.
         21   -1    0    0  501  503 -0.00000000000E+00 -0.00000000000E+00 -0.89224264133E+02  0.89224264133E+02  0.00000000000E+00 0.  1.
          6    2    1    2  501    0  0.16114477221E+03 -0.64451962075E+02  0.20752674292E+03  0.31987775680E+03  0.17068314867E+03 0.  0.
         24    2    3    3    0    0  0.65905803526E+02 -0.93980684607E+02  0.10960232218E+03  0.18004325180E+03  0.85011525540E+02 0.  0.
         -6    2    1    2    0  502 -0.16114477221E+03  0.64451962075E+02  0.42065405091E+03  0.48675156529E+03  0.17278762324E+03 0.  0.
        -24    2    5    5    0    0 -0.11370502623E+03  0.61172370665E+02  0.40442843496E+03  0.43628726275E+03  0.10056502725E+03 0.  0.
          5    1    3    3  501    0  0.95238968686E+02  0.29528722531E+02  0.97924420737E+02  0.13983450500E+03  0.47000000000E+01 0. -1.
        -13    1    4    4    0    0  0.75690929664E+02 -0.10413153116E+03  0.99242982926E+02  0.16254741547E+03  0.00000000000E+00 0.  1.
         14    1    4    4    0    0 -0.97851261382E+01  0.10150846553E+02  0.10359339259E+02  0.17495836338E+02  0.00000000000E+00 0. -1.
         -5    1    5    5    0  502 -0.47439745983E+02  0.32795914104E+01  0.16225615945E+02  0.50464302547E+02  0.47000000000E+01 0.  1.
         11    1    6    6    0    0 -0.24120383538E+02 -0.83198285022E+01  0.20742245853E+03  0.20898585778E+03  0.00000000000E+00 0. -1.
        -12    1    6    6    0    0 -0.89584642690E+02  0.69492199167E+02  0.19700597643E+03  0.22730140497E+03  0.00000000000E+00 0.  1.
</event>
<event>
12    1  0.8133495E-002  0.2021128E+03  0.7818608E-02  0.1148288E+00
         21   -1    0    0  501  502  0.00000000000E+00  0.00000000000E+00  0.92917673876E+02  0.92917673876E+02  0.00000000000E+00 0.  1.
         21   -1    0    0  502  503 -0.00000000000E+00 -0.00000000000E+00 -0.45420791396E+03  0.45420791396E+03  0.00000000000E+00 0.  1.
         -6    2    1    2    0  503 -0.61446862328E+02 -0.84883648014E+02 -0.23560601638E+03  0.31041871922E+03  0.17282544864E+03 0.  0.
        -24    2    3    3    0    0 -0.25070367096E+02 -0.12190320294E+03 -0.15804182840E+03  0.21697360105E+03  0.81310576412E+02 0.  0.
          6    2    1    2  501    0  0.61446862328E+02  0.84883648014E+02 -0.12568422370E+03  0.23670686861E+03  0.17103411055E+03 0.  0.
         24    2    5    5    0    0  0.30381227907E+02  0.43426030278E+02 -0.15238493702E+03  0.17823614258E+03  0.75750342423E+02 0.  0.
          5    1    5    5  501    0  0.31065634422E+02  0.41457617737E+02  0.26700713324E+02  0.58470726030E+02  0.47000000000E+01 0. -1.
        -11    1    6    6    0    0  0.48997696450E+02  0.51686135413E+01 -0.92084321181E+02  0.10443663644E+03  0.00000000000E+00 0.  1.
         12    1    6    6    0    0 -0.18616468544E+02  0.38257416736E+02 -0.60300615841E+02  0.73799506145E+02  0.00000000000E+00 0. -1.
         -5    1    3    3    0  503 -0.36376495232E+02  0.37019554923E+02 -0.77564187982E+02  0.93445118167E+02  0.47000000000E+01 0.  1.
         11    1    4    4    0    0  0.76217839218E+01 -0.71345663362E+02 -0.13427931479E+03  0.15224726484E+03  0.00000000000E+00 0. -1.
        -12    1    4    4    0    0 -0.32692151018E+02 -0.50557539575E+02 -0.23762513607E+02  0.64726336209E+02  0.00000000000E+00 0.  1.
</event>
<event>
12    1  0.8133495E-002  0.1884793E+03  0.7818608E-02  0.1160798E+00
         21   -1    0    0  503  502  0.00000000000E+00  0.00000000000E+00  0.91323968503E+03  0.91323968503E+03  0.00000000000E+00 0. -1.
         21   -1    0    0  501  503 -0.00000000000E+00 -0.00000000000E+00 -0.40282636567E+02  0.40282636567E+02  0.00000000000E+00 0. -1.
          6    2    1    2  501    0 -0.51689227859E+02  0.45823600386E+02  0.31957479614E+03  0.36892298964E+03  0.17089336831E+03 0.  0.
         24    2    3    3    0    0  0.59149594398E+01 -0.33960582452E+02  0.15849848171E+03  0.18010713413E+03  0.78284756839E+02 0.  0.
         -6    2    1    2    0  502  0.51689227859E+02 -0.45823600386E+02  0.55338225233E+03  0.58459933195E+03  0.17536499965E+03 0.  0.
        -24    2    5    5    0    0  0.39381487554E+02 -0.36299553053E+02  0.55934563576E+03  0.56728344644E+03  0.77938496589E+02 0.  0.
          5    1    3    3  501    0 -0.57604187299E+02  0.79784182838E+02  0.16107631443E+03  0.18881585552E+03  0.47000000000E+01 0. -1.
        -11    1    4    4    0    0  0.84781356990E+01 -0.32482011576E+02  0.15324498760E+02  0.36902576105E+02  0.00000000000E+00 0.  1.
         12    1    4    4    0    0 -0.25631762591E+01 -0.14785708766E+01  0.14317398295E+03  0.14320455802E+03  0.00000000000E+00 0. -1.
         -5    1    5    5    0  502  0.12307740306E+02 -0.95240473324E+01 -0.59633834333E+01  0.17315885510E+02  0.47000000000E+01 0.  1.
         13    1    6    6    0    0  0.23403927547E+02 -0.33732548274E+02  0.10636395631E+03  0.11401280559E+03  0.00000000000E+00 0. -1.
        -14    1    6    6    0    0  0.15977560006E+02 -0.25670047792E+01  0.45298167945E+03  0.45327064085E+03  0.00000000000E+00 0.  1.
</event>
<event>
12    1  0.8133495E-002  0.1957491E+03  0.7818608E-02  0.1153875E+00
         21   -1    0    0  503  502  0.00000000000E+00  0.00000000000E+00  0.82792234265E+02  0.82792234265E+02  0.00000000000E+00 0. -1.
         21   -1    0    0  501  503 -0.00000000000E+00 -0.00000000000E+00 -0.45807480028E+03  0.45807480028E+03  0.00000000000E+00 0. -1.
          6    2    1    2  501    0  0.50394737507E+02 -0.76849582222E+02 -0.19671801845E+03  0.27590851284E+03  0.17024112552E+03 0.  0.
         24    2    3    3    0    0 -0.71792901661E+01 -0.79723210144E+01 -0.14774798354E+03  0.17354152552E+03  0.90399636777E+02 0.  0.
         -6    2    1    2    0  502 -0.50394737507E+02  0.76849582222E+02 -0.17856454757E+03  0.26495852171E+03  0.17283585485E+03 0.  0.
        -24    2    5    5    0    0 -0.63333603054E+01  0.10894474253E+03 -0.11773108773E+03  0.18313979456E+03  0.88150479048E+02 0.  0.
          5    1    3    3  501    0  0.57574027673E+02 -0.68877261207E+02 -0.48970034913E+02  0.10236698732E+03  0.47000000000E+01 0. -1.
        -13    1    4    4    0    0 -0.98281327560E+01  0.35830450252E+02 -0.29587848608E+02  0.47495832911E+02  0.00000000000E+00 0.  1.
         14    1    4    4    0    0  0.26488425898E+01 -0.43802771266E+02 -0.11816013493E+03  0.12604569260E+03  0.00000000000E+00 0. -1.
         -5    1    5    5    0  502 -0.44061377201E+02 -0.32095160309E+02 -0.60833459836E+02  0.81818727146E+02  0.47000000000E+01 0.  1.
         11    1    6    6    0    0  0.15034628041E+01  0.83323227296E+02 -0.12940182211E+03  0.15391508104E+03  0.00000000000E+00 0. -1.
        -12    1    6    6    0    0 -0.78368231095E+01  0.25621515235E+02  0.11670734378E+02  0.29224713520E+02  0.00000000000E+00 0.  1.
</event>
<event>
12    1  0.8133495E-002  0.2451594E+03  0.7818608E-02  0.1117472E+00
         21   -1    0    0  501  502  0.00000000000E+00  0.00000000000E+00  0.72404384832E+03  0.72404384832E+03  0.00000000000E+00 0. -1.
         21   -1    0    0  502  503 -0.00000000000E+00 -0.00000000000E+00 -0.97017448056E+02  0.97017448056E+02  0.00000000000E+00 0. -1.
         -6    2    1    2    0  503  0.16075575936E+03  0.35997665639E+02  0.48473872542E+03  0.54320782671E+03  0.18156228955E+03 0.  0.
        -24    2    3    3    0    0  0.13252105713E+03 -0.40649837363E+02  0.27361546097E+03  0.31678529931E+03  0.79203948861E+02 0.  0.
          6    2    1    2  501    0 -0.16075575936E+03 -0.35997665639E+02  0.14228767485E+03  0.27785346967E+03  0.17268040449E+03 0.  0.
         24    2    5    5    0    0 -0.35765915594E+02 -0.42580917800E+02  0.14476300614E+02  0.98901974460E+02  0.80496596162E+02 0.  0.
          5    1    5    5  501    0 -0.12498984376E+03  0.65832521615E+01  0.12781137424E+03  0.17895149521E+03  0.47000000000E+01 0. -1.
        -13    1    6    6    0    0  0.24968173180E+02 -0.32935426745E+01  0.26582860566E+00  0.25185864292E+02  0.00000000000E+00 0.  1.
         14    1    6    6    0    0 -0.60734088774E+02 -0.39287375126E+02  0.14210472009E+02  0.73716110168E+02  0.00000000000E+00 0. -1.
         -5    1    3    3    0  503  0.28234702223E+02  0.76647503002E+02  0.21112326444E+03  0.22642252740E+03  0.47000000000E+01 0.  1.
         13    1    4    4    0    0  0.38723625969E+02  0.99577198193E+01  0.27339579790E+02  0.48436845637E+02  0.00000000000E+00 0. -1.
        -14    1    4    4    0    0  0.93797431164E+02 -0.50607557182E+02  0.24627588119E+03  0.26834845368E+03  0.00000000000E+00 0.  1.
</event>
<event>
12    1  0.8133495E-002  0.1780937E+03  0.7818608E-02  0.1169811E+00
         21   -1    0    0  501  502  0.00000000000E+00  0.00000000000E+00  0.32540310068E+03  0.32540310068E+03  0.00000000000E+00 0. -1.
         21   -1    0    0  502  503 -0.00000000000E+00 -0.00000000000E+00 -0.13220986371E+03  0.13220986371E+03  0.00000000000E+00 0. -1.
         -6    2    1    2    0  503 -0.11790881222E+01 -0.45892283823E+02 -0.21128811822E+02  0.17934267473E+03  0.17207520544E+03 0.  0.
        -24    2    3    3    0    0 -0.15722459436E+02 -0.95086496209E+02 -0.17537196629E+02  0.12770383391E+03  0.81927275291E+02 0.  0.
          6    2    1    2  501    0  0.11790881222E+01  0.45892283823E+02  0.21432204879E+03  0.27827028966E+03  0.17144363957E+03 0.  0.
         24    2    5    5    0    0 -0.38050575188E+02 -0.29888852137E+02  0.11959354322E+03  0.15068766225E+03  0.77865051335E+02 0.  0.
          5    1    5    5  501    0  0.39229663310E+02  0.75781135959E+02  0.94728505567E+02  0.12758262741E+03  0.47000000000E+01 0. -1.
        -11    1    6    6    0    0 -0.42217626804E+02  0.11530681272E+02  0.33691903382E+02  0.55230688725E+02  0.00000000000E+00 0.  1.
         12    1    6    6    0    0  0.41670516159E+01 -0.41419533409E+02  0.85901639843E+02  0.95456973526E+02  0.00000000000E+00 0. -1.
         -5    1    3    3    0  503  0.14543371314E+02  0.49194212387E+02 -0.35916151936E+01  0.51638840820E+02  0.47000000000E+01 0.  1.
         11    1    4    4    0    0 -0.57032167424E+00 -0.66909964400E+02  0.27597964311E+02  0.72380358088E+02  0.00000000000E+00 0. -1.
        -12    1    4    4    0    0 -0.15152137762E+02 -0.28176531809E+02 -0.45135160940E+02  0.55323475818E+02  0.00000000000E+00 0.  1.
</event>
<event>
12    1  0.8133495E-002  0.1759530E+03  0.7818608E-02  0.1171968E+00
         21   -1    0    0  503  502  0.00000000000E+00  0.00000000000E+00  0.15342396575E+04  0.15342396575E+04  0.00000000000E+00 0.  1.
         21   -1    0    0  501  503 -0.00000000000E+00 -0.00000000000E+00 -0.82475375041E+02  0.82475375041E+02  0.00000000000E+00 0.  1.
          6    2    1    2  501    0  0.27959477627E+02  0.21158314007E+02  0.23232078181E+02  0.17748013921E+03  0.17242408102E+03 0.  0.
         24    2    3    3    0    0 -0.29011535763E+02  0.62700356479E+02  0.16090375040E+02  0.10645527326E+03  0.79377711768E+02 0.  0.
         -6    2    1    2    0  502 -0.27959477627E+02 -0.21158314007E+02  0.14285322042E+04  0.14392348933E+04  0.17164909813E+03 0.  0.
        -24    2    5    5    0    0 -0.50996434058E+01  0.44566659401E+01  0.13613386704E+04  0.13636322465E+04  0.78765854410E+02 0.  0.
          5    1    3    3  501    0  0.56971013390E+02 -0.41542042472E+02  0.71417031412E+01  0.71024865950E+02  0.47000000000E+01 0. -1.
        -11    1    4    4    0    0 -0.94219553432E+01  0.44649086092E+02 -0.29011734527E+02  0.54073975918E+02  0.00000000000E+00 0.  1.
         12    1    4    4    0    0 -0.19589580420E+02  0.18051270387E+02  0.45102109567E+02  0.52381297340E+02  0.00000000000E+00 0. -1.
         -5    1    5    5    0  502 -0.22859834221E+02 -0.25614979947E+02  0.67193533809E+02  0.75602646806E+02  0.47000000000E+01 0.  1.
         11    1    6    6    0    0  0.32106036139E+02  0.13972968792E+02  0.40093654598E+03  0.40246261356E+03  0.00000000000E+00 0. -1.
        -12    1    6    6    0    0 -0.37205679545E+02 -0.95163028515E+01  0.96040212446E+03  0.96116963294E+03  0.00000000000E+00 0.  1.
</event>
<event>
12    1  0.8133495E-002  0.1950752E+03  0.7818608E-02  0.1154110E+00
         21   -1    0    0  503  502  0.00000000000E+00  0.00000000000E+00  0.85872163747E+03  0.85872163747E+03  0.00000000000E+00 0. -1.
         21   -1    0    0  501  503 -0.00000000000E+00 -0.00000000000E+00 -0.16186865620E+03  0.16186865620E+03  0.00000000000E+00 0. -1.
          6    2    1    2  501    0 -0.20502696736E+00  0.90389214415E+02 -0.86560978077E+02  0.21341772405E+03  0.17287009543E+03 0.  0.
         24    2    3    3    0    0  0.58541266978E+02  0.50622503052E+02 -0.87279219524E+02  0.14231832704E+03  0.81529910436E+02 0.  0.
         -6    2    1    2    0  502  0.20502696736E+00 -0.90389214415E+02  0.78341395935E+03  0.80717256962E+03  0.17210425132E+03 0.  0.
        -24    2    5    5    0    0  0.52964418000E+02 -0.89457698011E+02  0.66134275178E+03  0.67410157059E+03  0.78935307894E+02 0.  0.
          5    1    3    3  501    0 -0.58746293946E+02  0.39766711363E+02  0.71824144673E+00  0.71099397014E+02  0.47000000000E+01 0. -1.
        -11    1    4    4    0    0  0.22917961945E+01 -0.20962695400E+02 -0.12586733426E+02  0.24558354721E+02  0.00000000000E+00 0.  1.
         12    1    4    4    0    0  0.56249470784E+02  0.71585198452E+02 -0.74692486097E+02  0.11775997232E+03  0.00000000000E+00 0. -1.
         -5    1    5    5    0  502 -0.52759391032E+02 -0.93151640476E+00  0.12207120757E+03  0.13307099903E+03  0.47000000000E+01 0.  1.
         13    1    6    6    0    0  0.43614647142E+02 -0.97960195296E+02  0.45877724144E+03  0.47114222329E+03  0.00000000000E+00 0. -1.
        -14    1    6    6    0    0  0.93497708574E+01  0.85024972851E+01  0.20256551034E+03  0.20295934730E+03  0.00000000000E+00 0.  1.
</event>
<event>
12    1  0.8133495E-002  0.1935855E+03  0.7818608E-02  0.1158967E+00
         21   -1    0    0  503  502  0.00000000000E+00  0.00000000000E+00  0.49783356149E+03  0.49783356149E+03  0.00000000000E+00 0. -1.
         21   -1    0    0  501  503 -0.00000000000E+00 -0.00000000000E+00 -0.14115947179E+03  0.14115947179E+03  0.00000000000E+00 0. -1.
          6    2    1    2  501    0 -0.29079980059E+02  0.19374503397E+02 -0.53512556916E+02  0.18542008080E+03  0.17405745026E+03 0.  0.
         24    2    3    3    0    0 -0.56625726504E+02 -0.22910116797E+02 -0.80459097404E+02  0.12801830995E+03  0.78636346387E+02 0.  0.
         -6    2    1    2    0  502  0.29079980059E+02 -0.19374503397E+02  0.41018664662E+03  0.45357295248E+03  0.19040567622E+03 0.  0.
        -24    2    5    5    0    0 -0.39347838889E+02 -0.62037270997E+02  0.18869474524E+03  0.21781199192E+03  0.80246380155E+02 0.  0.
          5    1    3    3  501    0  0.27545746445E+02  0.42284620194E+02  0.26946540488E+02  0.57401770848E+02  0.47000000000E+01 0. -1.
        -13    1    4    4    0    0 -0.47763249957E+02  0.22854489108E+02 -0.41892014240E+02  0.67517379807E+02  0.00000000000E+00 0.  1.
         14    1    4    4    0    0 -0.88624765466E+01 -0.45764605905E+02 -0.38567083164E+02  0.60500930141E+02  0.00000000000E+00 0. -1.
         -5    1    5    5    0  502  0.68427818947E+02  0.42662767600E+02  0.22149190138E+03  0.23576096056E+03  0.47000000000E+01 0.  1.
         11    1    6    6    0    0 -0.57902892233E+02 -0.21040513558E+02  0.86984680282E+02  0.10659166357E+03  0.00000000000E+00 0. -1.
        -12    1    6    6    0    0  0.18555053345E+02 -0.40996757439E+02  0.10171006495E+03  0.11122032835E+03  0.00000000000E+00 0.  1.
</event>
<event>
12    1  0.8133495E-002  0.2447374E+03  0.7818608E-02  0.1116926E+00
         21   -1    0    0  503  502  0.00000000000E+00  0.00000000000E+00  0.26249338189E+03  0.26249338189E+03  0.00000000000E+00 0.  1.
         21   -1    0    0  501  503 -0.00000000000E+00 -0.00000000000E+00 -0.22689920191E+03  0.22689920191E+03  0.00000000000E+00 0. -1.
          6    2    1    2  501    0 -0.14346526706E+03 -0.98031005241E+02  0.11584045046E+02  0.24348021482E+03  0.17016481442E+03 0.  0.
         24    2    3    3    0    0 -0.61651301239E+02 -0.12676930261E+03 -0.39296209945E+01  0.15526355781E+03  0.64961461155E+02 0.  0.
         -6    2    1    2    0  502  0.14346526706E+03  0.98031005241E+02  0.24010134936E+02  0.24591236898E+03  0.17234861705E+03 0.  0.
        -24    2    5    5    0    0  0.81363094175E+02  0.18325599745E+02  0.69472996334E+02  0.13501334595E+03  0.80289013359E+02 0.  0.
          5    1    3    3  501    0 -0.81813965823E+02  0.28738297367E+02  0.15513666040E+02  0.88216657005E+02  0.47000000000E+01 0. -1.
        -13    1    4    4    0    0 -0.24485521324E+02 -0.81874849930E+02  0.26557329876E+02  0.89489237206E+02  0.00000000000E+00 0.  1.
         14    1    4    4    0    0 -0.37165779915E+02 -0.44894452678E+02 -0.30486950870E+02  0.65774320607E+02  0.00000000000E+00 0. -1.
         -5    1    5    5    0  502  0.62102172886E+02  0.79705405496E+02 -0.45462861398E+02  0.11089902303E+03  0.47000000000E+01 0.  1.
         11    1    6    6    0    0 -0.14877964630E+02 -0.19690750211E+01  0.19740309494E+02  0.24797397180E+02  0.00000000000E+00 0. -1.
        -12    1    6    6    0    0  0.96241058805E+02  0.20294674766E+02  0.49732686840E+02  0.11021594877E+03  0.00000000000E+00 0.  1.
</event>
<event>
12    1  0.8133495E-002  0.1731104E+03  0.7818608E-02  0.1174854E+00
         21   -1    0    0  501  502  0.00000000000E+00  0.00000000000E+00  0.29732215118E+03  0.29732215118E+03  0.00000000000E+00 0. -1.
         21   -1    0    0  502  503 -0.00000000000E+00 -0.00000000000E+00 -0.20285513118E+03  0.20285513118E+03  0.00000000000E+00 0. -1.
         -6    2    1    2    0  503  0.57103534217E+01 -0.11784528654E+02 -0.13052202973E+03  0.21680219954E+03  0.17261433959E+03 0.  0.
        -24    2    3    3    0    0  0.29514478141E+02 -0.98415801901E+01  0.49400321532E+01  0.79170547619E+02  0.72633398461E+02 0.  0.
          6    2    1    2  501    0 -0.57103534217E+01  0.11784528654E+02  0.22498904973E+03  0.28337508282E+03  0.17178440503E+03 0.  0.
         24    2    5    5    0    0  0.62995252400E+02  0.83132978660E+01  0.12363830963E+03  0.16079216299E+03  0.80809500212E+02 0.  0.
          5    1    5    5  501    0 -0.68705605822E+02  0.34712307881E+01  0.10135074010E+03  0.12258291982E+03  0.47000000000E+01 0. -1.
        -11    1    6    6    0    0  0.15268592341E+02 -0.34735647585E+02  0.54338255409E+02  0.66274739729E+02  0.00000000000E+00 0.  1.
         12    1    6    6    0    0  0.47726660059E+02  0.43048945451E+02  0.69300054223E+02  0.94517423263E+02  0.00000000000E+00 0. -1.
         -5    1    3    3    0  503 -0.23804124720E+02 -0.19429484641E+01 -0.13546206188E+03  0.13763165192E+03  0.47000000000E+01 0.  1.
         11    1    4    4    0    0  0.29602760977E+02 -0.30644859146E+02 -0.19684075752E+02  0.46934994277E+02  0.00000000000E+00 0. -1.
        -12    1    4    4    0    0 -0.88282835937E-01  0.20803278956E+02  0.24624107905E+02  0.32235553342E+02  0.00000000000E+00 0.  1.
</event>
<event>
12    1  0.8133495E-002  0.1785530E+03  0.7818608E-02  0.1169497E+00
         21   -1    0    0  501  502  0.00000000000E+00  0.00000000000E+00  0.76483174774E+02  0.76483174774E+02  0.00000000000E+00 0. -1.
         21   -1    0    0  502  503 -0.00000000000E+00 -0.00000000000E+00 -0.51165829281E+03  0.51165829281E+03  0.00000000000E+00 0. -1.
         -6    2    1    2    0  503  0.32582400131E+02 -0.33830883001E+02 -0.34540469935E+03  0.38829178668E+03  0.17105544079E+03 0.  0.
        -24    2    3    3    0    0  0.40225867047E+02  0.14731297505E+02 -0.32332110479E+03  0.33419480792E+03  0.72900626410E+02 0.  0.
          6    2    1    2  501    0 -0.32582400131E+02  0.33830883001E+02 -0.89770418685E+02  0.19984968091E+03  0.17226440563E+03 0.  0.
         24    2    5    5    0    0 -0.32517171519E+02  0.29854275031E+01  0.15848381388E+02  0.89718544040E+02  0.82048563248E+02 0.  0.
          5    1    5    5  501    0 -0.65228611946E-01  0.30845455498E+02 -0.10561880007E+03  0.11013113687E+03  0.47000000000E+01 0. -1.
        -13    1    6    6    0    0  0.26250961275E+01 -0.35816211873E+02  0.78594091672E+01  0.36762242519E+02  0.00000000000E+00 0.  1.
         14    1    6    6    0    0 -0.35142267647E+02  0.38801639376E+02  0.79889722203E+01  0.52956301521E+02  0.00000000000E+00 0. -1.
         -5    1    3    3    0  503 -0.76434669158E+01 -0.48562180506E+02 -0.22083594564E+02  0.54096978759E+02  0.47000000000E+01 0.  1.
         13    1    4    4    0    0  0.38320550319E+02 -0.74869231248E+01 -0.72164691727E+02  0.82050358480E+02  0.00000000000E+00 0. -1.
        -14    1    4    4    0    0  0.19053167278E+01  0.22218220630E+02 -0.25115641306E+03  0.25214444944E+03  0.00000000000E+00 0.  1.
</event>
<event>
12    1  0.8133495E-002  0.1973551E+03  0.7818608E-02  0.1153378E+00
         21   -1    0    0  503  502  0.00000000000E+00  0.00000000000E+00  0.37197811236E+03  0.37197811236E+03  0.00000000000E+00 0. -1.
         21   -1    0    0  501  503 -0.00000000000E+00 -0.00000000000E+00 -0.15245006688E+03  0.15245006688E+03  0.00000000000E+00 0.  1.
          6    2    1    2  501    0 -0.73309006482E+02  0.41118210777E+02 -0.43208958570E+02  0.19582540569E+03  0.17150993477E+03 0.  0.
         24    2    3    3    0    0 -0.69182282047E+02  0.29948371306E+02  0.35409851433E+02  0.11617113742E+03  0.80986310552E+02 0.  0.
         -6    2    1    2    0  502  0.73309006482E+02 -0.41118210777E+02  0.26273700405E+03  0.32860277355E+03  0.17856128302E+03 0.  0.
        -24    2    5    5    0    0  0.20514589775E+02 -0.16706256588E+02  0.27616587989E+02  0.86348993403E+02  0.77417861806E+02 0.  0.
          5    1    3    3  501    0 -0.41267244354E+01  0.11169839471E+02 -0.78618810003E+02  0.79654268276E+02  0.47000000000E+01 0. -1.
        -11    1    4    4    0    0 -0.24657929345E+02 -0.28070763199E+02  0.14809178898E+02  0.40190707954E+02  0.00000000000E+00 0.  1.
         12    1    4    4    0    0 -0.44524352701E+02  0.58019134506E+02  0.20600672534E+02  0.75980429461E+02  0.00000000000E+00 0. -1.
         -5    1    5    5    0  502  0.52794416707E+02 -0.24411954188E+02  0.23512041607E+03  0.24225378014E+03  0.47000000000E+01 0.  1.
         11    1    6    6    0    0  0.71793854371E+01 -0.27753241178E+02  0.50249434710E+02  0.57851462037E+02  0.00000000000E+00 0. -1.
        -12    1    6    6    0    0  0.13335204338E+02  0.11046984589E+02 -0.22632846721E+02  0.28497531366E+02  0.00000000000E+00 0.  1.
</event>
<event>
12    1  0.8133495E-002  0.2089281E+03  0.7818608E-02  0.1142483E+00
         21   -1    0    0  503  502  0.00000000000E+00  0.00000000000E+00  0.31009137664E+03  0.31009137664E+03  0.00000000000E+00 0.  1.
         21   -1    0    0  501  503 -0.00000000000E+00 -0.00000000000E+00 -0.15084237266E+03  0.15084237266E+03  0.00000000000E+00 0.  1.
          6    2    1    2  501    0  0.96433909659E+01  0.11819120630E+03  0.19471778550E+02  0.20983349964E+03  0.17201392727E+03 0.  0.
         24    2    3    3    0    0  0.15429362179E+02  0.54698580908E+02 -0.53006246527E+02  0.11319010845E+03  0.82294219171E+02 0.  0.
         -6    2    1    2    0  502 -0.96433909659E+01 -0.11819120630E+03  0.13977722543E+03  0.25110024966E+03  0.17161441197E+03 0.  0.
        -24    2    5    5    0    0 -0.19268747377E+02 -0.15134100782E+03  0.10444086758E+03  0.20147863126E+03  0.80064716071E+02 0.  0.
          5    1    3    3  501    0 -0.57859712133E+01  0.63492625389E+02  0.72478025077E+02  0.96643391190E+02  0.47000000000E+01 0. -1.
        -11    1    4    4    0    0  0.77631502027E+01  0.75123481621E+02 -0.29393449986E+02  0.81041834222E+02  0.00000000000E+00 0.  1.
         12    1    4    4    0    0  0.76662119765E+01 -0.20424900713E+02 -0.23612796540E+02  0.32148274226E+02  0.00000000000E+00 0. -1.
         -5    1    5    5    0  502  0.96253564113E+01  0.33149801522E+02  0.35336357855E+02  0.49621618408E+02  0.47000000000E+01 0.  1.
         13    1    6    6    0    0 -0.47442622087E+02 -0.63338778075E+02  0.38814148635E+02  0.88142732728E+02  0.00000000000E+00 0. -1.
        -14    1    6    6    0    0  0.28173874710E+02 -0.88002229744E+02  0.65626718942E+02  0.11333589853E+03  0.00000000000E+00 0.  1.
</event>
<event>
12    1  0.8133495E-002  0.1751013E+03  0.7818608E-02  0.1173177E+00
         21   -1    0    0  503  502  0.00000000000E+00  0.00000000000E+00  0.72085693581E+03  0.72085693581E+03  0.00000000000E+00 0. -1.
         21   -1    0    0  501  503 -0.00000000000E+00 -0.00000000000E+00 -0.27615910912E+03  0.27615910912E+03  0.00000000000E+00 0. -1.
          6    2    1    2  501    0 -0.48146151325E+00  0.31409913929E+02 -0.23688852162E+03  0.29329704989E+03  0.17005932288E+03 0.  0.
         24    2    3    3    0    0 -0.18249673649E+02 -0.40002308291E+02 -0.76727986446E+02  0.11697659766E+03  0.76570916408E+02 0.  0.
         -6    2    1    2    0  502  0.48146151325E+00 -0.31409913929E+02  0.68158634832E+03  0.70371899504E+03  0.17226044025E+03 0.  0.
        -24    2    5    5    0    0 -0.38102709429E+02 -0.55839406880E+02  0.60771632009E+03  0.61674538156E+03  0.80534987038E+02 0.  0.
          5    1    3    3  501    0  0.17768212136E+02  0.71412222220E+02 -0.16016053518E+03  0.17632045223E+03  0.47000000000E+01 0. -1.
        -11    1    4    4    0    0  0.14157437509E+02 -0.21371468315E+02 -0.75326819471E+02  0.79569481752E+02  0.00000000000E+00 0.  1.
         12    1    4    4    0    0 -0.32407111158E+02 -0.18630839975E+02 -0.14011669752E+01  0.37407115910E+02  0.00000000000E+00 0. -1.
         -5    1    5    5    0  502  0.38584170943E+02  0.24429492951E+02  0.73870028223E+02  0.86973613486E+02  0.47000000000E+01 0.  1.
         13    1    6    6    0    0  0.16613547207E+02 -0.39042551115E+02  0.16602890715E+03  0.17136489943E+03  0.00000000000E+00 0. -1.
        -14    1    6    6    0    0 -0.54716256636E+02 -0.16796855765E+02  0.44168741295E+03  0.44538048213E+03  0.00000000000E+00 0.  1.
</event>
<event>
12    1  0.8133495E-002  0.2366207E+03  0.7818608E-02  0.1122726E+00
         21   -1    0    0  503  502  0.00000000000E+00  0.00000000000E+00  0.84369490457E+02  0.84369490457E+02  0.00000000000E+00 0. -1.
         21   -1    0    0  501  503 -0.00000000000E+00 -0.00000000000E+00 -0.69614000620E+03  0.69614000620E+03  0.00000000000E+00 0.  1.
          6    2    1    2  501    0  0.14560640921E+03  0.60158979977E+02 -0.40559382293E+03  0.46956971815E+03  0.17654756225E+03 0.  0.
         24    2    3    3    0    0  0.12643426295E+03  0.88810944584E+02 -0.39497872540E+03  0.43319284963E+03  0.88175079963E+02 0.  0.
         -6    2    1    2    0  502 -0.14560640921E+03 -0.60158979977E+02 -0.20617669281E+03  0.31093977850E+03  0.17133122284E+03 0.  0.
        -24    2    5    5    0    0 -0.13705267212E+03 -0.46777481897E+02 -0.73745863819E+02  0.17747725426E+03  0.71331308695E+02 0.  0.
          5    1    3    3  501    0  0.19172146259E+02 -0.28651964607E+02 -0.10615097524E+02  0.36376868522E+02  0.47000000000E+01 0. -1.
        -11    1    4    4    0    0  0.50667527867E+01  0.47905863001E+02 -0.13590650857E+03  0.14419161822E+03  0.00000000000E+00 0.  1.
         12    1    4    4    0    0  0.12136751016E+03  0.40905081583E+02 -0.25907221683E+03  0.28900123141E+03  0.00000000000E+00 0. -1.
         -5    1    5    5    0  502 -0.85537370873E+01 -0.13381498080E+02 -0.13243082899E+03  0.13346252424E+03  0.47000000000E+01 0.  1.
         13    1    6    6    0    0 -0.91786338039E+02 -0.64191663106E+02 -0.42579101085E+02  0.11982604605E+03  0.00000000000E+00 0. -1.
        -14    1    6    6    0    0 -0.45266334082E+02  0.17414181209E+02 -0.31166762734E+02  0.57651208206E+02  0.00000000000E+00 0.  1.
</event>
<event>
12    1  0.8133495E-002  0.3143857E+03  0.7818608E-02  0.1078869E+00
         21   -1    0    0  501  502  0.00000000000E+00  0.00000000000E+00  0.19586391629E+03  0.19586391629E+03  0.00000000000E+00 0.  1.
         21   -1    0    0  502  503 -0.00000000000E+00 -0.00000000000E+00 -0.64489155375E+03  0.64489155375E+03  0.00000000000E+00 0. -1.
         -6    2    1    2    0  503  0.26045966564E+03 -0.30519541717E+02 -0.42476910816E+03  0.52543521336E+03  0.16395941064E+03 0.  0.
        -24    2    3    3    0    0  0.12797746640E+03  0.42833891663E+02 -0.19563072565E+03  0.25073765668E+03  0.79906304372E+02 0.  0.
          6    2    1    2  501    0 -0.26045966564E+03  0.30519541717E+02 -0.24258529299E+02  0.31532025669E+03  0.17340042729E+03 0.  0.
         24    2    5    5    0    0 -0.74700567756E+02  0.59886234931E+02 -0.16318622264E+01  0.12583964771E+03  0.81648135339E+02 0.  0.
          5    1    5    5  501    0 -0.18575909788E+03 -0.29366693214E+02 -0.22626667073E+02  0.18948060898E+03  0.47000000000E+01 0. -1.
        -11    1    6    6    0    0 -0.83784249351E+02  0.59233106888E+02  0.18021837979E+02  0.10417844324E+03  0.00000000000E+00 0.  1.
         12    1    6    6    0    0  0.90836815943E+01  0.65312804358E+00 -0.19653700206E+02  0.21661204475E+02  0.00000000000E+00 0. -1.
         -5    1    3    3    0  503  0.13248219924E+03 -0.73353433380E+02 -0.22913838251E+03  0.27469755668E+03  0.47000000000E+01 0.  1.
         11    1    4    4    0    0  0.59254743807E+02 -0.20486282485E+02 -0.90280445209E+02  0.10991529111E+03  0.00000000000E+00 0. -1.
        -12    1    4    4    0    0  0.68722722594E+02  0.63320174148E+02 -0.10535028044E+03  0.14082236557E+03  0.00000000000E+00 0.  1.
</event>
<event>
12    1  0.8133495E-002  0.1933407E+03  0.7818608E-02  0.1155945E+00
         21   -1    0    0  501  502  0.00000000000E+00  0.00000000000E+00  0.14846785274E+04  0.14846785274E+04  0.00000000000E+00 0.  1.
         21   -1    0    0  502  503 -0.00000000000E+00 -0.00000000000E+00 -0.26921794033E+02  0.26921794033E+02  0.00000000000E+00 0.  1.
         -6    2    1    2    0  503 -0.83260583135E+02  0.60630080050E+01  0.51841911583E+03  0.55257175539E+03  0.17206998702E+03 0.  0.
        -24    2    3    3    0    0 -0.93995904096E+01  0.35356126013E+02  0.40326334730E+03  0.41258434869E+03  0.79158761776E+02 0.  0.
          6    2    1    2  501    0  0.83260583135E+02 -0.60630080050E+01  0.93933761757E+03  0.95902856607E+03  0.17438906499E+03 0.  0.
         24    2    5    5    0    0  0.72761559851E+02  0.56075213795E+02  0.46881566139E+03  0.48428190800E+03  0.79386194397E+02 0.  0.
          5    1    5    5  501    0  0.10499023284E+02 -0.62138221800E+02  0.47052195618E+03  0.47474665807E+03  0.47000000000E+01 0. -1.
        -11    1    6    6    0    0  0.43930872829E+02  0.36457246448E+02  0.42232518996E+03  0.42616618645E+03  0.00000000000E+00 0.  1.
         12    1    6    6    0    0  0.28830687021E+02  0.19617967347E+02  0.46490471433E+02  0.58115721548E+02  0.00000000000E+00 0. -1.
         -5    1    3    3    0  503 -0.73860992725E+02 -0.29293118008E+02  0.11515576853E+03  0.13998740670E+03  0.47000000000E+01 0.  1.
         11    1    4    4    0    0 -0.17882035483E+02  0.40469298241E+02  0.10229554024E+03  0.11145361747E+03  0.00000000000E+00 0. -1.
        -12    1    4    4    0    0  0.84824450732E+01 -0.51131722274E+01  0.30096780705E+03  0.30113073122E+03  0.00000000000E+00 0.  1.
</event>
<event>
12    1  0.8133495E-002  0.1782746E+03  0.7818608E-02  0.1170094E+00
         21   -1    0    0  503  502  0.00000000000E+00  0.00000000000E+00  0.12491127572E+03  0.12491127572E+03  0.00000000000E+00 0.  1.
         21   -1    0    0  501  503 -0.00000000000E+00 -0.00000000000E+00 -0.26788710360E+03  0.26788710360E+03  0.00000000000E+00 0.  1.
          6    2    1    2  501    0 -0.36388984416E+01  0.44506306888E+02 -0.12138470551E+03  0.21567590398E+03  0.17259141314E+03 0.  0.
         24    2    3    3    0    0  0.28337328593E+02  0.77318477896E+02 -0.12440448586E+03  0.16952044130E+03  0.80495668832E+02 0.  0.
         -6    2    1    2    0  502  0.36388984416E+01 -0.44506306888E+02 -0.21591122373E+02  0.17712247534E+03  0.17003570734E+03 0.  0.
        -24    2    5    5    0    0  0.39485646920E+02  0.75662724801E+01  0.31348869709E+02  0.94531460937E+02  0.79605782974E+02 0.  0.
          5    1    3    3  501    0 -0.31976227034E+02 -0.32812171009E+02  0.30197803489E+01  0.46155462678E+02  0.47000000000E+01 0. -1.
        -11    1    4    4    0    0 -0.66273112291E+00 -0.13781302987E+02 -0.16008817638E+01  0.13889792907E+02  0.00000000000E+00 0.  1.
         12    1    4    4    0    0  0.29000059715E+02  0.91099780884E+02 -0.12280360409E+03  0.15563064839E+03  0.00000000000E+00 0. -1.
         -5    1    5    5    0  502 -0.35846748479E+02 -0.52072579368E+02 -0.52939992082E+02  0.82591014403E+02  0.47000000000E+01 0.  1.
         11    1    6    6    0    0  0.26628123633E+00 -0.80113813566E+01  0.48368956314E+02  0.49028655620E+02  0.00000000000E+00 0. -1.
        -12    1    6    6    0    0  0.39219365684E+02  0.15577653837E+02 -0.17020086605E+02  0.45502805317E+02  0.00000000000E+00 0.  1.
</event>
<event>
12    1  0.8133495E-002  0.2511869E+03  0.7818608E-02  0.1112862E+00
         21   -1    0    0  501  502  0.00000000000E+00  0.00000000000E+00  0.57809696401E+03  0.57809696401E+03  0.00000000000E+00 0.  1.
         21   -1    0    0  502  503 -0.00000000000E+00 -0.00000000000E+00 -0.16564141513E+03  0.16564141513E+03  0.00000000000E+00 0. -1.
         -6    2    1    2    0  503  0.15959364258E+03  0.88292265397E+02 -0.12038070083E+02  0.25147522284E+03  0.17271137106E+03 0.  0.
        -24    2    3    3    0    0  0.29089237760E+02  0.61055155741E+02 -0.45540104769E+02  0.11393346138E+03  0.79580253097E+02 0.  0.
          6    2    1    2  501    0 -0.15959364258E+03 -0.88292265397E+02  0.42449361896E+03  0.49226315630E+03  0.16988975140E+03 0.  0.
         24    2    5    5    0    0 -0.15329574532E+03 -0.48102828415E+02  0.41193084896E+03  0.44942896966E+03  0.80535127816E+02 0.  0.
          5    1    5    5  501    0 -0.62978972540E+01 -0.40189436982E+02  0.12562770001E+02  0.42834186637E+02  0.47000000000E+01 0. -1.
        -11    1    6    6    0    0 -0.12635076048E+03 -0.54405753903E+01  0.25595701177E+03  0.28549624588E+03  0.00000000000E+00 0.  1.
         12    1    6    6    0    0 -0.26944984846E+02 -0.42662253025E+02  0.15597383718E+03  0.16393272378E+03  0.00000000000E+00 0. -1.
         -5    1    3    3    0  503  0.13050440482E+03  0.27237109656E+02  0.33502034686E+02  0.13754176146E+03  0.47000000000E+01 0.  1.
         13    1    4    4    0    0  0.48545842214E+02  0.67928317728E+02 -0.32936632611E+02  0.89753979931E+02  0.00000000000E+00 0. -1.
        -14    1    4    4    0    0 -0.19456604454E+02 -0.68731619875E+01 -0.12603472159E+02  0.24179481447E+02  0.00000000000E+00 0.  1.
</event>
<event>
12    1  0.8133495E-002  0.1889033E+03  0.7818608E-02  0.1160225E+00
         21   -1    0    0  503  502  0.00000000000E+00  0.00000000000E+00  0.95720150994E+02  0.95720150994E+02  0.00000000000E+00 0.  1.
         21   -1    0    0  501  503 -0.00000000000E+00 -0.00000000000E+00 -0.37748371606E+03  0.37748371606E+03  0.00000000000E+00 0.  1.
          6    2    1    2  501    0  0.69391467572E+02 -0.98601178575E+01 -0.18301922011E+03  0.26302186225E+03  0.17541968931E+03 0.  0.
         24    2    3    3    0    0  0.87349207459E+02 -0.59309434226E+02 -0.14932162813E+03  0.20036938412E+03  0.81874589662E+02 0.  0.
         -6    2    1    2    0  502 -0.69391467572E+02  0.98601178575E+01 -0.98744344956E+02  0.21018200480E+03  0.17179531945E+03 0.  0.
        -24    2    5    5    0    0 -0.88411032666E+02  0.57815449479E+02 -0.60479517778E+02  0.14577901818E+03  0.80216040628E+02 0.  0.
          5    1    3    3  501    0 -0.17957739886E+02  0.49449316368E+02 -0.33697591975E+02  0.62652478132E+02  0.47000000000E+01 0. -1.
        -11    1    4    4    0    0  0.70513065724E+01  0.17384335159E+00 -0.76244414771E+02  0.76569980604E+02  0.00000000000E+00 0.  1.
         12    1    4    4    0    0  0.80297900886E+02 -0.59483277577E+02 -0.73077213362E+02  0.12379940352E+03  0.00000000000E+00 0. -1.
         -5    1    5    5    0  502  0.19019565093E+02 -0.47955331621E+02 -0.38264827177E+02  0.64402986625E+02  0.47000000000E+01 0.  1.
         11    1    6    6    0    0 -0.18139795844E+02  0.59632995639E+02 -0.29545718672E+02  0.68978952254E+02  0.00000000000E+00 0. -1.
        -12    1    6    6    0    0 -0.70271236821E+02 -0.18175461602E+01 -0.30933799107E+02  0.76800065922E+02  0.00000000000E+00 0.  1.
</event>
<event>
12    1  0.8133495E-002  0.2030858E+03  0.7818608E-02  0.1147166E+00
         21   -1    0    0  503  502  0.00000000000E+00  0.00000000000E+00  0.60872019767E+03  0.60872019767E+03  0.00000000000E+00 0. -1.
         21   -1    0    0  501  503 -0.00000000000E+00 -0.00000000000E+00 -0.13180282531E+03  0.13180282531E+03  0.00000000000E+00 0. -1.
          6    2    1    2  501    0  0.64297943173E+01  0.10750586389E+03 -0.19656632624E+02  0.20403490263E+03  0.17217724954E+03 0.  0.
         24    2    3    3    0    0 -0.43400753718E+02  0.61528944815E+02 -0.61144266897E+02  0.12440906259E+03  0.77907361692E+02 0.  0.
         -6    2    1    2    0  502 -0.64297943173E+01 -0.10750586389E+03  0.49657400498E+03  0.53648812035E+03  0.17214792426E+03 0.  0.
        -24    2    5    5    0    0  0.28821897844E+02 -0.97221644565E+02  0.47748249339E+03  0.49483451567E+03  0.81172140816E+02 0.  0.
          5    1    3    3  501    0  0.49830548035E+02  0.45976919075E+02  0.41487634274E+02  0.79625840044E+02  0.47000000000E+01 0. -1.
        -13    1    4    4    0    0  0.46119065847E+00 -0.17672702887E+02 -0.77679809171E+01  0.19310066072E+02  0.00000000000E+00 0.  1.
         14    1    4    4    0    0 -0.43861944376E+02  0.79201647703E+02 -0.53376285980E+02  0.10509899651E+03  0.00000000000E+00 0. -1.
         -5    1    5    5    0  502 -0.35251692161E+02 -0.10284219326E+02  0.19091511591E+02  0.41653604672E+02  0.47000000000E+01 0.  1.
         13    1    6    6    0    0 -0.85304897143E+01 -0.89042757852E+02  0.28957428657E+03  0.30307531972E+03  0.00000000000E+00 0. -1.
        -14    1    6    6    0    0  0.37352387558E+02 -0.81788867130E+01  0.18790820681E+03  0.19175919595E+03  0.00000000000E+00 0.  1.
</event>
<event>
12    1  0.8133495E-002  0.2309524E+03  0.7818608E-02  0.1126478E+00
         21   -1    0    0  501  502  0.00000000000E+00  0.00000000000E+00  0.97958121587E+03  0.97958121587E+03  0.00000000000E+00 0. -1.
         21   -1    0    0  502  503 -0.00000000000E+00 -0.00000000000E+00 -0.73488241857E+02  0.73488241857E+02  0.00000000000E+00 0. -1.
         -6    2    1    2    0  503  0.15242854265E+03  0.24158220877E+02  0.18242082333E+03  0.29430659919E+03  0.17181658038E+03 0.  0.
        -24    2    3    3    0    0  0.15955375013E+03  0.28808383378E+02  0.20294071565E+03  0.27160090444E+03  0.79339744729E+02 0.  0.
          6    2    1    2  501    0 -0.15242854265E+03 -0.24158220877E+02  0.72367215068E+03  0.75876285853E+03  0.16793336050E+03 0.  0.
         24    2    5    5    0    0 -0.13672832390E+02 -0.34870459040E+02  0.28989184513E+03  0.30318043716E+03  0.80487268234E+02 0.  0.
          5    1    5    5  501    0 -0.13875571026E+03  0.10712238163E+02  0.43378030555E+03  0.45558242137E+03  0.47000000000E+01 0. -1.
        -13    1    6    6    0    0 -0.17052746461E+02  0.55954323826E+01  0.10376821130E+02  0.20731219023E+02  0.00000000000E+00 0.  1.
         14    1    6    6    0    0  0.33799140711E+01 -0.40465891422E+02  0.27951502400E+03  0.28244921814E+03  0.00000000000E+00 0. -1.
         -5    1    3    3    0  503 -0.71252074781E+01 -0.46501625008E+01 -0.20519892323E+02  0.22705694745E+02  0.47000000000E+01 0.  1.
         11    1    4    4    0    0  0.93291291921E+02  0.39874371121E+02  0.71920843918E+02  0.12436172406E+03  0.00000000000E+00 0. -1.
        -12    1    4    4    0    0  0.66262458206E+02 -0.11065987743E+02  0.13101987173E+03  0.14723918039E+03  0.00000000000E+00 0.  1.
</event>
<event>
12    1  0.8133495E-002  0.1896886E+03  0.7818608E-02  0.1158783E+00
         21   -1    0    0  501  502  0.00000000000E+00  0.00000000000E+00  0.21209726713E+03  0.21209726713E+03  0.00000000000E+00 0.  1.
         21   -1    0    0  502  503 -0.00000000000E+00 -0.00000000000E+00 -0.16954127565E+03  0.16954127565E+03  0.00000000000E+00 0.  1.
         -6    2    1    2    0  503 -0.70866365845E+02  0.40634391085E+02  0.17921271543E+02  0.19035696614E+03  0.17100119017E+03 0.  0.
        -24    2    3    3    0    0  0.12194563801E+02 -0.18962027975E+02 -0.12973064635E+02  0.83457942732E+02  0.79301083901E+02 0.  0.
          6    2    1    2  501    0  0.70866365845E+02 -0.40634391085E+02  0.24634719936E+02  0.19128157663E+03  0.17119747833E+03 0.  0.
         24    2    5    5    0    0  0.39204029347E+02 -0.90093744684E+02  0.21972593538E+02  0.13230778476E+03  0.85841227235E+02 0.  0.
          5    1    5    5  501    0  0.31662336499E+02  0.49459353599E+02  0.26621263985E+01  0.58973791874E+02  0.47000000000E+01 0. -1.
        -11    1    6    6    0    0 -0.26450874938E+02 -0.25198006035E+02 -0.30577934051E+01  0.36659765325E+02  0.00000000000E+00 0.  1.
         12    1    6    6    0    0  0.65654904285E+02 -0.64895738649E+02  0.25030386943E+02  0.95648019436E+02  0.00000000000E+00 0. -1.
         -5    1    3    3    0  503 -0.83060929646E+02  0.59596419059E+02  0.30894336178E+02  0.10689902341E+03  0.47000000000E+01 0.  1.
         13    1    4    4    0    0 -0.10206110020E+02 -0.36756943031E+02 -0.31417030990E+02  0.49419301684E+02  0.00000000000E+00 0. -1.
        -14    1    4    4    0    0  0.22400673821E+02  0.17794915057E+02  0.18443966355E+02  0.34038641048E+02  0.00000000000E+00 0.  1.
</event>
<event>
12    1  0.8133495E-002  0.1924540E+03  0.7818608E-02  0.1158065E+00
         21   -1    0    0  503  502  0.00000000000E+00  0.00000000000E+00  0.13074449751E+04  0.13074449751E+04  0.00000000000E+00 0. -1.
         21   -1    0    0  501  503 -0.00000000000E+00 -0.00000000000E+00 -0.78599419697E+02  0.78599419697E+02  0.00000000000E+00 0. -1.
          6    2    1    2  501    0 -0.40897557796E+02 -0.52738949254E+02  0.49428615737E+02  0.19102855141E+03  0.17203113788E+03 0.  0.
         24    2    3    3    0    0 -0.20701202275E+02  0.47314998991E+01 -0.32888195879E+02  0.88515660630E+02  0.79388046214E+02 0.  0.
         -6    2    1    2    0  502  0.40897557796E+02  0.52738949254E+02  0.11794169397E+04  0.11950158434E+04  0.18051188705E+03 0.  0.
        -24    2    5    5    0    0  0.60090492694E+02 -0.31704716504E+02  0.58445477510E+03  0.59376617087E+03  0.79717157307E+02 0.  0.
          5    1    3    3  501    0 -0.20196355522E+02 -0.57470449153E+02  0.82316811616E+02  0.10251289078E+03  0.47000000000E+01 0. -1.
        -13    1    4    4    0    0  0.10155973619E+02 -0.16088314878E+02  0.17512778030E+02  0.25858752292E+02  0.00000000000E+00 0.  1.
         14    1    4    4    0    0 -0.30857175893E+02  0.20819814777E+02 -0.50400973909E+02  0.62656908338E+02  0.00000000000E+00 0. -1.
         -5    1    5    5    0  502 -0.19192934897E+02  0.84443665758E+02  0.59496216462E+03  0.60124967257E+03  0.47000000000E+01 0.  1.
         13    1    6    6    0    0 -0.12610297126E+02 -0.17200983302E+02  0.26346820926E+03  0.26433007909E+03  0.00000000000E+00 0. -1.
        -14    1    6    6    0    0  0.72700789820E+02 -0.14503733201E+02  0.32098656584E+03  0.32943609178E+03  0.00000000000E+00 0.  1.
</event>
<event>
12    1  0.8133495E-002  0.2145818E+03  0.7818608E-02  0.1138006E+00
         21   -1    0    0  501  502  0.00000000000E+00  0.00000000000E+00  0.74149308998E+03  0.74149308998E+03  0.00000000000E+00 0. -1.
         21   -1    0    0  502  503 -0.00000000000E+00 -0.00000000000E+00 -0.62644373157E+02  0.62644373157E+02  0.00000000000E+00 0. -1.
         -6    2    1    2    0  503  0.11840836585E+03  0.51042787226E+02  0.30090537657E+03  0.36952667389E+03  0.17140597959E+03 0.  0.
        -24    2    3    3    0    0  0.75922923990E+02  0.76294562159E+02  0.10813107491E+03  0.17046214595E+03  0.76025411783E+02 0.  0.
          6    2    1    2  501    0 -0.11840836585E+03 -0.51042787226E+02  0.37794334026E+03  0.43461078925E+03  0.17152102627E+03 0.  0.
         24    2    5    5    0    0 -0.75932799122E+02  0.26494976419E+02  0.13479096594E+03  0.17584169198E+03  0.79271195170E+02 0.  0.
          5    1    5    5  501    0 -0.42475566733E+02 -0.77537763645E+02  0.24315237432E+03  0.25876909726E+03  0.47000000000E+01 0. -1.
        -13    1    6    6    0    0 -0.82861984970E+01  0.30109590526E+02  0.88353924554E+02  0.93710535754E+02  0.00000000000E+00 0.  1.
         14    1    6    6    0    0 -0.67646600625E+02 -0.36146141077E+01  0.46437041382E+02  0.82131156230E+02  0.00000000000E+00 0. -1.
         -5    1    3    3    0  503  0.42485441864E+02 -0.25251774932E+02  0.19277430166E+03  0.19906452795E+03  0.47000000000E+01 0.  1.
         13    1    4    4    0    0  0.21042280032E+02 -0.38197673296E+00  0.62029384113E+02  0.65502427044E+02  0.00000000000E+00 0. -1.
        -14    1    4    4    0    0  0.54880643958E+02  0.76676538891E+02  0.46101690801E+02  0.10495971890E+03  0.00000000000E+00 0.  1.
</event>
<event>
12    1  0.8133495E-002  0.2010981E+03  0.7818608E-02  0.1148885E+00
         21   -1    0    0  501  502  0.00000000000E+00  0.00000000000E+00  0.48861385355E+03  0.48861385355E+03  0.00000000000E+00 0. -1.
         21   -1    0    0  502  503 -0.00000000000E+00 -0.00000000000E+00 -0.10250784655E+03  0.10250784655E+03  0.00000000000E+00 0. -1.
         -6    2    1    2    0  503  0.56102842230E+02 -0.88036350708E+02  0.63027581798E+02  0.21074373485E+03  0.17187936978E+03 0.  0.
        -24    2    3    3    0    0  0.23593557833E+02 -0.12502120215E+03  0.54509299351E+02  0.16055026970E+03  0.81352126135E+02 0.  0.
          6    2    1    2  501    0 -0.56102842230E+02  0.88036350708E+02  0.32307842520E+03  0.38037796525E+03  0.17149285602E+03 0.  0.
         24    2    5    5    0    0 -0.53585796566E+02  0.52893748773E+01  0.23414294472E+03  0.25878435022E+03  0.96161355423E+02 0.  0.
          5    1    5    5  501    0 -0.25170456636E+01  0.82746975831E+02  0.88935480479E+02  0.12159361503E+03  0.47000000000E+01 0. -1.
        -11    1    6    6    0    0  0.13527876971E+02  0.31902152108E+02  0.48589141899E+02  0.59679606860E+02  0.00000000000E+00 0.  1.
         12    1    6    6    0    0 -0.67113673537E+02 -0.26612777231E+02  0.18555380282E+03  0.19910474336E+03  0.00000000000E+00 0. -1.
         -5    1    3    3    0  503  0.32509284397E+02  0.36984851438E+02  0.85182824477E+01  0.50193465150E+02  0.47000000000E+01 0.  1.
         13    1    4    4    0    0  0.16960947102E+02 -0.76005648217E+02 -0.10804425546E+02  0.78621039797E+02  0.00000000000E+00 0. -1.
        -14    1    4    4    0    0  0.66326107310E+01 -0.49015553929E+02  0.65313724896E+02  0.81929229900E+02  0.00000000000E+00 0.  1.
</event>
<event>
12    1  0.8133495E-002  0.1801180E+03  0.7818608E-02  0.1168453E+00
         21   -1    0    0  503  502  0.00000000000E+00  0.00000000000E+00  0.42615559865E+02  0.42615559865E+02  0.00000000000E+00 0.  1.
         21   -1    0    0  501  503 -0.00000000000E+00 -0.00000000000E+00 -0.75255529300E+03  0.75255529300E+03  0.00000000000E+00 0.  1.
          6    2    1    2  501    0  0.46583049380E+02  0.17805941914E+02 -0.38245743427E+03  0.42142342383E+03  0.16981454905E+03 0.  0.
         24    2    3    3    0    0 -0.16757661197E+02  0.28715341788E+01 -0.32397694081E+03  0.33380413220E+03  0.78581649128E+02 0.  0.
         -6    2    1    2    0  502 -0.46583049380E+02 -0.17805941914E+02 -0.32748229886E+03  0.37374742903E+03  0.17307643566E+03 0.  0.
        -24    2    5    5    0    0 -0.52314183422E+00  0.17854588214E+02 -0.63349666639E+02  0.10322695680E+03  0.79520842228E+02 0.  0.
          5    1    3    3  501    0  0.63340710577E+02  0.14934407735E+02 -0.58480493462E+02  0.87619291633E+02  0.47000000000E+01 0. -1.
        -11    1    4    4    0    0  0.26021281971E+02  0.16185153951E+02 -0.78445958623E+02  0.84218969051E+02  0.00000000000E+00 0.  1.
         12    1    4    4    0    0 -0.42778943168E+02 -0.13313619772E+02 -0.24553098219E+03  0.24958516315E+03  0.00000000000E+00 0. -1.
         -5    1    5    5    0  502 -0.46059907545E+02 -0.35660530128E+02 -0.26413263222E+03  0.27052047223E+03  0.47000000000E+01 0.  1.
         11    1    6    6    0    0  0.36228002825E+02  0.29694015154E+01 -0.11851984365E+02  0.38232905558E+02  0.00000000000E+00 0. -1.
        -12    1    6    6    0    0 -0.36751144659E+02  0.14885186699E+02 -0.51497682275E+02  0.64994051239E+02  0.00000000000E+00 0.  1.
</event>
<event>
12    1  0.8133495E-002  0.1823477E+03  0.7818608E-02  0.1165609E+00
         21   -1    0    0  501  502  0.00000000000E+00  0.00000000000E+00  0.15795826412E+03  0.15795826412E+03  0.00000000000E+00 0.  1.
         21   -1    0    0  502  503 -0.00000000000E+00 -0.00000000000E+00 -0.40502358061E+03  0.40502358061E+03  0.00000000000E+00 0.  1.
         -6    2    1    2    0  503 -0.59674940600E+02  0.32779428349E+01 -0.31870905747E+03  0.36706474071E+03  0.17201516537E+03 0.  0.
        -24    2    3    3    0    0 -0.52188561534E+02 -0.62768394688E+02 -0.20424463718E+03  0.23461717342E+03  0.81644527785E+02 0.  0.
          6    2    1    2  501    0  0.59674940600E+02 -0.32779428349E+01  0.71643740975E+02  0.19591710402E+03  0.17227548456E+03 0.  0.
         24    2    5    5    0    0  0.10691234065E+03  0.38794012323E+01  0.49992275027E+02  0.14325330701E+03  0.81098607087E+02 0.  0.
          5    1    5    5  501    0 -0.47237400046E+02 -0.71573440673E+01  0.21651465948E+02  0.52663797004E+02  0.47000000000E+01 0. -1.
        -13    1    6    6    0    0  0.16059213467E+02 -0.87749845435E+01 -0.20563342008E+02  0.27527254230E+02  0.00000000000E+00 0.  1.
         14    1    6    6    0    0  0.90853127179E+02  0.12654385776E+02  0.70555617034E+02  0.11572605278E+03  0.00000000000E+00 0. -1.
         -5    1    3    3    0  503 -0.74863790658E+01  0.66046337523E+02 -0.11446442028E+03  0.13244756730E+03  0.47000000000E+01 0.  1.
         11    1    4    4    0    0  0.71187586578E+01 -0.45085984592E+02 -0.13101867181E+03  0.13874190101E+03  0.00000000000E+00 0. -1.
        -12    1    4    4    0    0 -0.59307320192E+02 -0.17682410096E+02 -0.73225965368E+02  0.95875272407E+02  0.00000000000E+00 0.  1.
</event>
<event>
12    1  0.8133495E-002  0.2489252E+03  0.7818608E-02  0.1114056E+00
         21   -1    0    0  501  502  0.00000000000E+00  0.00000000000E+00  0.40646251116E+03  0.40646251116E+03  0.00000000000E+00 0. -1.
         21   -1    0    0  502  503 -0.00000000000E+00 -0.00000000000E+00 -0.31524639333E+03  0.31524639333E+03  0.00000000000E+00 0.  1.
         -6    2    1    2    0  503 -0.13773342492E+03  0.11402386937E+03 -0.21394573535E+03  0.32789737485E+03  0.17254556393E+03 0.  0.
        -24    2    3    3    0    0 -0.13079346122E+03  0.46512166585E+02 -0.20376171154E+03  0.25910931302E+03  0.79677411268E+02 0.  0.
          6    2    1    2  501    0  0.13773342492E+03 -0.11402386937E+03  0.30516185319E+03  0.39381152964E+03  0.17318148027E+03 0.  0.
         24    2    5    5    0    0  0.73726002317E+02 -0.83607044468E+02  0.78628344152E+02  0.15640543431E+03  0.76515240795E+02 0.  0.
          5    1    5    5  501    0  0.64007422607E+02 -0.30416824906E+02  0.22653350904E+03  0.23740609534E+03  0.47000000000E+01 0. -1.
        -11    1    6    6    0    0 -0.11845049359E+02 -0.28901365181E+02  0.66826384666E+01  0.31941380066E+02  0.00000000000E+00 0.  1.
         12    1    6    6    0    0  0.85571051676E+02 -0.54705679287E+02  0.71945705686E+02  0.12446405424E+03  0.00000000000E+00 0. -1.
         -5    1    3    3    0  503 -0.69399637046E+01  0.67511702788E+02 -0.10184023813E+02  0.68788061832E+02  0.47000000000E+01 0.  1.
         13    1    4    4    0    0 -0.81837908275E+02  0.37538810836E+02 -0.63221145532E+02  0.11001599335E+03  0.00000000000E+00 0. -1.
        -14    1    4    4    0    0 -0.48955552945E+02  0.89733557490E+01 -0.14054056601E+03  0.14909331967E+03  0.00000000000E+00 0.  1.
</event>
<event>
12    1  0.8133495E-002  0.2141682E+03  0.7818608E-02  0.1138550E+00
         21   -1    0    0  503  502  0.00000000000E+00  0.00000000000E+00  0.51961800322E+02  0.51961800322E+02  0.00000000000E+00 0.  1.
         21   -1    0    0  501  503 -0.00000000000E+00 -0.00000000000E+00 -0.10323757333E+04  0.10323757333E+04  0.00000000000E+00 0.  1.
          6    2    1    2  501    0  0.87281236725E+02 -0.91124123356E+02 -0.28147609658E+03  0.35369025988E+03  0.17305024372E+03 0.  0.
         24    2    3    3    0    0  0.91097891816E+02 -0.12723075316E+03 -0.21398499153E+03  0.27690878534E+03  0.80015050807E+02 0.  0.
         -6    2    1    2    0  502 -0.87281236725E+02  0.91124123356E+02 -0.69893783635E+03  0.73064727369E+03  0.17149262178E+03 0.  0.
        -24    2    5    5    0    0 -0.10986198724E+03  0.10528075416E+03 -0.66537951247E+03  0.68753635174E+03  0.82599309415E+02 0.  0.
          5    1    3    3  501    0 -0.38166550917E+01  0.36106629808E+02 -0.67491105045E+02  0.76781474539E+02  0.47000000000E+01 0. -1.
        -13    1    4    4    0    0 -0.58109588404E+01 -0.36534414214E+02 -0.80861972722E+02  0.88922377932E+02  0.00000000000E+00 0.  1.
         14    1    4    4    0    0  0.96908850657E+02 -0.90696338950E+02 -0.13312301881E+03  0.18798640741E+03  0.00000000000E+00 0. -1.
         -5    1    5    5    0  502  0.22580750513E+02 -0.14156630804E+02 -0.33558323883E+02  0.43110921949E+02  0.47000000000E+01 0.  1.
         13    1    6    6    0    0 -0.39885799649E+02 -0.62996898363E+01 -0.19036492061E+03  0.19460052956E+03  0.00000000000E+00 0. -1.
        -14    1    6    6    0    0 -0.69976187589E+02  0.11158044400E+03 -0.47501459186E+03  0.49293582219E+03  0.00000000000E+00 0.  1.
</event>
<event>
12    1  0.8133495E-002  0.2960985E+03  0.7818608E-02  0.1087281E+00
         21   -1    0    0  501  502  0.00000000000E+00  0.00000000000E+00  0.11382793904E+03  0.11382793904E+03  0.00000000000E+00 0.  1.
         21   -1    0    0  502  503 -0.00000000000E+00 -0.00000000000E+00 -0.79856239196E+03  0.79856239196E+03  0.00000000000E+00 0. -1.
         -6    2    1    2    0  503  0.20363969853E+03 -0.12717150940E+03 -0.25387289515E+03  0.38959401624E+03  0.17230882445E+03 0.  0.
        -24    2    3    3    0    0  0.12798924736E+03 -0.65533625269E+01 -0.98937730910E+02  0.17912139752E+03  0.76626408314E+02 0.  0.
          6    2    1    2  501    0 -0.20363969853E+03  0.12717150940E+03 -0.43086155777E+03  0.52279631475E+03  0.17329912040E+03 0.  0.
         24    2    5    5    0    0 -0.44192724811E+02  0.42637833972E+02 -0.22572847607E+03  0.24953645506E+03  0.86856868947E+02 0.  0.
          5    1    5    5  501    0 -0.15944697372E+03  0.84533675429E+02 -0.20513308170E+03  0.27325985969E+03  0.47000000000E+01 0. -1.
        -13    1    6    6    0    0 -0.33708803499E+02  0.63312171655E+02 -0.20895732919E+03  0.22092505502E+03  0.00000000000E+00 0.  1.
         14    1    6    6    0    0 -0.10483921312E+02 -0.20674337683E+02 -0.16771146881E+02  0.28611400042E+02  0.00000000000E+00 0. -1.
         -5    1    3    3    0  503  0.75650451169E+02 -0.12061814687E+03 -0.15493516424E+03  0.21047261873E+03  0.47000000000E+01 0.  1.
         13    1    4    4    0    0  0.74922933282E+02 -0.41136243050E+02 -0.64050200769E+02  0.10680854199E+03  0.00000000000E+00 0. -1.
        -14    1    4    4    0    0  0.53066314076E+02  0.34582880523E+02 -0.34887530141E+02  0.72312855525E+02  0.00000000000E+00 0.  1.
</event>
<event>
12    1  0.8133495E-002  0.2368529E+03  0.7818608E-02  0.1122803E+00
         21   -1    0    0  503  502  0.00000000000E+00  0.00000000000E+00  0.36869728973E+03  0.36869728973E+03  0.00000000000E+00 0. -1.
         21   -1    0    0  501  503 -0.00000000000E+00 -0.00000000000E+00 -0.15599030001E+03  0.15599030001E+03  0.00000000000E+00 0. -1.
          6    2    1    2  501    0 -0.14713260382E+03  0.69728982948E+02  0.48967364008E+02  0.23674667920E+03  0.16474541937E+03 0.  0.
         24    2    3    3    0    0 -0.84305576037E+02 -0.22976359883E+02  0.15091829278E+02  0.11965202577E+03  0.80333683437E+02 0.  0.
         -6    2    1    2    0  502  0.14713260382E+03 -0.69728982948E+02  0.16373962571E+03  0.28794091054E+03  0.17201502483E+03 0.  0.
        -24    2    5    5    0    0  0.14606379604E+03 -0.68746204781E+02  0.66788894447E+02  0.19086546311E+03  0.76864786475E+02 0.  0.
          5    1    3    3  501    0 -0.62827027779E+02  0.92705342831E+02  0.33875534729E+02  0.11709465343E+03  0.47000000000E+01 0. -1.
        -11    1    4    4    0    0 -0.90618460126E+01 -0.40172426636E+02  0.10095484378E+01  0.41194175595E+02  0.00000000000E+00 0.  1.
         12    1    4    4    0    0 -0.75243730025E+02  0.17196066752E+02  0.14082280840E+02  0.78457850171E+02  0.00000000000E+00 0. -1.
         -5    1    5    5    0  502  0.10688077769E+01 -0.98277816666E+00  0.96950731261E+02  0.97075447437E+02  0.47000000000E+01 0.  1.
         13    1    6    6    0    0  0.68532034885E+02 -0.29201997275E+02  0.72097260844E+02  0.10366972302E+03  0.00000000000E+00 0. -1.
        -14    1    6    6    0    0  0.77531761154E+02 -0.39544207505E+02 -0.53083663965E+01  0.87195740083E+02  0.00000000000E+00 0.  1.
</event>
<event>
12    1  0.8133495E-002  0.2029508E+03  0.7818608E-02  0.1147674E+00
         21   -1    0    0  501  502  0.00000000000E+00  0.00000000000E+00  0.26428643422E+03  0.26428643422E+03  0.00000000000E+00 0.  1.
         21   -1    0    0  502  503 -0.00000000000E+00 -0.00000000000E+00 -0.17045865142E+03  0.17045865142E+03  0.00000000000E+00 0. -1.
         -6    2    1    2    0  503 -0.93417387172E+02  0.51320013230E+02 -0.19656496494E+02  0.20390046883E+03  0.17270921038E+03 0.  0.
        -24    2    3    3    0    0 -0.54683046557E+02 -0.12970381132E+02 -0.63507082431E+02  0.11684549862E+03  0.80381929947E+02 0.  0.
          6    2    1    2  501    0  0.93417387172E+02 -0.51320013230E+02  0.11348427929E+03  0.23084461681E+03  0.17044061570E+03 0.  0.
         24    2    5    5    0    0  0.57675952392E+02 -0.91085670606E+02  0.11372112061E+03  0.17717056572E+03  0.82666808399E+02 0.  0.
          5    1    5    5  501    0  0.35741434780E+02  0.39765657376E+02 -0.23684131813E+00  0.53674051091E+02  0.47000000000E+01 0. -1.
        -11    1    6    6    0    0  0.59632823868E+02 -0.52223278268E+02  0.29830279597E+02  0.84694687297E+02  0.00000000000E+00 0.  1.
         12    1    6    6    0    0 -0.19568714761E+01 -0.38862392338E+02  0.83890841015E+02  0.92475878424E+02  0.00000000000E+00 0. -1.
         -5    1    3    3    0  503 -0.38734340615E+02  0.64290394361E+02  0.43850585937E+02  0.87054970203E+02  0.47000000000E+01 0.  1.
         13    1    4    4    0    0 -0.34503171686E+02 -0.27348254272E+02  0.46998419128E+01  0.44277357443E+02  0.00000000000E+00 0. -1.
        -14    1    4    4    0    0 -0.20179874871E+02  0.14377873140E+02 -0.68206924344E+02  0.72568141180E+02  0.00000000000E+00 0.  1.
</event>
<event>
12    1  0.8133495E-002  0.1738613E+03  0.7818608E-02  0.1174663E+00
         21   -1    0    0  501  502  0.00000000000E+00  0.00000000000E+00  0.15806972813E+03  0.15806972813E+03  0.00000000000E+00 0. -1.
         21   -1    0    0  502  503 -0.00000000000E+00 -0.00000000000E+00 -0.18893923692E+03  0.18893923692E+03  0.00000000000E+00 0. -1.
         -6    2    1    2    0  503 -0.27443801000E+02  0.47836155751E-01 -0.28324544156E+02  0.17312904545E+03  0.16857705085E+03 0.  0.
        -24    2    3    3    0    0  0.16484526918E+02  0.43041700471E+02 -0.55227716503E+02  0.10586805345E+03  0.77676357173E+02 0.  0.
          6    2    1    2  501    0  0.27443801000E+02 -0.47836155751E-01 -0.25449646367E+01  0.17387991959E+03  0.17168163877E+03 0.  0.
         24    2    5    5    0    0 -0.11959865929E+02 -0.82278222680E+01 -0.61447028995E+02  0.10238793175E+03  0.80602827142E+02 0.  0.
          5    1    5    5  501    0  0.39403666930E+02  0.81799861123E+01  0.58902064359E+02  0.71491987845E+02  0.47000000000E+01 0. -1.
        -11    1    6    6    0    0  0.31399842561E+02  0.12424756112E+02 -0.22842478963E+02  0.40768903866E+02  0.00000000000E+00 0.  1.
         12    1    6    6    0    0 -0.43359708490E+02 -0.20652578380E+02 -0.38604550032E+02  0.61619027883E+02  0.00000000000E+00 0. -1.
         -5    1    3    3    0  503 -0.43928327918E+02 -0.42993864316E+02  0.26903172347E+02  0.67260992000E+02  0.47000000000E+01 0.  1.
         13    1    4    4    0    0 -0.17006374812E+02  0.22238189763E+02  0.99351231304E+01  0.29706237389E+02  0.00000000000E+00 0. -1.
        -14    1    4    4    0    0  0.33490901730E+02  0.20803510708E+02 -0.65162839633E+02  0.76161816060E+02  0.00000000000E+00 0.  1.
</event>
<event>
12    1  0.8133495E-002  0.1928663E+03  0.7818608E-02  0.1156014E+00
         21   -1    0    0  501  502  0.00000000000E+00  0.00000000000E+00  0.80965730507E+02  0.80965730507E+02  0.00000000000E+00 0. -1.
         21   -1    0    0  502  503 -0.00000000000E+00 -0.00000000000E+00 -0.47629598937E+03  0.47629598937E+03  0.00000000000E+00 0.  1.
         -6    2    1    2    0  503 -0.16288035884E+02  0.84993063197E+02 -0.25170992690E+03  0.31679503152E+03  0.17179081406E+03 0.  0.
        -24    2    3    3    0    0  0.42648944055E+02  0.24991728544E+02 -0.69864284070E+02  0.11638631021E+03  0.78874812775E+02 0.  0.
          6    2    1    2  501    0  0.16288035884E+02 -0.84993063197E+02 -0.14362033197E+03  0.24046668836E+03  0.17236098036E+03 0.  0.
         24    2    5    5    0    0  0.24905350450E+02 -0.12453540202E+03 -0.99629064035E+02  0.18050689913E+03  0.80792619672E+02 0.  0.
          5    1    5    5  501    0 -0.86173145652E+01  0.39542338826E+02 -0.43991267933E+02  0.59959789230E+02  0.47000000000E+01 0. -1.
        -11    1    6    6    0    0  0.39614263696E+02 -0.42854932444E+02 -0.72757026795E+02  0.93270681733E+02  0.00000000000E+00 0.  1.
         12    1    6    6    0    0 -0.14708913246E+02 -0.81680469579E+02 -0.26872037240E+02  0.87236217393E+02  0.00000000000E+00 0. -1.
         -5    1    3    3    0  503 -0.58936979940E+02  0.60001334653E+02 -0.18184564283E+03  0.20040872132E+03  0.47000000000E+01 0.  1.
         11    1    4    4    0    0  0.29130413972E+02  0.62148842806E+01 -0.84101140815E+02  0.89219996028E+02  0.00000000000E+00 0. -1.
        -12    1    4    4    0    0  0.13518530083E+02  0.18776844263E+02  0.14236856745E+02  0.27166314179E+02  0.00000000000E+00 0.  1.
</event>
<event>
12    1  0.8133495E-002  0.2680619E+03  0.7818608E-02  0.1103963E+00
         21   -1    0    0  503  502  0.00000000000E+00  0.00000000000E+00  0.13476780179E+03  0.13476780179E+03  0.00000000000E+00 0. -1.
         21   -1    0    0  501  503 -0.00000000000E+00 -0.00000000000E+00 -0.88469274961E+03  0.88469274961E+03  0.00000000000E+00 0.  1.
          6    2    1    2  501    0  0.13215350665E+03 -0.15804320377E+03 -0.70126003463E+03  0.74701705104E+03  0.15435878594E+03 0.  0.
         24    2    3    3    0    0  0.83981953377E+02 -0.16473314227E+03 -0.47474027388E+03  0.51528758414E+03  0.77155622365E+02 0.  0.
         -6    2    1    2    0  502 -0.13215350665E+03  0.15804320377E+03 -0.48664913190E+02  0.27244350037E+03  0.17150796931E+03 0.  0.
        -24    2    5    5    0    0 -0.73880114358E+02  0.17367450486E+03 -0.20646346044E+02  0.20575575091E+03  0.79297241387E+02 0.  0.
          5    1    3    3  501    0  0.48171553275E+02  0.66899385044E+01 -0.22651976074E+03  0.23172946690E+03  0.47000000000E+01 0. -1.
        -13    1    4    4    0    0  0.91249727665E+02 -0.12001180892E+03 -0.31456057320E+03  0.34882330956E+03  0.00000000000E+00 0.  1.
         14    1    4    4    0    0 -0.72677742887E+01 -0.44721333354E+02 -0.16017970068E+03  0.16646427458E+03  0.00000000000E+00 0. -1.
         -5    1    5    5    0  502 -0.58273392293E+02 -0.15631301087E+02 -0.28018567146E+02  0.66687749459E+02  0.47000000000E+01 0.  1.
         11    1    6    6    0    0 -0.16476354345E+02  0.82958904840E+02  0.26319014126E+02  0.88579572416E+02  0.00000000000E+00 0. -1.
        -12    1    6    6    0    0 -0.57403760013E+02  0.90715600017E+02 -0.46965360170E+02  0.11717617849E+03  0.00000000000E+00 0.  1.
</event>
<event>
12    1  0.8133495E-002  0.1745547E+03  0.7818608E-02  0.1174133E+00
         21   -1    0    0  503  502  0.00000000000E+00  0.00000000000E+00  0.78914619550E+02  0.78914619550E+02  0.00000000000E+00 0. -1.
         21   -1    0    0  501  503 -0.00000000000E+00 -0.00000000000E+00 -0.49373341841E+03  0.49373341841E+03  0.00000000000E+00 0. -1.
          6    2    1    2  501    0 -0.25114415096E+02  0.58527090718E+01 -0.34782530182E+03  0.38916807493E+03  0.17263939848E+03 0.  0.
         24    2    3    3    0    0 -0.64862386628E+02 -0.36989711519E+02 -0.17405271331E+03  0.20577130080E+03  0.80449445401E+02 0.  0.
         -6    2    1    2    0  502  0.25114415096E+02 -0.58527090718E+01 -0.66993497034E+02  0.18347996303E+03  0.16885431631E+03 0.  0.
        -24    2    5    5    0    0 -0.10956595497E+02  0.44819375015E+02 -0.75505573133E+02  0.12052503192E+03  0.81831341085E+02 0.  0.
          5    1    3    3  501    0  0.39747971532E+02  0.42842420591E+02 -0.17377258851E+03  0.18339677413E+03  0.47000000000E+01 0. -1.
        -13    1    4    4    0    0 -0.54834386000E+02 -0.58712963377E+02 -0.10192977933E+03  0.12978328810E+03  0.00000000000E+00 0.  1.
         14    1    4    4    0    0 -0.10028000629E+02  0.21723251858E+02 -0.72122933983E+02  0.75988012700E+02  0.00000000000E+00 0. -1.
         -5    1    5    5    0  502  0.36071010593E+02 -0.50672084087E+02  0.85120760993E+01  0.62954931105E+02  0.47000000000E+01 0.  1.
         11    1    6    6    0    0 -0.17409815806E+02 -0.21299470689E+02 -0.22061865107E+02  0.35263224896E+02  0.00000000000E+00 0. -1.
        -12    1    6    6    0    0  0.64532203092E+01  0.66118845704E+02 -0.53443708026E+02  0.85261807026E+02  0.00000000000E+00 0.  1.
</event>
<event>
12    1  0.8133495E-002  0.4407140E+03  0.7818608E-02  0.1030616E+00
         21   -1    0    0  503  502  0.00000000000E+00  0.00000000000E+00  0.20477545746E+04  0.20477545746E+04  0.00000000000E+00 0. -1.
         21   -1    0    0  501  503 -0.00000000000E+00 -0.00000000000E+00 -0.10023737352E+03  0.10023737352E+03  0.00000000000E+00 0.  1.
          6    2    1    2  501    0 -0.30293231554E+03  0.27008636891E+03  0.12272093816E+04  0.13035559457E+04  0.16882121571E+03 0.  0.
         24    2    3    3    0    0 -0.16860087398E+03  0.82096947978E+02  0.48362225974E+03  0.52488473374E+03  0.80295267755E+02 0.  0.
         -6    2    1    2    0  502  0.30293231554E+03 -0.27008636891E+03  0.72030781944E+03  0.84443600235E+03  0.17179689419E+03 0.  0.
        -24    2    5    5    0    0  0.30729705554E+03 -0.23327649850E+03  0.69499670285E+03  0.79930552332E+03  0.83782441693E+02 0.  0.
          5    1    3    3  501    0 -0.13433144156E+03  0.18798942093E+03  0.74358712186E+03  0.77867121199E+03  0.47000000000E+01 0. -1.
        -11    1    4    4    0    0 -0.96682247998E+02  0.73628184727E+02  0.21818183101E+03  0.24974362463E+03  0.00000000000E+00 0.  1.
         12    1    4    4    0    0 -0.71918625986E+02  0.84687632503E+01  0.26544042873E+03  0.27514110910E+03  0.00000000000E+00 0. -1.
         -5    1    5    5    0  502 -0.43647400005E+01 -0.36809870411E+02  0.25311116590E+02  0.45130479035E+02  0.47000000000E+01 0.  1.
         13    1    6    6    0    0  0.74807434203E+02 -0.97242110036E+02  0.26302530008E+03  0.29023178437E+03  0.00000000000E+00 0. -1.
        -14    1    6    6    0    0  0.23248962134E+03 -0.13603438846E+03  0.43197140277E+03  0.50907373895E+03  0.00000000000E+00 0.  1.
</event>
<event>
12    1  0.8133495E-002  0.2398387E+03  0.7818608E-02  0.1120643E+00
         21   -1    0    0  501  502  0.00000000000E+00  0.00000000000E+00  0.48518009620E+02  0.48518009620E+02  0.00000000000E+00 0.  1.
         21   -1    0    0  502  503 -0.00000000000E+00 -0.00000000000E+00 -0.16133156914E+04  0.16133156914E+04  0.00000000000E+00 0.  1.
         -6    2    1    2    0  503  0.13874202459E+03 -0.94443918824E+02 -0.12157040642E+04  0.12382903516E+04  0.16509881914E+03 0.  0.
        -24    2    3    3    0    0  0.10110897830E+03 -0.84038841641E+02 -0.53919251387E+03  0.56063669414E+03  0.79368655062E+02 0.  0.
          6    2    1    2  501    0 -0.13874202459E+03  0.94443918824E+02 -0.34909361761E+03  0.42354334940E+03  0.17132895779E+03 0.  0.
         24    2    5    5    0    0 -0.16327564377E+03  0.93296135617E+02 -0.34041104236E+03  0.39707274327E+03  0.80149740579E+02 0.  0.
          5    1    5    5  501    0  0.24533619176E+02  0.11477832070E+01 -0.86825752461E+01  0.26470606133E+02  0.47000000000E+01 0. -1.
        -11    1    6    6    0    0 -0.89205446926E+02  0.38763837304E+02 -0.99235472529E+02  0.13895296273E+03  0.00000000000E+00 0.  1.
         12    1    6    6    0    0 -0.74070196841E+02  0.54532298313E+02 -0.24117556983E+03  0.25811978054E+03  0.00000000000E+00 0. -1.
         -5    1    3    3    0  503  0.37633046292E+02 -0.10405077183E+02 -0.67651155032E+03  0.67765365749E+03  0.47000000000E+01 0.  1.
         13    1    4    4    0    0  0.39730467120E+02  0.21193854108E+01 -0.79138554512E+02  0.88577156323E+02  0.00000000000E+00 0. -1.
        -14    1    4    4    0    0  0.61378511179E+02 -0.86158227052E+02 -0.46005395936E+03  0.47205953782E+03  0.00000000000E+00 0.  1.
</event>
<event>
12    1  0.8133495E-002  0.1766315E+03  0.7818608E-02  0.1171308E+00
         21   -1    0    0  503  502  0.00000000000E+00  0.00000000000E+00  0.11346830375E+03  0.11346830375E+03  0.00000000000E+00 0.  1.
         21   -1    0    0  501  503 -0.00000000000E+00 -0.00000000000E+00 -0.49627945844E+03  0.49627945844E+03  0.00000000000E+00 0.  1.
          6    2    1    2  501    0  0.68392984714E+01 -0.38536403587E+02 -0.39583437312E+03  0.43345533513E+03  0.17224066361E+03 0.  0.
         24    2    3    3    0    0  0.48043527694E+02 -0.70659067417E+02 -0.31890049858E+03  0.34033946597E+03  0.82659178200E+02 0.  0.
         -6    2    1    2    0  502 -0.68392984714E+01  0.38536403587E+02  0.13023218440E+02  0.17629242705E+03  0.17139890669E+03 0.  0.
        -24    2    5    5    0    0  0.57197457213E+02 -0.10095048642E+02 -0.52658690884E+01  0.93695181658E+02  0.73332111452E+02 0.  0.
          5    1    3    3  501    0 -0.41204229223E+02  0.32122663830E+02 -0.76933874544E+02  0.93115869162E+02  0.47000000000E+01 0. -1.
        -13    1    4    4    0    0  0.20656199738E+02 -0.40956727577E+02 -0.47816133277E+02  0.66260959267E+02  0.00000000000E+00 0.  1.
         14    1    4    4    0    0  0.27387327956E+02 -0.29702339840E+02 -0.27108436530E+03  0.27407850670E+03  0.00000000000E+00 0. -1.
         -5    1    5    5    0  502 -0.64036755684E+02  0.48631452229E+02  0.18289087529E+02  0.82597245397E+02  0.47000000000E+01 0.  1.
         13    1    6    6    0    0 -0.16190421840E+02  0.15789610327E+01  0.81317901326E+01  0.18186502909E+02  0.00000000000E+00 0. -1.
        -14    1    6    6    0    0  0.73387879053E+02 -0.11674009675E+02 -0.13397659221E+02  0.75508678749E+02  0.00000000000E+00 0.  1.
</event>
<event>
12    1  0.8133495E-002  0.1867135E+03  0.7818608E-02  0.1162444E+00
         21   -1    0    0  501  502  0.00000000000E+00  0.00000000000E+00  0.13855994655E+03  0.13855994655E+03  0.00000000000E+00 0.  1.
         21   -1    0    0  502  503 -0.00000000000E+00 -0.00000000000E+00 -0.25517879542E+03  0.25517879542E+03  0.00000000000E+00 0.  1.
         -6    2    1    2    0  503 -0.43193441954E+02 -0.50115629006E+02 -0.95095211675E+02  0.20578879784E+03  0.17008433300E+03 0.  0.
        -24    2    3    3    0    0 -0.18061549062E+02 -0.46303409771E+02 -0.13117776281E+03  0.16140202557E+03  0.79829713097E+02 0.  0.
          6    2    1    2  501    0  0.43193441954E+02  0.50115629006E+02 -0.21523637187E+02  0.18794994414E+03  0.17459858202E+03 0.  0.
         24    2    5    5    0    0  0.89757584761E+02  0.43139589231E+02 -0.45027075554E+02  0.13511637392E+03  0.79445256549E+02 0.  0.
          5    1    5    5  501    0 -0.46564142807E+02  0.69760397757E+01  0.23503438367E+02  0.52833570212E+02  0.47000000000E+01 0. -1.
        -11    1    6    6    0    0  0.42800143077E+02 -0.10296389541E+02 -0.46409426897E+02  0.63966419236E+02  0.00000000000E+00 0.  1.
         12    1    6    6    0    0  0.46957441684E+02  0.53435978771E+02  0.13823513429E+01  0.71149954687E+02  0.00000000000E+00 0. -1.
         -5    1    3    3    0  503 -0.25131892892E+02 -0.38122192356E+01  0.36082551131E+02  0.44386772263E+02  0.47000000000E+01 0.  1.
         13    1    4    4    0    0  0.25650287744E+02 -0.60968883568E+01 -0.13577538716E+02  0.29655671743E+02  0.00000000000E+00 0. -1.
        -14    1    4    4    0    0 -0.43711836806E+02 -0.40206521414E+02 -0.11760022409E+03  0.13174635383E+03  0.00000000000E+00 0.  1.
</event>
<event>
12    1  0.8133495E-002  0.2047123E+03  0.7818608E-02  0.1146005E+00
         21   -1    0    0  501  502  0.00000000000E+00  0.00000000000E+00  0.28415428254E+03  0.28415428254E+03  0.00000000000E+00 0.  1.
         21   -1    0    0  502  503 -0.00000000000E+00 -0.00000000000E+00 -0.25750557493E+03  0.25750557493E+03  0.00000000000E+00 0.  1.
         -6    2    1    2    0  503  0.10657786692E+03  0.11862036028E+02 -0.16423500062E+03  0.26176039071E+03  0.17333729288E+03 0.  0.
        -24    2    3    3    0    0  0.70515078316E+02 -0.50591196958E+02 -0.14074219965E+03  0.18576741255E+03  0.84671833124E+02 0.  0.
          6    2    1    2  501    0 -0.10657786692E+03 -0.11862036028E+02  0.19088370823E+03  0.27989946675E+03  0.17437767003E+03 0.  0.
         24    2    5    5    0    0 -0.62261914291E+01  0.18839098075E+01  0.15212426035E+03  0.17134627887E+03  0.78583981312E+02 0.  0.
          5    1    5    5  501    0 -0.10035167549E+03 -0.13745945835E+02  0.38759447881E+02  0.10855318789E+03  0.47000000000E+01 0. -1.
        -13    1    6    6    0    0 -0.33118756541E+02 -0.24217281120E+02  0.87504534094E+02  0.96645601176E+02  0.00000000000E+00 0.  1.
         14    1    6    6    0    0  0.26892565112E+02  0.26101190928E+02  0.64619726254E+02  0.74700677689E+02  0.00000000000E+00 0. -1.
         -5    1    3    3    0  503  0.36062788603E+02  0.62453232986E+02 -0.23492800970E+02  0.75992978160E+02  0.47000000000E+01 0.  1.
         13    1    4    4    0    0 -0.26924336634E+01  0.15675632078E+02 -0.46976593049E+02  0.49596118140E+02  0.00000000000E+00 0. -1.
        -14    1    4    4    0    0  0.73207511980E+02 -0.66266829036E+02 -0.93765606601E+02  0.13617129441E+03  0.00000000000E+00 0.  1.
</event>
<event>
12    1  0.8133495E-002  0.1745548E+03  0.7818608E-02  0.1173374E+00
         21   -1    0    0  503  502  0.00000000000E+00  0.00000000000E+00  0.44215661611E+02  0.44215661611E+02  0.00000000000E+00 0.  1.
         21   -1    0    0  501  503 -0.00000000000E+00 -0.00000000000E+00 -0.85887179242E+03  0.85887179242E+03  0.00000000000E+00 0.  1.
          6    2    1    2  501    0 -0.18183556203E+02 -0.12866641734E+02 -0.60914987424E+03  0.63345403080E+03  0.17234920268E+03 0.  0.
         24    2    3    3    0    0 -0.79120158297E+02 -0.51984789275E+01 -0.39690151059E+03  0.41244831126E+03  0.79345930729E+02 0.  0.
         -6    2    1    2    0  502  0.18183556203E+02  0.12866641734E+02 -0.20550625657E+03  0.26963342323E+03  0.17312760972E+03 0.  0.
        -24    2    5    5    0    0  0.45472898717E+02 -0.50248829990E+02 -0.10560686963E+03  0.14826518811E+03  0.78974841936E+02 0.  0.
          5    1    3    3  501    0  0.60936602094E+02 -0.76681628062E+01 -0.21224836366E+03  0.22100571954E+03  0.47000000000E+01 0. -1.
        -11    1    4    4    0    0 -0.77997078980E+01 -0.33507966329E+02 -0.15014771527E+03  0.15403881216E+03  0.00000000000E+00 0.  1.
         12    1    4    4    0    0 -0.71320450399E+02  0.28309487402E+02 -0.24675379531E+03  0.25840949910E+03  0.00000000000E+00 0. -1.
         -5    1    5    5    0  502 -0.27289342514E+02  0.63115471723E+02 -0.99899386943E+02  0.12136823512E+03  0.47000000000E+01 0.  1.
         13    1    6    6    0    0  0.40801472690E+01 -0.25229968360E+02 -0.95491305595E+02  0.98852356317E+02  0.00000000000E+00 0. -1.
        -14    1    6    6    0    0  0.41392751448E+02 -0.25018861629E+02 -0.10115564030E+02  0.49412831788E+02  0.00000000000E+00 0.  1.
</event>
<event>
12    1  0.8133495E-002  0.2065363E+03  0.7818608E-02  0.1144441E+00
         21   -1    0    0  503  502  0.00000000000E+00  0.00000000000E+00  0.11327463965E+04  0.11327463965E+04  0.00000000000E+00 0.  1.
         21   -1    0    0  501  503 -0.00000000000E+00 -0.00000000000E+00 -0.63441580268E+02  0.63441580268E+02  0.00000000000E+00 0.  1.
          6    2    1    2  501    0  0.11292546859E+03 -0.13500891431E+02  0.15230048643E+03  0.25621234919E+03  0.17179899355E+03 0.  0.
         24    2    3    3    0    0 -0.88349239237E+01 -0.21454161855E+02  0.76142000809E+02  0.11229899808E+03  0.79215678636E+02 0.  0.
         -6    2    1    2    0  502 -0.11292546859E+03  0.13500891431E+02  0.91700432979E+03  0.93997562757E+03  0.17240302793E+03 0.  0.
        -24    2    5    5    0    0 -0.56685752056E+02 -0.11124474324E+02  0.81565923562E+03  0.82139134334E+03  0.77760670271E+02 0.  0.
          5    1    3    3  501    0  0.12176039251E+03  0.79532704242E+01  0.76158485626E+02  0.14391335111E+03  0.47000000000E+01 0. -1.
        -13    1    4    4    0    0  0.68519587925E+01 -0.24933090480E+01 -0.15650146096E+02  0.17265370025E+02  0.00000000000E+00 0.  1.
         14    1    4    4    0    0 -0.15686882716E+02 -0.18960852807E+02  0.91792146905E+02  0.95033628058E+02  0.00000000000E+00 0. -1.
         -5    1    5    5    0  502 -0.56239716532E+02  0.24625365755E+02  0.10134509417E+03  0.11858428423E+03  0.47000000000E+01 0.  1.
         13    1    6    6    0    0  0.10073399913E+02 -0.26352860507E+02  0.21568139596E+03  0.21751876058E+03  0.00000000000E+00 0. -1.
        -14    1    6    6    0    0 -0.66759151969E+02  0.15228386183E+02  0.59997783966E+03  0.60387258275E+03  0.00000000000E+00 0.  1.
</event>
<event>
12    1  0.8133495E-002  0.2814896E+03  0.7818608E-02  0.1095099E+00
         21   -1    0    0  503  502  0.00000000000E+00  0.00000000000E+00  0.57426059837E+03  0.57426059837E+03  0.00000000000E+00 0.  1.
         21   -1    0    0  501  503 -0.00000000000E+00 -0.00000000000E+00 -0.27945995232E+03  0.27945995232E+03  0.00000000000E+00 0. -1.
          6    2    1    2  501    0  0.30916433548E+02 -0.21540538087E+03 -0.15696283303E+03  0.32229446355E+03  0.17855275499E+03 0.  0.
         24    2    3    3    0    0  0.60649553460E+02 -0.53475831174E+02 -0.88513794051E+02  0.14393359783E+03  0.79650210250E+02 0.  0.
         -6    2    1    2    0  502 -0.30916433548E+02  0.21540538087E+03  0.45176347908E+03  0.53142608713E+03  0.17597767210E+03 0.  0.
        -24    2    5    5    0    0 -0.88397717752E+02  0.16193917276E+03  0.32299937628E+03  0.38054528115E+03  0.80297333384E+02 0.  0.
          5    1    3    3  501    0 -0.29733119912E+02 -0.16192954969E+03 -0.68449038983E+02  0.17836086572E+03  0.47000000000E+01 0. -1.
        -13    1    4    4    0    0  0.31725931478E+01 -0.98574464028E+01  0.14711511950E+02  0.17990641476E+02  0.00000000000E+00 0.  1.
         14    1    4    4    0    0  0.57476960312E+02 -0.43618384771E+02 -0.10322530600E+03  0.12594295636E+03  0.00000000000E+00 0. -1.
         -5    1    5    5    0  502  0.57481284204E+02  0.53466208110E+02  0.12876410280E+03  0.15088080598E+03  0.47000000000E+01 0.  1.
         13    1    6    6    0    0  0.11856061807E+02  0.21751308597E+02  0.19507935172E+02  0.31531653333E+02  0.00000000000E+00 0. -1.
        -14    1    6    6    0    0 -0.10025377956E+03  0.14018786416E+03  0.30349144111E+03  0.34901362781E+03  0.00000000000E+00 0.  1.
</event>
<event>
12    1  0.8133495E-002  0.1833131E+03  0.7818608E-02  0.1165148E+00
         21   -1    0    0  503  502  0.00000000000E+00  0.00000000000E+00  0.60173064304E+02  0.60173064304E+02  0.00000000000E+00 0. -1.
         21   -1    0    0  501  503 -0.00000000000E+00 -0.00000000000E+00 -0.63936371932E+03  0.63936371932E+03  0.00000000000E+00 0. -1.
          6    2    1    2  501    0 -0.23409279721E+02 -0.58553747059E+02 -0.16170561005E+03  0.24444305972E+03  0.17212544684E+03 0.  0.
         24    2    3    3    0    0  0.24980947902E+02 -0.68150459195E+02 -0.16332015306E+03  0.19486072655E+03  0.77644687571E+02 0.  0.
         -6    2    1    2    0  502  0.23409279721E+02  0.58553747059E+02 -0.41748504497E+03  0.45509372391E+03  0.16982343506E+03 0.  0.
        -24    2    5    5    0    0  0.55145724245E+02 -0.57476180340E+01 -0.15302394045E+03  0.18104330288E+03  0.79285970704E+02 0.  0.
          5    1    3    3  501    0 -0.48390227623E+02  0.95967121361E+01  0.16145430138E+01  0.49582333168E+02  0.47000000000E+01 0. -1.
        -13    1    4    4    0    0 -0.29059918848E+01 -0.72559723623E+02 -0.14196804360E+03  0.15946248362E+03  0.00000000000E+00 0.  1.
         14    1    4    4    0    0  0.27886939787E+02  0.44092644278E+01 -0.21352109468E+02  0.35398242926E+02  0.00000000000E+00 0. -1.
         -5    1    5    5    0  502 -0.31736444524E+02  0.64301365093E+02 -0.26446110452E+03  0.27405042103E+03  0.47000000000E+01 0.  1.
         13    1    6    6    0    0  0.83695870517E+01 -0.13452173578E+02 -0.12494454815E+03  0.12594503195E+03  0.00000000000E+00 0. -1.
        -14    1    6    6    0    0  0.46776137193E+02  0.77045555436E+01 -0.28079392298E+02  0.55098270923E+02  0.00000000000E+00 0.  1.
</event>
<event>
12    1  0.8133495E-002  0.2841086E+03  0.7818608E-02  0.1093506E+00
         21   -1    0    0  503  502  0.00000000000E+00  0.00000000000E+00  0.70275679600E+03  0.70275679600E+03  0.00000000000E+00 0.  1.
         21   -1    0    0  501  503 -0.00000000000E+00 -0.00000000000E+00 -0.12647725174E+03  0.12647725174E+03  0.00000000000E+00 0. -1.
          6    2    1    2  501    0 -0.22151491546E+03 -0.45247819849E+02  0.41431962922E+03  0.50220387830E+03  0.17155686300E+03 0.  0.
         24    2    3    3    0    0 -0.24214480597E+03 -0.35349353558E+02  0.35880374491E+03  0.44197369128E+03  0.81956894552E+02 0.  0.
         -6    2    1    2    0  502  0.22151491546E+03  0.45247819849E+02  0.16195991504E+03  0.32703016945E+03  0.17205084911E+03 0.  0.
        -24    2    5    5    0    0  0.38833981078E+02 -0.16102142948E+02  0.39629348468E+02  0.98725550049E+02  0.80055554951E+02 0.  0.
          5    1    3    3  501    0  0.20629890507E+02 -0.98984662909E+01  0.55515884313E+02  0.60230187019E+02  0.47000000000E+01 0. -1.
        -11    1    4    4    0    0 -0.13915899039E+03  0.20581215768E+01  0.25772552057E+03  0.29290255108E+03  0.00000000000E+00 0.  1.
         12    1    4    4    0    0 -0.10298581558E+03 -0.37407475135E+02  0.10107822434E+03  0.14907114020E+03  0.00000000000E+00 0. -1.
         -5    1    5    5    0  502  0.18268093439E+03  0.61349962797E+02  0.12233056657E+03  0.22830461940E+03  0.47000000000E+01 0.  1.
         11    1    6    6    0    0  0.54726421984E+02 -0.22345382272E+01  0.10794110477E+01  0.54782657406E+02  0.00000000000E+00 0. -1.
        -12    1    6    6    0    0 -0.15892440906E+02 -0.13867604721E+02  0.38549937421E+02  0.43942892643E+02  0.00000000000E+00 0.  1.
</event>
<event>
12    1  0.8133495E-002  0.1869245E+03  0.7818608E-02  0.1161268E+00
         21   -1    0    0  503  502  0.00000000000E+00  0.00000000000E+00  0.65298336025E+03  0.65298336025E+03  0.00000000000E+00 0. -1.
         21   -1    0    0  501  503 -0.00000000000E+00 -0.00000000000E+00 -0.70498449140E+02  0.70498449140E+02  0.00000000000E+00 0.  1.
          6    2    1    2  501    0  0.60557213459E+01  0.72489433989E+02  0.11363440789E+03  0.21874270572E+03  0.17217491934E+03 0.  0.
         24    2    3    3    0    0  0.71463122834E+01 -0.27483103134E+02  0.66165260269E+02  0.10796767449E+03  0.80453628459E+02 0.  0.
         -6    2    1    2    0  502 -0.60557213459E+01 -0.72489433989E+02  0.46885050322E+03  0.50473910367E+03  0.17218994919E+03 0.  0.
        -24    2    5    5    0    0  0.37085759878E+02 -0.66798879320E+02  0.43691240789E+03  0.45055698717E+03  0.79194082229E+02 0.  0.
          5    1    3    3  501    0 -0.10905909375E+01  0.99972537123E+02  0.47469147624E+02  0.11077503123E+03  0.47000000000E+01 0. -1.
        -11    1    4    4    0    0  0.27394707308E+02 -0.20760837539E+02 -0.40240337584E+01  0.34607444452E+02  0.00000000000E+00 0.  1.
         12    1    4    4    0    0 -0.20248395025E+02 -0.67222655953E+01  0.70189294027E+02  0.73360230043E+02  0.00000000000E+00 0. -1.
         -5    1    5    5    0  502 -0.43141481224E+02 -0.56905546698E+01  0.31938095331E+02  0.54182116496E+02  0.47000000000E+01 0.  1.
         13    1    6    6    0    0 -0.76062581653E+01 -0.28998329319E+02  0.30211978406E+03  0.30360356089E+03  0.00000000000E+00 0. -1.
        -14    1    6    6    0    0  0.44692018043E+02 -0.37800550001E+02  0.13479262383E+03  0.14695342629E+03  0.00000000000E+00 0.  1.
</event>
<event>
12    1  0.8133495E-002  0.2049267E+03  0.7818608E-02  0.1145655E+00
         21   -1    0    0  503  502  0.00000000000E+00  0.00000000000E+00  0.25985567557E+03  0.25985567557E+03  0.00000000000E+00 0.  1.
         21   -1    0    0  501  503 -0.00000000000E+00 -0.00000000000E+00 -0.27689222133E+03  0.27689222133E+03  0.00000000000E+00 0.  1.
          6    2    1    2  501    0  0.99639318251E+02 -0.50587575912E+02 -0.18170741868E+03  0.27385736715E+03  0.17173577076E+03 0.  0.
         24    2    3    3    0    0  0.58705109922E+02 -0.66505459228E+02 -0.19419744469E+03  0.22795443510E+03  0.79883107858E+02 0.  0.
         -6    2    1    2    0  502 -0.99639318251E+02  0.50587575912E+02  0.16467087291E+03  0.26289052975E+03  0.17177845519E+03 0.  0.
        -24    2    5    5    0    0 -0.73879303276E+02 -0.23245599033E+02  0.44248184242E+02  0.11922901771E+03  0.79114774404E+02 0.  0.
          5    1    3    3  501    0  0.40934208329E+02  0.15917883316E+02  0.12490026009E+02  0.45902932047E+02  0.47000000000E+01 0. -1.
        -13    1    4    4    0    0  0.46557679445E+02 -0.61613537423E+02 -0.73707869501E+02  0.10675530683E+03  0.00000000000E+00 0.  1.
         14    1    4    4    0    0  0.12147430477E+02 -0.48919218049E+01 -0.12048957519E+03  0.12119912828E+03  0.00000000000E+00 0. -1.
         -5    1    5    5    0  502 -0.25760014976E+02  0.73833174945E+02  0.12042268867E+03  0.14366151204E+03  0.47000000000E+01 0.  1.
         11    1    6    6    0    0  0.12325564292E+02  0.97851318905E+01  0.16570683936E+02  0.22852919011E+02  0.00000000000E+00 0. -1.
        -12    1    6    6    0    0 -0.86204867567E+02 -0.33030730923E+02  0.27677500307E+02  0.96376098701E+02  0.00000000000E+00 0.  1.
</event>
<event>
12    1  0.8133495E-002  0.2533538E+03  0.7818608E-02  0.1111435E+00
         21   -1    0    0  503  502  0.00000000000E+00  0.00000000000E+00  0.11535284807E+04  0.11535284807E+04  0.00000000000E+00 0. -1.
         21   -1    0    0  501  503 -0.00000000000E+00 -0.00000000000E+00 -0.69335150861E+02  0.69335150861E+02  0.00000000000E+00 0.  1.
          6    2    1    2  501    0  0.16442817190E+03  0.83640900325E+02  0.26846626497E+03  0.36913724728E+03  0.17365410441E+03 0.  0.
         24    2    3    3    0    0  0.11097908142E+02  0.37354422083E+02  0.64254023161E+02  0.10956579747E+03  0.79734359391E+02 0.  0.
         -6    2    1    2    0  502 -0.16442817190E+03 -0.83640900325E+02  0.81572706487E+03  0.85372638429E+03  0.17148081799E+03 0.  0.
        -24    2    5    5    0    0 -0.10675799494E+02 -0.11807168385E+02  0.33284453993E+03  0.34186947073E+03  0.76392835612E+02 0.  0.
          5    1    3    3  501    0  0.15333026376E+03  0.46286478243E+02  0.20421224181E+03  0.25957144981E+03  0.47000000000E+01 0. -1.
        -13    1    4    4    0    0  0.21842019380E+02 -0.19630176298E+02  0.31075801152E+02  0.42756555630E+02  0.00000000000E+00 0.  1.
         14    1    4    4    0    0 -0.10744111238E+02  0.56984598381E+02  0.33178222010E+02  0.66809241836E+02  0.00000000000E+00 0. -1.
         -5    1    5    5    0  502 -0.15375237241E+03 -0.71833731941E+02  0.48288252494E+03  0.51185691356E+03  0.47000000000E+01 0.  1.
         13    1    6    6    0    0  0.17042555901E+02 -0.21829056659E+02  0.47324704577E+02  0.54832327048E+02  0.00000000000E+00 0. -1.
        -14    1    6    6    0    0 -0.27718355395E+02  0.10021888274E+02  0.28551983535E+03  0.28703714368E+03  0.00000000000E+00 0.  1.
</event>
<event>
12    1  0.8133495E-002  0.2082074E+03  0.7818608E-02  0.1144840E+00
         21   -1    0    0  503  502  0.00000000000E+00  0.00000000000E+00  0.14659584399E+03  0.14659584399E+03  0.00000000000E+00 0. -1.
         21   -1    0    0  501  503 -0.00000000000E+00 -0.00000000000E+00 -0.28327623507E+03  0.28327623507E+03  0.00000000000E+00 0. -1.
          6    2    1    2  501    0  0.28533983176E+02  0.96338847247E+02 -0.75780585131E+02  0.22156947880E+03  0.18235946690E+03 0.  0.
         24    2    3    3    0    0 -0.48311086870E+02  0.26041777222E+02 -0.72628047001E+01  0.96815244084E+02  0.79424856810E+02 0.  0.
         -6    2    1    2    0  502 -0.28533983176E+02 -0.96338847247E+02 -0.60899805955E+02  0.20830260026E+03  0.17200530581E+03 0.  0.
        -24    2    5    5    0    0 -0.14554277177E+02 -0.31504601374E+02  0.32772705425E+02  0.93430754252E+02  0.80317424805E+02 0.  0.
          5    1    3    3  501    0  0.76845070046E+02  0.70297070025E+02 -0.68517780431E+02  0.12475423472E+03  0.47000000000E+01 0. -1.
        -11    1    4    4    0    0 -0.35522668621E+02 -0.25294301217E+02 -0.20924016406E+01  0.43658215775E+02  0.00000000000E+00 0.  1.
         12    1    4    4    0    0 -0.12788418249E+02  0.51336078439E+02 -0.51704030596E+01  0.53157028309E+02  0.00000000000E+00 0. -1.
         -5    1    5    5    0  502 -0.13979705999E+02 -0.64834245872E+02 -0.93672511381E+02  0.11487184601E+03  0.47000000000E+01 0.  1.
         11    1    6    6    0    0  0.32589081075E+02 -0.19456120376E+02  0.20963437118E+02  0.43359595491E+02  0.00000000000E+00 0. -1.
        -12    1    6    6    0    0 -0.47143358252E+02 -0.12048480998E+02  0.11809268308E+02  0.50071158761E+02  0.00000000000E+00 0.  1.
</event>
<event>
12    1  0.8133495E-002  0.2015924E+03  0.7818608E-02  0.1148530E+00
         21   -1    0    0  501  502  0.00000000000E+00  0.00000000000E+00  0.29318310819E+04  0.29318310819E+04  0.00000000000E+00 0.  1.
         21   -1    0    0  502  503 -0.00000000000E+00 -0.00000000000E+00 -0.19030216966E+02  0.19030216966E+02  0.00000000000E+00 0. -1.
         -6    2    1    2    0  503 -0.73037398933E+02 -0.74654040338E+02  0.68596212910E+03  0.71497100654E+03  0.17242914562E+03 0.  0.
        -24    2    3    3    0    0 -0.44385713636E+02 -0.56006521441E+02  0.18878391253E+03  0.21659673147E+03  0.78536338294E+02 0.  0.
          6    2    1    2  501    0  0.73037398933E+02  0.74654040338E+02  0.22268387358E+04  0.22358902923E+04  0.17171766507E+03 0.  0.
         24    2    5    5    0    0  0.10057622588E+03  0.22512208518E+02  0.11317659656E+04  0.11392209622E+04  0.79421804174E+02 0.  0.
          5    1    5    5  501    0 -0.27538826948E+02  0.52141831820E+02  0.10950727702E+04  0.10966693301E+04  0.47000000000E+01 0. -1.
        -13    1    6    6    0    0  0.66981394171E+02  0.45831437480E+02  0.91783268193E+03  0.92141405451E+03  0.00000000000E+00 0.  1.
         14    1    6    6    0    0  0.33594831710E+02 -0.23319228962E+02  0.21393328370E+03  0.21780690768E+03  0.00000000000E+00 0. -1.
         -5    1    3    3    0  503 -0.28651685298E+02 -0.18647518897E+02  0.49717821656E+03  0.49837427507E+03  0.47000000000E+01 0.  1.
         11    1    4    4    0    0 -0.19450374474E+02 -0.47148345458E+02  0.18237118900E+03  0.18936877811E+03  0.00000000000E+00 0. -1.
        -12    1    4    4    0    0 -0.24935339162E+02 -0.88581759825E+01  0.64127235340E+01  0.27227953356E+02  0.00000000000E+00 0.  1.
</event>
<event>
12    1  0.8133495E-002  0.2047071E+03  0.7818608E-02  0.1146606E+00
         21   -1    0    0  501  502  0.00000000000E+00  0.00000000000E+00  0.15710872798E+03  0.15710872798E+03  0.00000000000E+00 0.  1.
         21   -1    0    0  502  503 -0.00000000000E+00 -0.00000000000E+00 -0.46313964485E+03  0.46313964485E+03  0.00000000000E+00 0.  1.
         -6    2    1    2    0  503 -0.78739699809E+02  0.80215088421E+02 -0.35827157281E+03  0.41262999484E+03  0.17108650450E+03 0.  0.
        -24    2    3    3    0    0 -0.11012376537E+03  0.98133953379E+02 -0.28508311077E+03  0.33087006414E+03  0.80281397552E+02 0.  0.
          6    2    1    2  501    0  0.78739699809E+02 -0.80215088421E+02  0.52240655933E+02  0.20761837799E+03  0.16655901060E+03 0.  0.
         24    2    5    5    0    0  0.79412279162E+02 -0.45301595163E+02 -0.24713862790E+02  0.12298096117E+03  0.78453790156E+02 0.  0.
          5    1    5    5  501    0 -0.67257935322E+00 -0.34913493257E+02  0.76954518723E+02  0.84637416822E+02  0.47000000000E+01 0. -1.
        -13    1    6    6    0    0  0.33245375713E+02  0.20911200857E+02 -0.29830261181E+01  0.39388218701E+02  0.00000000000E+00 0.  1.
         14    1    6    6    0    0  0.46166903449E+02 -0.66212796020E+02 -0.21730836672E+02  0.83592742468E+02  0.00000000000E+00 0. -1.
         -5    1    3    3    0  503  0.31384065557E+02 -0.17918864958E+02 -0.73188462034E+02  0.81759930694E+02  0.47000000000E+01 0.  1.
         13    1    4    4    0    0  0.93081166417E+01  0.10023151008E+01 -0.42835831340E+02  0.43846939660E+02  0.00000000000E+00 0. -1.
        -14    1    4    4    0    0 -0.11943188201E+03  0.97131638278E+02 -0.24224727944E+03  0.28702312448E+03  0.00000000000E+00 0.  1.
</event>
<event>
12    1  0.8133495E-002  0.1994330E+03  0.7818608E-02  0.1150553E+00
         21   -1    0    0  501  502  0.00000000000E+00  0.00000000000E+00  0.85748285024E+02  0.85748285024E+02  0.00000000000E+00 0. -1.
         21   -1    0    0  502  503 -0.00000000000E+00 -0.00000000000E+00 -0.66573198144E+03  0.66573198144E+03  0.00000000000E+00 0. -1.
         -6    2    1    2    0  503  0.24537116960E+02  0.74363456629E+02 -0.49797905191E+03  0.53584562391E+03  0.18170141094E+03 0.  0.
        -24    2    3    3    0    0  0.69422034100E+02  0.90080721415E+02 -0.43547085319E+03  0.45716237852E+03  0.80178682730E+02 0.  0.
          6    2    1    2  501    0 -0.24537116960E+02 -0.74363456629E+02 -0.82004644505E+02  0.21563464255E+03  0.18341631213E+03 0.  0.
         24    2    5    5    0    0 -0.88043130481E+02 -0.59855751767E+02 -0.56133653766E+02  0.14538590295E+03  0.81558383051E+02 0.  0.
          5    1    5    5  501    0  0.63506013521E+02 -0.14507704862E+02 -0.25870990739E+02  0.70248739601E+02  0.47000000000E+01 0. -1.
        -13    1    6    6    0    0  0.88621873904E+01 -0.16719923846E+02 -0.31091716444E+02  0.36397651713E+02  0.00000000000E+00 0.  1.
         14    1    6    6    0    0 -0.96905317871E+02 -0.43135827922E+02 -0.25041937322E+02  0.10898825123E+03  0.00000000000E+00 0. -1.
         -5    1    3    3    0  503 -0.44884917141E+02 -0.15717264786E+02 -0.62508198716E+02  0.78683245394E+02  0.47000000000E+01 0.  1.
         11    1    4    4    0    0  0.81308846768E+02  0.48823854538E+02 -0.32787340211E+03  0.34131490613E+03  0.00000000000E+00 0. -1.
        -12    1    4    4    0    0 -0.11886812667E+02  0.41256866877E+02 -0.10759745108E+03  0.11584747239E+03  0.00000000000E+00 0.  1.
</event>
<event>
12    1  0.8133495E-002  0.2341701E+03  0.7818608E-02  0.1123866E+00
         21   -1    0    0  501  502  0.00000000000E+00  0.00000000000E+00  0.34093330164E+03  0.34093330164E+03  0.00000000000E+00 0.  1.
         21   -1    0    0  502  503 -0.00000000000E+00 -0.00000000000E+00 -0.16592248686E+03  0.16592248686E+03  0.00000000000E+00 0. -1.
         -6    2    1    2    0  503 -0.18889984711E+02 -0.15757786041E+03  0.41125188585E+02  0.23775391140E+03  0.17218602626E+03 0.  0.
        -24    2    3    3    0    0  0.40022749954E+02 -0.32984885319E+02  0.82902019005E+01  0.95999383797E+02  0.80357520298E+02 0.  0.
          6    2    1    2  501    0  0.18889984711E+02  0.15757786041E+03  0.13388562620E+03  0.26910187710E+03  0.17118073999E+03 0.  0.
         24    2    5    5    0    0  0.75545384295E+02  0.12893835052E+03  0.98541516231E+02  0.19629149365E+03  0.80546363889E+02 0.  0.
          5    1    5    5  501    0 -0.56655399584E+02  0.28639509882E+02  0.35344109968E+02  0.72810383448E+02  0.47000000000E+01 0. -1.
        -13    1    6    6    0    0  0.75419776411E+02  0.80722163148E+02  0.98600339516E+02  0.14807510679E+03  0.00000000000E+00 0.  1.
         14    1    6    6    0    0  0.12560788426E+00  0.48216187375E+02 -0.58823285516E-01  0.48216386867E+02  0.00000000000E+00 0. -1.
         -5    1    3    3    0  503 -0.58912734665E+02 -0.12459297509E+03  0.32834986684E+02  0.14175452761E+03  0.47000000000E+01 0.  1.
         11    1    4    4    0    0  0.15113506955E+02  0.23224711679E+02 -0.13431972847E+02  0.30793233341E+02  0.00000000000E+00 0. -1.
        -12    1    4    4    0    0  0.24909242999E+02 -0.56209596998E+02  0.21722174747E+02  0.65206150456E+02  0.00000000000E+00 0.  1.
</event>
<event>
12    1  0.8133495E-002  0.1774556E+03  0.7818608E-02  0.1171247E+00
         21   -1    0    0  503  502  0.00000000000E+00  0.00000000000E+00  0.13831159099E+03  0.13831159099E+03  0.00000000000E+00 0. -1.
         21   -1    0    0  501  503 -0.00000000000E+00 -0.00000000000E+00 -0.32282730135E+03  0.32282730135E+03  0.00000000000E+00 0. -1.
          6    2    1    2  501    0 -0.29299178265E+02 -0.32666420538E+02 -0.22130851236E+03  0.28366869904E+03  0.17194457332E+03 0.  0.
         24    2    3    3    0    0  0.29222160869E+02 -0.25724889311E+01 -0.46985396647E+02  0.97279239771E+02  0.79969185360E+02 0.  0.
         -6    2    1    2    0  502  0.29299178265E+02  0.32666420538E+02  0.36792801995E+02  0.17747019330E+03  0.16797744596E+03 0.  0.
        -24    2    5    5    0    0  0.24050613428E+02  0.42033082247E+02  0.86991542599E+02  0.12592132966E+03  0.77093714203E+02 0.  0.
          5    1    3    3  501    0 -0.58521339134E+02 -0.30093931607E+02 -0.17432311571E+03  0.18638945927E+03  0.47000000000E+01 0. -1.
        -13    1    4    4    0    0 -0.19435924401E+02  0.34303265152E+01  0.99843751936E+01  0.22118093166E+02  0.00000000000E+00 0.  1.
         14    1    4    4    0    0  0.48658085269E+02 -0.60028154463E+01 -0.56969771840E+02  0.75161146604E+02  0.00000000000E+00 0. -1.
         -5    1    5    5    0  502  0.52485648378E+01 -0.93666617081E+01 -0.50198740604E+02  0.51548863640E+02  0.47000000000E+01 0.  1.
         13    1    6    6    0    0 -0.27279779404E+02  0.76903490263E+01  0.19303525507E+02  0.34292184670E+02  0.00000000000E+00 0. -1.
        -14    1    6    6    0    0  0.51330392831E+02  0.34342733220E+02  0.67688017092E+02  0.91629144987E+02  0.00000000000E+00 0.  1.
</event>
<event>
12    1  0.8133495E-002  0.2153649E+03  0.7818608E-02  0.1137700E+00
         21   -1    0    0  503  502  0.00000000000E+00  0.00000000000E+00  0.41785564699E+03  0.41785564699E+03  0.00000000000E+00 0.  1.
         21   -1    0    0  501  503 -0.00000000000E+00 -0.00000000000E+00 -0.13635242837E+03  0.13635242837E+03  0.00000000000E+00 0. -1.
          6    2    1    2  501    0 -0.52035661476E+02 -0.11839236443E+03  0.26176444839E+03  0.33794050928E+03  0.17017255758E+03 0.  0.
         24    2    3    3    0    0 -0.66732642276E+02 -0.38909846856E+02  0.10158289655E+03  0.15845877931E+03  0.93930176949E+02 0.  0.
         -6    2    1    2    0  502  0.52035661476E+02  0.11839236443E+03  0.19738770230E+02  0.21626756609E+03  0.17221375982E+03 0.  0.
        -24    2    5    5    0    0 -0.35452696570E+02  0.85810841515E+02  0.80660079858E+01  0.12206506183E+03  0.78831621957E+02 0.  0.
          5    1    3    3  501    0  0.14696980800E+02 -0.79482517570E+02  0.16018155184E+03  0.17948172997E+03  0.47000000000E+01 0. -1.
        -11    1    4    4    0    0 -0.32065748761E+02 -0.51172054877E+02  0.10541590984E+03  0.12148788208E+03  0.00000000000E+00 0.  1.
         12    1    4    4    0    0 -0.34666893515E+02  0.12262208022E+02 -0.38330132882E+01  0.36970897236E+02  0.00000000000E+00 0. -1.
         -5    1    5    5    0  502  0.87488358046E+02  0.32581522911E+02  0.11672762244E+02  0.94202504251E+02  0.47000000000E+01 0.  1.
         13    1    6    6    0    0  0.23002348188E+02  0.16197125525E+02 -0.90778284177E+01  0.29561154684E+02  0.00000000000E+00 0. -1.
        -14    1    6    6    0    0 -0.58455044758E+02  0.69613715989E+02  0.17143836404E+02  0.92503907151E+02  0.00000000000E+00 0.  1.
</event>
<event>
12    1  0.8133495E-002  0.2873289E+03  0.7818608E-02  0.1091984E+00
         21   -1    0    0  503  502  0.00000000000E+00  0.00000000000E+00  0.22441544597E+03  0.22441544597E+03  0.00000000000E+00 0. -1.
         21   -1    0    0  501  503 -0.00000000000E+00 -0.00000000000E+00 -0.38729355328E+03  0.38729355328E+03  0.00000000000E+00 0. -1.
          6    2    1    2  501    0  0.17154558827E+03 -0.15123713374E+03 -0.15352077354E+03  0.32422773318E+03  0.17103928081E+03 0.  0.
         24    2    3    3    0    0  0.15709716766E+03 -0.10410901609E+03 -0.52617634465E+02  0.21182955790E+03  0.81147635984E+02 0.  0.
         -6    2    1    2    0  502 -0.17154558827E+03  0.15123713374E+03 -0.93573337689E+01  0.28748126607E+03  0.17394642614E+03 0.  0.
        -24    2    5    5    0    0 -0.17557750902E+03  0.10363011105E+03 -0.50974459279E+02  0.22394576316E+03  0.77373430513E+02 0.  0.
          5    1    3    3  501    0  0.14448420612E+02 -0.47128117643E+02 -0.10090313907E+03  0.11239817528E+03  0.47000000000E+01 0. -1.
        -11    1    4    4    0    0  0.10071658825E+02  0.49609358546E+01  0.13166824083E+02  0.17303596518E+02  0.00000000000E+00 0.  1.
         12    1    4    4    0    0  0.14702550884E+03 -0.10906995195E+03 -0.65784458547E+02  0.19452596139E+03  0.00000000000E+00 0. -1.
         -5    1    5    5    0  502  0.40319207427E+01  0.47607022692E+02  0.41617125510E+02  0.63535502911E+02  0.47000000000E+01 0.  1.
         13    1    6    6    0    0 -0.47335764164E+02  0.23144081825E+02  0.20472499710E+02  0.56528279090E+02  0.00000000000E+00 0. -1.
        -14    1    6    6    0    0 -0.12824174485E+03  0.80486029220E+02 -0.71446958989E+02  0.16741748407E+03  0.00000000000E+00 0.  1.
</event>
<event>
12    1  0.8133495E-002  0.2687765E+03  0.7818608E-02  0.1102086E+00
         21   -1    0    0  501  502  0.00000000000E+00  0.00000000000E+00  0.92346379861E+02  0.92346379861E+02  0.00000000000E+00 0. -1.
         21   -1    0    0  502  503 -0.00000000000E+00 -0.00000000000E+00 -0.84969537784E+03  0.84969537784E+03  0.00000000000E+00 0.  1.
         -6    2    1    2    0  503  0.12767745063E+03 -0.16041765850E+03 -0.24440987778E+03  0.36328634918E+03  0.17379708450E+03 0.  0.
        -24    2    3    3    0    0  0.55183313694E+02 -0.33028287968E+02 -0.41335818827E+02  0.11279759686E+03  0.82937217358E+02 0.  0.
          6    2    1    2  501    0 -0.12767745063E+03  0.16041765850E+03 -0.51293912020E+03  0.57875540853E+03  0.17267288529E+03 0.  0.
         24    2    5    5    0    0 -0.14072523920E+03  0.81484561952E+02 -0.28366646859E+03  0.33587947870E+03  0.76844206170E+02 0.  0.
          5    1    5    5  501    0  0.13047788570E+02  0.78933096551E+02 -0.22927265160E+03  0.24287592983E+03  0.47000000000E+01 0. -1.
        -11    1    6    6    0    0 -0.32194920862E+02  0.52667036714E+02 -0.62525968890E+02  0.87862543049E+02  0.00000000000E+00 0.  1.
         12    1    6    6    0    0 -0.10853031833E+03  0.28817525238E+02 -0.22114049971E+03  0.24801693565E+03  0.00000000000E+00 0. -1.
         -5    1    3    3    0  503  0.72494136932E+02 -0.12738937054E+03 -0.20307405896E+03  0.25048875232E+03  0.47000000000E+01 0.  1.
         11    1    4    4    0    0  0.19475423426E+02  0.21098911958E+02 -0.38318683263E+02  0.47882958247E+02  0.00000000000E+00 0. -1.
        -12    1    4    4    0    0  0.35707890268E+02 -0.54127199927E+02 -0.30171355632E+01  0.64914638613E+02  0.00000000000E+00 0.  1.
</event>
<event>
12    1  0.8133495E-002  0.2154335E+03  0.7818608E-02  0.1137848E+00
         21   -1    0    0  501  502  0.00000000000E+00  0.00000000000E+00  0.79114987629E+02  0.79114987629E+02  0.00000000000E+00 0. -1.
         21   -1    0    0  502  503 -0.00000000000E+00 -0.00000000000E+00 -0.62349271362E+03  0.62349271362E+03  0.00000000000E+00 0.  1.
         -6    2    1    2    0  503 -0.12316031403E+03 -0.29058951570E+02 -0.36403910920E+03  0.42165640787E+03  0.17104609803E+03 0.  0.
        -24    2    3    3    0    0 -0.89218776907E+02  0.25467625919E+02 -0.32235759947E+03  0.34494517109E+03  0.80399993762E+02 0.  0.
          6    2    1    2  501    0  0.12316031403E+03  0.29058951570E+02 -0.18033861680E+03  0.28095129339E+03  0.17435230692E+03 0.  0.
         24    2    5    5    0    0  0.12577054387E+02 -0.40487895235E+02 -0.67904049944E+02  0.10853017218E+03  0.73282919681E+02 0.  0.
          5    1    5    5  501    0  0.11058325965E+03  0.69546846804E+02 -0.11243456685E+03  0.17242112121E+03  0.47000000000E+01 0. -1.
        -11    1    6    6    0    0  0.24382441379E+02 -0.18257236649E+02 -0.76171711438E+02  0.82036331957E+02  0.00000000000E+00 0.  1.
         12    1    6    6    0    0 -0.11805386992E+02 -0.22230658585E+02  0.82676614939E+01  0.26493840222E+02  0.00000000000E+00 0. -1.
         -5    1    3    3    0  503 -0.33941537126E+02 -0.54526577489E+02 -0.41681509726E+02  0.76711236779E+02  0.47000000000E+01 0.  1.
         11    1    4    4    0    0 -0.82428581533E+02  0.49479269084E+02 -0.23019528870E+03  0.24946450661E+03  0.00000000000E+00 0. -1.
        -12    1    4    4    0    0 -0.67901953742E+01 -0.24011643165E+02 -0.92162310776E+02  0.95480664473E+02  0.00000000000E+00 0.  1.
</event>
<event>
12    1  0.8133495E-002  0.1751791E+03  0.7818608E-02  0.1175825E+00
         21   -1    0    0  501  502  0.00000000000E+00  0.00000000000E+00  0.36242800755E+03  0.36242800755E+03  0.00000000000E+00 0.  1.
         21   -1    0    0  502  503 -0.00000000000E+00 -0.00000000000E+00 -0.12394606667E+03  0.12394606667E+03  0.00000000000E+00 0.  1.
         -6    2    1    2    0  503 -0.32824261359E+01  0.29832752493E+02 -0.24785624851E+02  0.17692379292E+03  0.17258891581E+03 0.  0.
        -24    2    3    3    0    0  0.50559091656E+02  0.59659359384E+02 -0.10042396228E+02  0.11345735843E+03  0.81585915139E+02 0.  0.
          6    2    1    2  501    0  0.32824261359E+01 -0.29832752493E+02  0.26326756573E+03  0.30945028130E+03  0.15984022645E+03 0.  0.
         24    2    5    5    0    0  0.11369095546E+02 -0.80696934023E+02  0.19302067960E+03  0.22221912749E+03  0.74048000474E+02 0.  0.
          5    1    5    5  501    0 -0.80866694100E+01  0.50864181530E+02  0.70246886130E+02  0.87231153815E+02  0.47000000000E+01 0. -1.
        -13    1    6    6    0    0  0.30664234135E+01  0.13182539081E+02  0.42731848594E+02  0.44824024512E+02  0.00000000000E+00 0.  1.
         14    1    6    6    0    0  0.83026721323E+01 -0.93879473105E+02  0.15028883101E+03  0.17739510298E+03  0.00000000000E+00 0. -1.
         -5    1    3    3    0  503 -0.53841517792E+02 -0.29826606891E+02 -0.14743228624E+02  0.63466434491E+02  0.47000000000E+01 0.  1.
         13    1    4    4    0    0 -0.20612910553E+02  0.27621713680E+02  0.18072904362E+01  0.34512569403E+02  0.00000000000E+00 0. -1.
        -14    1    4    4    0    0  0.71172002209E+02  0.32037645704E+02 -0.11849686664E+02  0.78944789028E+02  0.00000000000E+00 0.  1.
</event>
<event>
12    1  0.8133495E-002  0.1923936E+03  0.7818608E-02  0.1157217E+00
         21   -1    0    0  503  502  0.00000000000E+00  0.00000000000E+00  0.30019767469E+02  0.30019767469E+02  0.00000000000E+00 0. -1.
         21   -1    0    0  501  503 -0.00000000000E+00 -0.00000000000E+00 -0.12424729812E+04  0.12424729812E+04  0.00000000000E+00 0. -1.
          6    2    1    2  501    0  0.29205798447E+02 -0.70919138990E+02 -0.70670255674E+03  0.73138368904E+03  0.17207874348E+03 0.  0.
         24    2    3    3    0    0  0.67278223318E+02  0.15888579277E+01 -0.44912229339E+03  0.46105684757E+03  0.79584536627E+02 0.  0.
         -6    2    1    2    0  502 -0.29205798447E+02  0.70919138990E+02 -0.50575065699E+03  0.54110905963E+03  0.17644484811E+03 0.  0.
        -24    2    5    5    0    0 -0.51335511375E+02 -0.27995591562E+02 -0.18741844696E+03  0.20699630313E+03  0.65595025506E+02 0.  0.
          5    1    3    3  501    0 -0.38072424871E+02 -0.72507996918E+02 -0.25758026335E+03  0.27032684147E+03  0.47000000000E+01 0. -1.
        -13    1    4    4    0    0 -0.63749612123E+01  0.20410214864E+02 -0.18439630165E+03  0.18563192900E+03  0.00000000000E+00 0.  1.
         14    1    4    4    0    0  0.73653184531E+02 -0.18821356936E+02 -0.26472599173E+03  0.27542491857E+03  0.00000000000E+00 0. -1.
         -5    1    5    5    0  502  0.22129712928E+02  0.98914730552E+02 -0.31833221003E+03  0.33411275650E+03  0.47000000000E+01 0.  1.
         11    1    6    6    0    0 -0.22849015900E+02  0.18775182097E+02 -0.95778069801E+02  0.10023983063E+03  0.00000000000E+00 0. -1.
        -12    1    6    6    0    0 -0.28486495475E+02 -0.46770773659E+02 -0.91640377163E+02  0.10675647250E+03  0.00000000000E+00 0.  1.
</event>
<event>
12    1  0.8133495E-002  0.1944754E+03  0.7818608E-02  0.1154639E+00
         21   -1    0    0  501  502  0.00000000000E+00  0.00000000000E+00  0.92044811730E+03  0.92044811730E+03  0.00000000000E+00 0. -1.
         21   -1    0    0  502  503 -0.00000000000E+00 -0.00000000000E+00 -0.46244597387E+02  0.46244597387E+02  0.00000000000E+00 0.  1.
         -6    2    1    2    0  503 -0.89738439808E+02  0.13225806456E+01  0.27412898695E+03  0.33610619569E+03  0.17252807453E+03 0.  0.
        -24    2    3    3    0    0 -0.73393799444E+02 -0.83466840349E+01  0.64558862418E+02  0.12562491614E+03  0.78469458435E+02 0.  0.
          6    2    1    2  501    0  0.89738439808E+02 -0.13225806456E+01  0.60007453297E+03  0.63058651899E+03  0.17174159666E+03 0.  0.
         24    2    5    5    0    0 -0.87631136528E+01  0.29492543680E+02  0.32334689138E+03  0.33520133734E+03  0.82825854036E+02 0.  0.
          5    1    5    5  501    0  0.98501553461E+02 -0.30815124326E+02  0.27672764158E+03  0.29538518165E+03  0.47000000000E+01 0. -1.
        -13    1    6    6    0    0  0.23912249395E+02  0.44505169386E+02  0.22162383664E+03  0.22730954828E+03  0.00000000000E+00 0.  1.
         14    1    6    6    0    0 -0.32675363047E+02 -0.15012625705E+02  0.10172305475E+03  0.10789178906E+03  0.00000000000E+00 0. -1.
         -5    1    3    3    0  503 -0.16344640364E+02  0.96692646805E+01  0.20957012453E+03  0.21048127956E+03  0.47000000000E+01 0.  1.
         11    1    4    4    0    0 -0.20782670729E+02 -0.34475423845E+02  0.51644353657E+02  0.65479871079E+02  0.00000000000E+00 0. -1.
        -12    1    4    4    0    0 -0.52611128714E+02  0.26128739810E+02  0.12914508761E+02  0.60145045059E+02  0.00000000000E+00 0.  1.
</event>
<event>
12    1  0.8133495E-002  0.1775859E+03  0.7818608E-02  0.1170421E+00
         21   -1    0    0  503  502  0.00000000000E+00  0.00000000000E+00  0.24624684656E+03  0.24624684656E+03  0.00000000000E+00 0.  1.
         21   -1    0    0  501  503 -0.00000000000E+00 -0.00000000000E+00 -0.15251743676E+03  0.15251743676E+03  0.00000000000E+00 0.  1.
          6    2    1    2  501    0 -0.34032757840E+02 -0.26423706384E+02  0.12780723172E+03  0.21793823031E+03  0.17118978616E+03 0.  0.
         24    2    3    3    0    0 -0.78869066252E+02 -0.22757224506E+02  0.18457811180E+02  0.99603436555E+02  0.53309782417E+02 0.  0.
         -6    2    1    2    0  502  0.34032757840E+02  0.26423706384E+02 -0.34077821912E+02  0.18082605302E+03  0.17227978012E+03 0.  0.
        -24    2    5    5    0    0  0.40872943498E+02  0.49644536540E+02 -0.79016711195E+02  0.12956604070E+03  0.80053361799E+02 0.  0.
          5    1    3    3  501    0  0.44836308412E+02 -0.36664818783E+01  0.10934942054E+03  0.11833479375E+03  0.47000000000E+01 0. -1.
        -11    1    4    4    0    0 -0.34294179541E+02 -0.36328291333E+02  0.13800606625E+01  0.49977395580E+02  0.00000000000E+00 0.  1.
         12    1    4    4    0    0 -0.44574886711E+02  0.13571066827E+02  0.17077750518E+02  0.49626040975E+02  0.00000000000E+00 0. -1.
         -5    1    5    5    0  502 -0.68401856579E+01 -0.23220830155E+02  0.44938889283E+02  0.51260012319E+02  0.47000000000E+01 0.  1.
         11    1    6    6    0    0  0.17043684409E+02  0.62065226572E+01  0.14839580253E+02  0.23435469780E+02  0.00000000000E+00 0. -1.
        -12    1    6    6    0    0  0.23829259089E+02  0.43438013882E+02 -0.93856291448E+02  0.10613057092E+03  0.00000000000E+00 0.  1.
</event>
<event>
12    1  0.8133495E-002  0.1742918E+03  0.7818608E-02  0.1173510E+00
         21   -1    0    0  501  502  0.00000000000E+00  0.00000000000E+00  0.13365213211E+03  0.13365213211E+03  0.00000000000E+00 0. -1.
         21   -1    0    0  502  503 -0.00000000000E+00 -0.00000000000E+00 -0.34085737226E+03  0.34085737226E+03  0.00000000000E+00 0. -1.
         -6    2    1    2    0  503 -0.18709182890E+02 -0.23768456776E+02 -0.24070266202E+03  0.29702791028E+03  0.17138504871E+03 0.  0.
        -24    2    3    3    0    0 -0.27028476964E+01 -0.76688590367E+02 -0.10639838748E+03  0.15171283375E+03  0.76208410229E+02 0.  0.
          6    2    1    2  501    0  0.18709182890E+02  0.23768456776E+02  0.33497421867E+02  0.17748159409E+03  0.17164692222E+03 0.  0.
         24    2    5    5    0    0 -0.70077185668E+01  0.25093167301E+02 -0.51805097857E+02  0.88253102287E+02  0.66528691063E+02 0.  0.
          5    1    5    5  501    0  0.25716901457E+02 -0.13247105250E+01  0.85302519724E+02  0.89228491805E+02  0.47000000000E+01 0. -1.
        -13    1    6    6    0    0  0.29635644850E+01  0.46782616616E+02 -0.39994755532E+02  0.61619610531E+02  0.00000000000E+00 0.  1.
         14    1    6    6    0    0 -0.99712830518E+01 -0.21689449315E+02 -0.11810342325E+02  0.26633491756E+02  0.00000000000E+00 0. -1.
         -5    1    3    3    0  503 -0.16006335194E+02  0.52920133590E+02 -0.13430427454E+03  0.14531507653E+03  0.47000000000E+01 0.  1.
         11    1    4    4    0    0 -0.24941594854E+02 -0.32377128239E+01 -0.69450529047E+01  0.26092138625E+02  0.00000000000E+00 0. -1.
        -12    1    4    4    0    0  0.22238747157E+02 -0.73450877543E+02 -0.99453334574E+02  0.12562069513E+03  0.00000000000E+00 0.  1.
</event>
<event>
12    1  0.8133495E-002  0.2320203E+03  0.7818608E-02  0.1125359E+00
         21   -1    0    0  503  502  0.00000000000E+00  0.00000000000E+00  0.52232764511E+03  0.52232764511E+03  0.00000000000E+00 0. -1.
         21   -1    0    0  501  503 -0.00000000000E+00 -0.00000000000E+00 -0.18698557463E+03  0.18698557463E+03  0.00000000000E+00 0. -1.
          6    2    1    2  501    0  0.96937094045E+02  0.12139657729E+03 -0.70252576667E+02  0.24242281683E+03  0.17233533709E+03 0.  0.
         24    2    3    3    0    0  0.49389835695E+02  0.14493348018E+03 -0.75511754106E+02  0.18890201226E+03  0.80850947324E+02 0.  0.
         -6    2    1    2    0  502 -0.96937094045E+02 -0.12139657729E+03  0.40559464715E+03  0.46689040292E+03  0.17130587077E+03 0.  0.
        -24    2    5    5    0    0 -0.10091818661E+03 -0.20698764046E+02  0.26427390896E+03  0.29325417475E+03  0.74460679739E+02 0.  0.
          5    1    3    3  501    0  0.47547258350E+02 -0.23536902884E+02  0.52591774389E+01  0.53520804565E+02  0.47000000000E+01 0. -1.
        -11    1    4    4    0    0  0.27182655421E+02  0.12334708662E+02 -0.39881319933E+02  0.49815273492E+02  0.00000000000E+00 0.  1.
         12    1    4    4    0    0  0.22207180274E+02  0.13259877152E+03 -0.35630434173E+02  0.13908673877E+03  0.00000000000E+00 0. -1.
         -5    1    5    5    0  502  0.39810925674E+01 -0.10069781325E+03  0.14132073818E+03  0.17363622816E+03  0.47000000000E+01 0.  1.
         13    1    6    6    0    0 -0.77850163064E+02 -0.44824058062E+02  0.22131426587E+03  0.23885110079E+03  0.00000000000E+00 0. -1.
        -14    1    6    6    0    0 -0.23068023549E+02  0.24125294015E+02  0.42959643096E+02  0.54403073963E+02  0.00000000000E+00 0.  1.
</event>
<event>
12    1  0.8133495E-002  0.1862724E+03  0.7818608E-02  0.1161900E+00
         21   -1    0    0  501  502  0.00000000000E+00  0.00000000000E+00  0.23755714626E+03  0.23755714626E+03  0.00000000000E+00 0. -1.
         21   -1    0    0  502  503 -0.00000000000E+00 -0.00000000000E+00 -0.14628254142E+03  0.14628254142E+03  0.00000000000E+00 0. -1.
         -6    2    1    2    0  503 -0.54346758286E+02 -0.45321451894E+02  0.36465840273E+02  0.18980819482E+03  0.17230725225E+03 0.  0.
        -24    2    3    3    0    0 -0.99967147561E+02 -0.13851133064E+02  0.14133666146E+02  0.12987142075E+03  0.80508017805E+02 0.  0.
          6    2    1    2  501    0  0.54346758286E+02  0.45321451894E+02  0.54808764563E+02  0.19403149285E+03  0.17215288382E+03 0.  0.
         24    2    5    5    0    0 -0.24890523185E+02  0.50626060726E+02 -0.10806886295E+02  0.90909287255E+02  0.70463987603E+02 0.  0.
          5    1    5    5  501    0  0.79237281472E+02 -0.53046088315E+01  0.65615650858E+02  0.10312220560E+03  0.47000000000E+01 0. -1.
        -11    1    6    6    0    0 -0.61359965741E+01  0.55424169704E+02 -0.30277774083E+02  0.63452601560E+02  0.00000000000E+00 0.  1.
         12    1    6    6    0    0 -0.18754526611E+02 -0.47981089780E+01  0.19470887787E+02  0.27456685696E+02  0.00000000000E+00 0. -1.
         -5    1    3    3    0  503  0.45620389274E+02 -0.31470318830E+02  0.22332174127E+02  0.59936774071E+02  0.47000000000E+01 0.  1.
         11    1    4    4    0    0 -0.67810592719E+02  0.22394481464E+02  0.31965303587E+02  0.78240462156E+02  0.00000000000E+00 0. -1.
        -12    1    4    4    0    0 -0.32156554842E+02 -0.36245614527E+02 -0.17831637441E+02  0.51630958596E+02  0.00000000000E+00 0.  1.
</event>
<event>
12    1  0.8133495E-002  0.2561237E+03  0.7818608E-02  0.1109632E+00
         21   -1    0    0  501  502  0.00000000000E+00  0.00000000000E+00  0.93369639625E+02  0.93369639625E+02  0.00000000000E+00 0. -1.
         21   -1    0    0  502  503 -0.00000000000E+00 -0.00000000000E+00 -0.12404568231E+04  0.12404568231E+04  0.00000000000E+00 0.  1.
         -6    2    1    2    0  503 -0.17863162907E+03  0.61794199692E+02 -0.10131350008E+04  0.10447892446E+04  0.17150584134E+03 0.  0.
        -24    2    3    3    0    0 -0.18693643973E+03  0.85953332880E+02 -0.96828173168E+03  0.99295740734E+03  0.77856874700E+02 0.  0.
          6    2    1    2  501    0  0.17863162907E+03 -0.61794199692E+02 -0.13395218260E+03  0.28903721813E+03  0.17283386306E+03 0.  0.
         24    2    5    5    0    0  0.20224276894E+03 -0.71615248012E+02 -0.11574501070E+03  0.25729560467E+03  0.82299692228E+02 0.  0.
          5    1    5    5  501    0 -0.23611139878E+02  0.98210483201E+01 -0.18207171901E+02  0.31741613461E+02  0.47000000000E+01 0. -1.
        -11    1    6    6    0    0  0.19707627235E+03 -0.44449716910E+02 -0.99149024771E+02  0.22504524783E+03  0.00000000000E+00 0.  1.
         12    1    6    6    0    0  0.51664965901E+01 -0.27165531102E+02 -0.16595985932E+02  0.32250356837E+02  0.00000000000E+00 0. -1.
         -5    1    3    3    0  503  0.83048106676E+01 -0.24159133188E+02 -0.44853269164E+02  0.51831837236E+02  0.47000000000E+01 0.  1.
         11    1    4    4    0    0 -0.18965380038E+03  0.82716231799E+02 -0.85802302791E+03  0.88261772894E+03  0.00000000000E+00 0. -1.
        -12    1    4    4    0    0  0.27173606497E+01  0.32371010807E+01 -0.11025870377E+03  0.11033967840E+03  0.00000000000E+00 0.  1.
</event>
<event>
12    1  0.8133495E-002  0.2098430E+03  0.7818608E-02  0.1141876E+00
         21   -1    0    0  503  502  0.00000000000E+00  0.00000000000E+00  0.83627477117E+02  0.83627477117E+02  0.00000000000E+00 0.  1.
         21   -1    0    0  501  503 -0.00000000000E+00 -0.00000000000E+00 -0.52535976910E+03  0.52535976910E+03  0.00000000000E+00 0.  1.
          6    2    1    2  501    0 -0.84083941419E+02  0.85557577649E+02 -0.20611011963E+03  0.29346880524E+03  0.17103318373E+03 0.  0.
         24    2    3    3    0    0  0.16713936470E+02  0.68957983261E+02 -0.10946806110E+03  0.15276508746E+03  0.79494379783E+02 0.  0.
         -6    2    1    2    0  502  0.84083941419E+02 -0.85557577649E+02 -0.23562217235E+03  0.31551844097E+03  0.17217395330E+03 0.  0.
        -24    2    5    5    0    0 -0.17622782733E+02 -0.56989692229E+02 -0.14531380855E+03  0.17645704307E+03  0.80390283006E+02 0.  0.
          5    1    3    3  501    0 -0.10079787789E+03  0.16599594387E+02 -0.96642058529E+02  0.14070371778E+03  0.47000000000E+01 0. -1.
        -13    1    4    4    0    0 -0.23489507873E+02  0.57765238366E+02 -0.49062190938E+02  0.79345310657E+02  0.00000000000E+00 0.  1.
         14    1    4    4    0    0  0.40203444343E+02  0.11192744895E+02 -0.60405870165E+02  0.73419776803E+02  0.00000000000E+00 0. -1.
         -5    1    5    5    0  502  0.10170672415E+03 -0.28567885420E+02 -0.90308363795E+02  0.13906139790E+03  0.47000000000E+01 0.  1.
         13    1    6    6    0    0 -0.41289694405E+01 -0.57332770908E+02 -0.39404003536E+02  0.69690533814E+02  0.00000000000E+00 0. -1.
        -14    1    6    6    0    0 -0.13493813292E+02  0.34307867964E+00 -0.10590980502E+03  0.10676650926E+03  0.00000000000E+00 0.  1.
</event>
<event>
12    1  0.8133495E-002  0.1893532E+03  0.7818608E-02  0.1159305E+00
         21   -1    0    0  501  502  0.00000000000E+00  0.00000000000E+00  0.86543310603E+03  0.86543310603E+03  0.00000000000E+00 0.  1.
         21   -1    0    0  502  503 -0.00000000000E+00 -0.00000000000E+00 -0.11538557487E+03  0.11538557487E+03  0.00000000000E+00 0.  1.
         -6    2    1    2    0  503  0.14472891502E+01 -0.79234613392E+02 -0.17848935709E+02  0.19019256297E+03  0.17197211372E+03 0.  0.
        -24    2    3    3    0    0  0.85295989428E+01 -0.26203967355E+02  0.50312580214E+02  0.10341416252E+03  0.86044937792E+02 0.  0.
          6    2    1    2  501    0 -0.14472891502E+01  0.79234613392E+02  0.76789646687E+03  0.79062611793E+03  0.17071747398E+03 0.  0.
         24    2    5    5    0    0  0.48491531018E+02  0.27388683276E+02  0.23785513861E+03  0.25569828552E+03  0.75531302791E+02 0.  0.
          5    1    5    5  501    0 -0.49938820169E+02  0.51845930116E+02  0.53004132825E+03  0.53492783241E+03  0.47000000000E+01 0. -1.
        -11    1    6    6    0    0  0.46940396654E+02 -0.11681059501E+01  0.21202276965E+03  0.21715989537E+03  0.00000000000E+00 0.  1.
         12    1    6    6    0    0  0.15511343640E+01  0.28556789226E+02  0.25832368966E+02  0.38538390147E+02  0.00000000000E+00 0. -1.
         -5    1    3    3    0  503 -0.70823097925E+01 -0.53030646037E+02 -0.68161515923E+02  0.86778400447E+02  0.47000000000E+01 0.  1.
         13    1    4    4    0    0  0.38392869297E+02 -0.39397305714E+02  0.43334748229E+02  0.70028997668E+02  0.00000000000E+00 0. -1.
        -14    1    4    4    0    0 -0.29863270354E+02  0.13193338359E+02  0.69778319851E+01  0.33385164856E+02  0.00000000000E+00 0.  1.
</event>
<event>
12    1  0.8133495E-002  0.3072918E+03  0.7818608E-02  0.1081759E+00
         21   -1    0    0  501  502  0.00000000000E+00  0.00000000000E+00  0.82422952161E+03  0.82422952161E+03  0.00000000000E+00 0.  1.
         21   -1    0    0  502  503 -0.00000000000E+00 -0.00000000000E+00 -0.18280961747E+03  0.18280961747E+03  0.00000000000E+00 0.  1.
         -6    2    1    2    0  503  0.60479901975E+01  0.25280971987E+03  0.12612124780E+02  0.30755055434E+03  0.17458220165E+03 0.  0.
        -24    2    3    3    0    0 -0.11080643106E+02  0.72807317717E+02  0.55838555548E+02  0.12158047831E+03  0.78994824231E+02 0.  0.
          6    2    1    2  501    0 -0.60479901975E+01 -0.25280971987E+03  0.62880777935E+03  0.69948858474E+03  0.17301943291E+03 0.  0.
         24    2    5    5    0    0 -0.32143014741E+02 -0.91026945948E+02  0.38554411434E+03  0.40613910552E+03  0.83580085220E+02 0.  0.
          5    1    5    5  501    0  0.26095024544E+02 -0.16178277392E+03  0.24326366501E+03  0.29334947922E+03  0.47000000000E+01 0. -1.
        -11    1    6    6    0    0  0.19034101258E+01 -0.37888281381E+02  0.28441257192E+03  0.28693144809E+03  0.00000000000E+00 0.  1.
         12    1    6    6    0    0 -0.34046424867E+02 -0.53138664567E+02  0.10113154242E+03  0.11920765743E+03  0.00000000000E+00 0. -1.
         -5    1    3    3    0  503  0.17128633304E+02  0.18000240216E+03 -0.43226430768E+02  0.18597007603E+03  0.47000000000E+01 0.  1.
         11    1    4    4    0    0  0.21017767456E+02  0.57025825863E+02  0.71923032223E+01  0.61199841420E+02  0.00000000000E+00 0. -1.
        -12    1    4    4    0    0 -0.32098410562E+02  0.15781491854E+02  0.48646252326E+02  0.60380636889E+02  0.00000000000E+00 0.  1.
</event>
<event>
12    1  0.8133495E-002  0.2194949E+03  0.7818608E-02  0.1134321E+00
         21   -1    0    0  501  502  0.00000000000E+00  0.00000000000E+00  0.14047038711E+04  0.14047038711E+04  0.00000000000E+00 0.  1.
         21   -1    0    0  502  503 -0.00000000000E+00 -0.00000000000E+00 -0.72320392380E+02  0.72320392380E+02  0.00000000000E+00 0.  1.
         -6    2    1    2    0  503  0.12704769829E+03 -0.48995429309E+02  0.13058076905E+03  0.25540038854E+03  0.17215211729E+03 0.  0.
        -24    2    3    3    0    0  0.13650155227E+03  0.67560793877E+01  0.11947839276E+03  0.19758206241E+03  0.78008119245E+02 0.  0.
          6    2    1    2  501    0 -0.12704769829E+03  0.48995429309E+02  0.12018027096E+04  0.12216238749E+04  0.17173662717E+03 0.  0.
         24    2    5    5    0    0 -0.15070640690E+03  0.75789203860E+02  0.10446415520E+04  0.10603807035E+04  0.68372799674E+02 0.  0.
          5    1    5    5  501    0  0.23658708607E+02 -0.26793774551E+02  0.15716115763E+03  0.16124317137E+03  0.47000000000E+01 0. -1.
        -11    1    6    6    0    0 -0.11543374625E+03  0.51072279643E+02  0.91749018170E+03  0.92613258286E+03  0.00000000000E+00 0.  1.
         12    1    6    6    0    0 -0.35272660645E+02  0.24716924217E+02  0.12715137030E+03  0.13424812066E+03  0.00000000000E+00 0. -1.
         -5    1    3    3    0  503 -0.94538539813E+01 -0.55751508697E+02  0.11102376283E+02  0.57818326127E+02  0.47000000000E+01 0.  1.
         13    1    4    4    0    0 -0.92019598729E+01 -0.32467947212E+00  0.16917871789E+02  0.19261253026E+02  0.00000000000E+00 0. -1.
        -14    1    4    4    0    0  0.14570351215E+03  0.70807588598E+01  0.10256052097E+03  0.17832080939E+03  0.00000000000E+00 0.  1.
</event>
<event>
12    1  0.8133495E-002  0.2639975E+03  0.7818608E-02  0.1104844E+00
         21   -1    0    0  501  502  0.00000000000E+00  0.00000000000E+00  0.13663754124E+03  0.13663754124E+03  0.00000000000E+00 0. -1.
         21   -1    0    0  502  503 -0.00000000000E+00 -0.00000000000E+00 -0.57807489949E+03  0.57807489949E+03  0.00000000000E+00 0. -1.
         -6    2    1    2    0  503 -0.49067019574E+02 -0.19524695144E+03 -0.34402067367E+03  0.43331472846E+03  0.16994847904E+03 0.  0.
        -24    2    3    3    0    0 -0.86082932226E+02 -0.82911527624E+02 -0.15683208577E+03  0.21183993830E+03  0.77429088197E+02 0.  0.
          6    2    1    2  501    0  0.49067019574E+02  0.19524695144E+03 -0.97416684586E+02  0.28139771227E+03  0.17077973410E+03 0.  0.
         24    2    5    5    0    0  0.16790396357E+01  0.39313610440E+02 -0.54300249607E+00  0.91746907476E+02  0.82878350851E+02 0.  0.
          5    1    5    5  501    0  0.47387979938E+02  0.15593334100E+03 -0.96873682089E+02  0.18965080480E+03  0.47000000000E+01 0. -1.
        -11    1    6    6    0    0 -0.13171878646E+01  0.62435413770E+02  0.14355623960E+02  0.64078075937E+02  0.00000000000E+00 0.  1.
         12    1    6    6    0    0  0.29962275004E+01 -0.23121803330E+02 -0.14898626456E+02  0.27668831539E+02  0.00000000000E+00 0. -1.
         -5    1    3    3    0  503  0.37015912652E+02 -0.11233542382E+03 -0.18718858791E+03  0.22147479016E+03  0.47000000000E+01 0.  1.
         11    1    4    4    0    0 -0.25784097103E+02  0.13070440175E+02 -0.28072432814E+02  0.40295378816E+02  0.00000000000E+00 0. -1.
        -12    1    4    4    0    0 -0.60298835123E+02 -0.95981967799E+02 -0.12875965295E+03  0.17154455948E+03  0.00000000000E+00 0.  1.
</event>
<event>
12    1  0.8133495E-002  0.2143838E+03  0.7818608E-02  0.1138485E+00
         21   -1    0    0  503  502  0.00000000000E+00  0.00000000000E+00  0.24240351790E+03  0.24240351790E+03  0.00000000000E+00 0. -1.
         21   -1    0    0  501  503 -0.00000000000E+00 -0.00000000000E+00 -0.26358170549E+03  0.26358170549E+03  0.00000000000E+00 0. -1.
          6    2    1    2  501    0 -0.94950106315E+02  0.86532089493E+02 -0.14600319496E+03  0.25790922207E+03  0.16940161951E+03 0.  0.
         24    2    3    3    0    0 -0.93881982390E+02  0.32969211618E+02 -0.32067232724E+02  0.13191868170E+03  0.80457663611E+02 0.  0.
         -6    2    1    2    0  502  0.94950106315E+02 -0.86532089493E+02  0.12482500737E+03  0.24807600131E+03  0.17163069295E+03 0.  0.
        -24    2    5    5    0    0  0.61701038631E+02 -0.12210972045E+03  0.62848348267E+02  0.16911737544E+03  0.77025773601E+02 0.  0.
          5    1    3    3  501    0 -0.10681239253E+01  0.53562877875E+02 -0.11393596223E+03  0.12599054038E+03  0.47000000000E+01 0. -1.
        -11    1    4    4    0    0 -0.14578573341E+02 -0.25302225329E+02 -0.11485156165E+02  0.31379072953E+02  0.00000000000E+00 0.  1.
         12    1    4    4    0    0 -0.79303409049E+02  0.58271436947E+02 -0.20582076559E+02  0.10053960874E+03  0.00000000000E+00 0. -1.
         -5    1    5    5    0  502  0.33249067685E+02  0.35577630958E+02  0.61976659102E+02  0.78958625874E+02  0.47000000000E+01 0.  1.
         11    1    6    6    0    0  0.52946553564E+02 -0.96002887287E+02  0.80847265446E+02  0.13622104181E+03  0.00000000000E+00 0. -1.
        -12    1    6    6    0    0  0.87544850669E+01 -0.26106833164E+02 -0.17998917179E+02  0.32896333629E+02  0.00000000000E+00 0.  1.
</event>
