<event>
12    1  0.8562501E-002  0.1879916E+03  0.7818608E-02  0.1160679E+00
         21   -1    0    0  503  502  0.00000000000E+00  0.00000000000E+00  0.75550989411E+02  0.75550989411E+02  0.00000000000E+00 0. -1.
         21   -1    0    0  501  503 -0.00000000000E+00 -0.00000000000E+00 -0.53782924861E+03  0.53782924861E+03  0.00000000000E+00 0.  1.
          6    2    1    2  501    0 -0.67888853259E+02 -0.40284894716E+02 -0.34422138386E+03  0.39139315740E+03  0.16872603063E+03 0.  0.
         24    2    3    3    0    0 -0.35262331184E+02  0.36198017512E+02 -0.24101729877E+03  0.25877604317E+03  0.79510840405E+02 0.  0.
         -6    2    1    2    0  502  0.67888853259E+02  0.40284894716E+02 -0.11805687534E+03  0.22198708062E+03  0.17061380076E+03 0.  0.
        -24    2    5    5    0    0  0.10334496171E+03  0.21792703095E+02 -0.56826167834E+02  0.14870416093E+03  0.87912519640E+02 0.  0.
          5    1    3    3  501    0 -0.32626522075E+02 -0.76482912227E+02 -0.10320408510E+03  0.13261711423E+03  0.47000000000E+01 0. -1.
        -13    1    4    4    0    0 -0.21708981406E+02 -0.22921002600E+02 -0.58941342012E+02  0.66863547857E+02  0.00000000000E+00 0.  1.
         14    1    4    4    0    0 -0.13553349778E+02  0.59119020112E+02 -0.18207595676E+03  0.19191249531E+03  0.00000000000E+00 0. -1.
         -5    1    5    5    0  502 -0.35456108448E+02  0.18492191621E+02 -0.61230707501E+02  0.73282919690E+02  0.47000000000E+01 0.  1.
         11    1    6    6    0    0 -0.64399377175E+01  0.26589186404E+02 -0.84096663076E+01  0.28621322800E+02  0.00000000000E+00 0. -1.
        -12    1    6    6    0    0  0.10978489943E+03 -0.47964833089E+01 -0.48416501527E+02  0.12008283813E+03  0.00000000000E+00 0.  1.
</event>
<event>
12    1  0.8562501E-002  0.3165632E+03  0.7818608E-02  0.1077275E+00
         21   -1    0    0  501  502  0.00000000000E+00  0.00000000000E+00  0.53531023580E+03  0.53531023580E+03  0.00000000000E+00 0. -1.
         21   -1    0    0  502  503 -0.00000000000E+00 -0.00000000000E+00 -0.59334578200E+03  0.59334578200E+03  0.00000000000E+00 0.  1.
         -6    2    1    2    0  503  0.91668766910E+02 -0.24919403287E+03 -0.49600986871E+03  0.58841998117E+03  0.17237011207E+03 0.  0.
        -24    2    3    3    0    0  0.10044636621E+03 -0.10559675136E+03 -0.32656261282E+03  0.36608759929E+03  0.78338010397E+02 0.  0.
          6    2    1    2  501    0 -0.91668766910E+02  0.24919403287E+03  0.43797432251E+03  0.54023603664E+03  0.17185063064E+03 0.  0.
         24    2    5    5    0    0  0.14656672421E+02  0.14855538320E+03  0.23557717267E+03  0.29039622171E+03  0.80931090297E+02 0.  0.
          5    1    5    5  501    0 -0.10632543933E+03  0.10063864968E+03  0.20239714984E+03  0.24983981492E+03  0.47000000000E+01 0. -1.
        -11    1    6    6    0    0  0.15876723516E+02  0.10474108257E+02  0.80648672651E+02  0.82861243617E+02  0.00000000000E+00 0.  1.
         12    1    6    6    0    0 -0.12200510944E+01  0.13808127494E+03  0.15492850002E+03  0.20753497809E+03  0.00000000000E+00 0. -1.
         -5    1    3    3    0  503 -0.87775993039E+01 -0.14359728151E+03 -0.16944725588E+03  0.22233238188E+03  0.47000000000E+01 0.  1.
         11    1    4    4    0    0  0.47316890690E+01  0.12463430814E+02 -0.22415089355E+02  0.26079919860E+02  0.00000000000E+00 0. -1.
        -12    1    4    4    0    0  0.95714677145E+02 -0.11806018218E+03 -0.30414752347E+03  0.34000767943E+03  0.00000000000E+00 0.  1.
</event>
<event>
12    1  0.8562501E-002  0.3133741E+03  0.7818608E-02  0.1078762E+00
         21   -1    0    0  503  502  0.00000000000E+00  0.00000000000E+00  0.16575690154E+03  0.16575690154E+03  0.00000000000E+00 0.  1.
         21   -1    0    0  501  503 -0.00000000000E+00 -0.00000000000E+00 -0.90154870206E+03  0.90154870206E+03  0.00000000000E+00 0. -1.
          6    2    1    2  501    0  0.99519919957E+02 -0.24172048993E+03 -0.68047177916E+03  0.74908609159E+03  0.17249672654E+03 0.  0.
         24    2    3    3    0    0  0.30393312701E+02 -0.22433025791E+03 -0.48620823423E+03  0.54210463618E+03  0.78937769513E+02 0.  0.
         -6    2    1    2    0  502 -0.99519919957E+02  0.24172048993E+03 -0.55320021359E+02  0.31821951201E+03  0.17283038893E+03 0.  0.
        -24    2    5    5    0    0 -0.42818326042E+02  0.22219188045E+03 -0.80366895892E+02  0.25305914626E+03  0.79858955460E+02 0.  0.
          5    1    3    3  501    0  0.69126607255E+02 -0.17390232022E+02 -0.19426354492E+03  0.20698145542E+03  0.47000000000E+01 0. -1.
        -11    1    4    4    0    0 -0.15375847856E+02 -0.93803678944E+02 -0.13933636165E+03  0.16867177760E+03  0.00000000000E+00 0.  1.
         12    1    4    4    0    0  0.45769160558E+02 -0.13052657897E+03 -0.34687187258E+03  0.37343285858E+03  0.00000000000E+00 0. -1.
         -5    1    5    5    0  502 -0.56701593915E+02  0.19528609481E+02  0.25046874532E+02  0.65160365750E+02  0.47000000000E+01 0.  1.
         11    1    6    6    0    0 -0.40301759896E+02  0.14897706416E+03 -0.15320077945E+02  0.15509062604E+03  0.00000000000E+00 0. -1.
        -12    1    6    6    0    0 -0.25165661461E+01  0.73214816293E+02 -0.65046817947E+02  0.97968520225E+02  0.00000000000E+00 0.  1.
</event>
<event>
12    1  0.8562501E-002  0.2754003E+03  0.7818608E-02  0.1098336E+00
         21   -1    0    0  503  502  0.00000000000E+00  0.00000000000E+00  0.65445296220E+03  0.65445296220E+03  0.00000000000E+00 0. -1.
         21   -1    0    0  501  503 -0.00000000000E+00 -0.00000000000E+00 -0.13971863716E+03  0.13971863716E+03  0.00000000000E+00 0.  1.
          6    2    1    2  501    0 -0.12385703844E+03 -0.17550179211E+03  0.42216163112E+03  0.50362899891E+03  0.17111481744E+03 0.  0.
         24    2    3    3    0    0 -0.42471908719E+02 -0.12201214440E+02  0.12862931363E+03  0.15797898890E+03  0.80368700038E+02 0.  0.
         -6    2    1    2    0  502  0.12385703844E+03  0.17550179211E+03  0.92572693921E+02  0.29054260045E+03  0.17234806066E+03 0.  0.
        -24    2    5    5    0    0  0.42526974674E+02  0.30108746892E+02 -0.14051791470E+02  0.92692688262E+02  0.75361803319E+02 0.  0.
          5    1    3    3  501    0 -0.81385129722E+02 -0.16330057767E+03  0.29353231749E+03  0.34565001001E+03  0.47000000000E+01 0. -1.
        -11    1    4    4    0    0  0.21339341720E+02 -0.12605312471E+02  0.56361296429E+02  0.61569937004E+02  0.00000000000E+00 0.  1.
         12    1    4    4    0    0 -0.63811250439E+02  0.40409803177E+00  0.72268017203E+02  0.96409051901E+02  0.00000000000E+00 0. -1.
         -5    1    5    5    0  502  0.81330063767E+02  0.14539304521E+03  0.10662448539E+03  0.19784991219E+03  0.47000000000E+01 0.  1.
         13    1    6    6    0    0 -0.20630661997E+02  0.14111417382E+02  0.34465716256E+01  0.25231630367E+02  0.00000000000E+00 0. -1.
        -14    1    6    6    0    0  0.63157636672E+02  0.15997329510E+02 -0.17498363095E+02  0.67461057896E+02  0.00000000000E+00 0.  1.
</event>
<event>
12    1  0.8562501E-002  0.2641599E+03  0.7818608E-02  0.1104686E+00
         21   -1    0    0  503  502  0.00000000000E+00  0.00000000000E+00  0.19035546154E+03  0.19035546154E+03  0.00000000000E+00 0.  1.
         21   -1    0    0  501  503 -0.00000000000E+00 -0.00000000000E+00 -0.36657775636E+03  0.36657775636E+03  0.00000000000E+00 0. -1.
          6    2    1    2  501    0  0.93190140933E+02 -0.17782176260E+03 -0.82323957697E+02  0.27658104231E+03  0.17150760138E+03 0.  0.
         24    2    3    3    0    0  0.12019415172E+03 -0.12788041427E+03 -0.22234754130E+02  0.19377912652E+03  0.79094444322E+02 0.  0.
         -6    2    1    2    0  502 -0.93190140933E+02  0.17782176260E+03 -0.93898337127E+02  0.28035217560E+03  0.17168419562E+03 0.  0.
        -24    2    5    5    0    0 -0.13106930885E+03  0.12296205761E+03 -0.65156010870E+02  0.20760171228E+03  0.80958840513E+02 0.  0.
          5    1    3    3  501    0 -0.27004010789E+02 -0.49941348331E+02 -0.60089203567E+02  0.82801915782E+02  0.47000000000E+01 0. -1.
        -13    1    4    4    0    0  0.84940453649E+02 -0.37845166780E+02 -0.27422031621E+02  0.96948982114E+02  0.00000000000E+00 0.  1.
         14    1    4    4    0    0  0.35253698074E+02 -0.90035247490E+02  0.51872774913E+01  0.96830144409E+02  0.00000000000E+00 0. -1.
         -5    1    5    5    0  502  0.37879167916E+02  0.54859704996E+02 -0.28742326257E+02  0.72750463318E+02  0.47000000000E+01 0.  1.
         13    1    6    6    0    0 -0.40451261248E+02  0.66369522737E+01  0.98598904304E+01  0.42161251302E+02  0.00000000000E+00 0. -1.
        -14    1    6    6    0    0 -0.90618047601E+02  0.11632510533E+03 -0.75015901300E+02  0.16544046098E+03  0.00000000000E+00 0.  1.
</event>
<event>
12    1  0.8562501E-002  0.1924587E+03  0.7818608E-02  0.1156589E+00
         21   -1    0    0  501  502  0.00000000000E+00  0.00000000000E+00  0.27830580899E+03  0.27830580899E+03  0.00000000000E+00 0.  1.
         21   -1    0    0  502  503 -0.00000000000E+00 -0.00000000000E+00 -0.13299251173E+03  0.13299251173E+03  0.00000000000E+00 0.  1.
         -6    2    1    2    0  503  0.82820012006E+02  0.17950430983E+02  0.55902080724E+02  0.20041307859E+03  0.17279753204E+03 0.  0.
        -24    2    3    3    0    0  0.79738660446E+02  0.64011433093E+02  0.21552359577E+01  0.12940657209E+03  0.79282396035E+02 0.  0.
          6    2    1    2  501    0 -0.82820012006E+02 -0.17950430983E+02  0.89411216531E+02  0.21088524213E+03  0.17116321844E+03 0.  0.
         24    2    5    5    0    0 -0.93605383262E+02  0.40208525886E+02  0.75498706769E+02  0.14993906567E+03  0.80018593843E+02 0.  0.
          5    1    5    5  501    0  0.10785371256E+02 -0.58158956868E+02  0.13912509762E+02  0.60946176460E+02  0.47000000000E+01 0. -1.
        -11    1    6    6    0    0 -0.61312779760E+02 -0.17541581526E+01  0.75128803232E+02  0.96987994658E+02  0.00000000000E+00 0.  1.
         12    1    6    6    0    0 -0.32292603502E+02  0.41962684038E+02  0.36990353710E+00  0.52951071012E+02  0.00000000000E+00 0. -1.
         -5    1    3    3    0  503  0.30813515603E+01 -0.46061002110E+02  0.53746844767E+02  0.71006506499E+02  0.47000000000E+01 0.  1.
         11    1    4    4    0    0 -0.63393388898E+01 -0.80119432932E+01  0.13129199519E+02  0.16635934987E+02  0.00000000000E+00 0. -1.
        -12    1    4    4    0    0  0.86077999336E+02  0.72023376386E+02 -0.10973963561E+02  0.11277063710E+03  0.00000000000E+00 0.  1.
</event>
<event>
12    1  0.8562501E-002  0.2220604E+03  0.7818608E-02  0.1134282E+00
         21   -1    0    0  503  502  0.00000000000E+00  0.00000000000E+00  0.76627436484E+03  0.76627436484E+03  0.00000000000E+00 0. -1.
         21   -1    0    0  501  503 -0.00000000000E+00 -0.00000000000E+00 -0.73518891884E+02  0.73518891884E+02  0.00000000000E+00 0. -1.
          6    2    1    2  501    0 -0.29523002804E+02 -0.12448495933E+03  0.18295042565E+03  0.28771803876E+03  0.18150123633E+03 0.  0.
         24    2    3    3    0    0 -0.53791583278E+02 -0.25467400471E+02  0.14786824476E+03  0.17980005890E+03  0.83192069662E+02 0.  0.
         -6    2    1    2    0  502  0.29523002804E+02  0.12448495933E+03  0.50980504731E+03  0.55207521797E+03  0.16887198475E+03 0.  0.
        -24    2    5    5    0    0  0.69901684212E+02  0.12952748397E+03  0.36403627936E+03  0.40066026271E+03  0.79640560397E+02 0.  0.
          5    1    3    3  501    0  0.24268580474E+02 -0.99017558860E+02  0.35082180889E+02  0.10791797986E+03  0.47000000000E+01 0. -1.
        -11    1    4    4    0    0 -0.25757027753E+02  0.27909944287E+02  0.34089827913E+02  0.51034359366E+02  0.00000000000E+00 0.  1.
         12    1    4    4    0    0 -0.28034555525E+02 -0.53377344758E+02  0.11377841684E+03  0.12876569953E+03  0.00000000000E+00 0. -1.
         -5    1    5    5    0  502 -0.40378681408E+02 -0.50425246426E+01  0.14576876795E+03  0.15141495526E+03  0.47000000000E+01 0.  1.
         11    1    6    6    0    0  0.49903656439E+02  0.57792876925E+02  0.97075988217E+02  0.12350764769E+03  0.00000000000E+00 0. -1.
        -12    1    6    6    0    0  0.19998027773E+02  0.71734607049E+02  0.26696029115E+03  0.27715261502E+03  0.00000000000E+00 0.  1.
</event>
<event>
12    1  0.8562501E-002  0.2843157E+03  0.7818608E-02  0.1093387E+00
         21   -1    0    0  501  502  0.00000000000E+00  0.00000000000E+00  0.31267047380E+03  0.31267047380E+03  0.00000000000E+00 0.  1.
         21   -1    0    0  502  503 -0.00000000000E+00 -0.00000000000E+00 -0.28971531691E+03  0.28971531691E+03  0.00000000000E+00 0.  1.
         -6    2    1    2    0  503  0.63044261127E+02  0.21725789367E+03 -0.87688652659E+02  0.29729978982E+03  0.17182052845E+03 0.  0.
        -24    2    3    3    0    0  0.20983937632E+02  0.25644113168E+02 -0.61621763652E+02  0.99344026091E+02  0.70526928089E+02 0.  0.
          6    2    1    2  501    0 -0.63044261127E+02 -0.21725789367E+03  0.11064380954E+03  0.30508600089E+03  0.17222033598E+03 0.  0.
         24    2    5    5    0    0 -0.12355874310E+02 -0.15584419004E+03  0.87900911060E+01  0.17571357140E+03  0.79736530372E+02 0.  0.
          5    1    5    5  501    0 -0.50688386817E+02 -0.61413703634E+02  0.10185371844E+03  0.12937242949E+03  0.47000000000E+01 0. -1.
        -11    1    6    6    0    0 -0.46361345732E+02 -0.92176111572E+02  0.85586616406E+01  0.10353289628E+03  0.00000000000E+00 0.  1.
         12    1    6    6    0    0  0.34005471423E+02 -0.63668078464E+02  0.23142946533E+00  0.72180675125E+02  0.00000000000E+00 0. -1.
         -5    1    3    3    0  503  0.42060323495E+02  0.19161378050E+03 -0.26066889007E+02  0.19795576373E+03  0.47000000000E+01 0.  1.
         13    1    4    4    0    0  0.15988885079E+02 -0.22470495548E+02 -0.12096802756E+02  0.30114784628E+02  0.00000000000E+00 0. -1.
        -14    1    4    4    0    0  0.49950525526E+01  0.48114608716E+02 -0.49524960895E+02  0.69229241463E+02  0.00000000000E+00 0.  1.
</event>
<event>
12    1  0.8562501E-002  0.2010115E+03  0.7818608E-02  0.1148918E+00
         21   -1    0    0  503  502  0.00000000000E+00  0.00000000000E+00  0.62818896470E+03  0.62818896470E+03  0.00000000000E+00 0. -1.
         21   -1    0    0  501  503 -0.00000000000E+00 -0.00000000000E+00 -0.66915360515E+02  0.66915360515E+02  0.00000000000E+00 0.  1.
          6    2    1    2  501    0  0.82558372377E+02 -0.60162257326E+02  0.21150306057E+03  0.29168758231E+03  0.17295293865E+03 0.  0.
         24    2    3    3    0    0  0.54006060676E+01  0.23888279729E+02  0.69443616609E+02  0.10942187160E+03  0.80937714588E+02 0.  0.
         -6    2    1    2    0  502 -0.82558372377E+02  0.60162257326E+02  0.34977054362E+03  0.40341674291E+03  0.17311918791E+03 0.  0.
        -24    2    5    5    0    0  0.12002732954E+02  0.64206488336E+02  0.21869835766E+03  0.24167569562E+03  0.79445776910E+02 0.  0.
          5    1    3    3  501    0  0.77157766309E+02 -0.84050537055E+02  0.14205944396E+03  0.18226571071E+03  0.47000000000E+01 0. -1.
        -13    1    4    4    0    0  0.29234448091E+02  0.38446209566E+02  0.19273682662E+02  0.52002296377E+02  0.00000000000E+00 0.  1.
         14    1    4    4    0    0 -0.23833842023E+02 -0.14557929837E+02  0.50169933947E+02  0.57419575224E+02  0.00000000000E+00 0. -1.
         -5    1    5    5    0  502 -0.94561105331E+02 -0.40442310101E+01  0.13107218596E+03  0.16174104729E+03  0.47000000000E+01 0.  1.
         11    1    6    6    0    0 -0.27290221776E+02 -0.30180687459E+00  0.55710200744E+02  0.62036068209E+02  0.00000000000E+00 0. -1.
        -12    1    6    6    0    0  0.39292954730E+02  0.64508295210E+02  0.16298815692E+03  0.17963962741E+03  0.00000000000E+00 0.  1.
</event>
<event>
12    1  0.8562501E-002  0.1851427E+03  0.7818608E-02  0.1163001E+00
         21   -1    0    0  501  502  0.00000000000E+00  0.00000000000E+00  0.37070092669E+03  0.37070092669E+03  0.00000000000E+00 0. -1.
         21   -1    0    0  502  503 -0.00000000000E+00 -0.00000000000E+00 -0.27729995766E+03  0.27729995766E+03  0.00000000000E+00 0. -1.
         -6    2    1    2    0  503 -0.66837725585E+02 -0.67039548482E+01 -0.21796454837E+03  0.28574916351E+03  0.17213894250E+03 0.  0.
        -24    2    3    3    0    0  0.29529929841E+01  0.42446292022E+02 -0.15521148821E+03  0.17969951605E+03  0.79943118039E+02 0.  0.
          6    2    1    2  501    0  0.66837725585E+02  0.67039548482E+01  0.31136551740E+03  0.36225172084E+03  0.17252709717E+03 0.  0.
         24    2    5    5    0    0  0.74280118471E+02  0.41620979829E+02  0.12680115961E+03  0.17420736434E+03  0.83784424275E+02 0.  0.
          5    1    5    5  501    0 -0.74423928862E+01 -0.34917024981E+02  0.18456435779E+03  0.18804435650E+03  0.47000000000E+01 0. -1.
        -11    1    6    6    0    0  0.42863344095E+02 -0.14352244902E+02  0.19621366129E+02  0.49277288983E+02  0.00000000000E+00 0.  1.
         12    1    6    6    0    0  0.31416774376E+02  0.55973224732E+02  0.10717979348E+03  0.12493007536E+03  0.00000000000E+00 0. -1.
         -5    1    3    3    0  503 -0.69790718569E+02 -0.49150246870E+02 -0.62753060168E+02  0.10604964746E+03  0.47000000000E+01 0.  1.
         13    1    4    4    0    0 -0.15085031895E+02  0.59730251926E+02 -0.83539552518E+02  0.10379844901E+03  0.00000000000E+00 0. -1.
        -14    1    4    4    0    0  0.18038024880E+02 -0.17283959904E+02 -0.71671935689E+02  0.75901067034E+02  0.00000000000E+00 0.  1.
</event>
<event>
12    1  0.8562501E-002  0.2023369E+03  0.7818608E-02  0.1147899E+00
         21   -1    0    0  501  502  0.00000000000E+00  0.00000000000E+00  0.11716554375E+04  0.11716554375E+04  0.00000000000E+00 0. -1.
         21   -1    0    0  502  503 -0.00000000000E+00 -0.00000000000E+00 -0.67444689336E+02  0.67444689336E+02  0.00000000000E+00 0.  1.
         -6    2    1    2    0  503  0.22461365962E+02 -0.10282938129E+03  0.12097767677E+03  0.23526374772E+03  0.17214830263E+03 0.  0.
        -24    2    3    3    0    0 -0.49999212337E+02 -0.82359326903E+02  0.70235805730E+02  0.14434407982E+03  0.81358251032E+02 0.  0.
          6    2    1    2  501    0 -0.22461365962E+02  0.10282938129E+03  0.98323307136E+03  0.10038363791E+04  0.17280569647E+03 0.  0.
         24    2    5    5    0    0 -0.78279056744E+01  0.13922446507E+03  0.72905799035E+03  0.74660923804E+03  0.80343470455E+02 0.  0.
          5    1    5    5  501    0 -0.14633460288E+02 -0.36395083785E+02  0.25417508100E+03  0.25722714104E+03  0.47000000000E+01 0. -1.
        -13    1    6    6    0    0 -0.42027481668E+02  0.55258448646E+02  0.35455871874E+03  0.36129169710E+03  0.00000000000E+00 0.  1.
         14    1    6    6    0    0  0.34199575994E+02  0.83966016428E+02  0.37449927161E+03  0.38531754094E+03  0.00000000000E+00 0. -1.
         -5    1    3    3    0  503  0.72460578299E+02 -0.20470054386E+02  0.50741871040E+02  0.90919667898E+02  0.47000000000E+01 0.  1.
         11    1    4    4    0    0  0.61295147884E+01 -0.18033859515E+02  0.54240503348E+02  0.57487592088E+02  0.00000000000E+00 0. -1.
        -12    1    4    4    0    0 -0.56128727125E+02 -0.64325467388E+02  0.15995302381E+02  0.86856487735E+02  0.00000000000E+00 0.  1.
</event>
<event>
12    1  0.8562501E-002  0.3131782E+03  0.7818608E-02  0.1078974E+00
         21   -1    0    0  503  502  0.00000000000E+00  0.00000000000E+00  0.38191516781E+03  0.38191516781E+03  0.00000000000E+00 0.  1.
         21   -1    0    0  501  503 -0.00000000000E+00 -0.00000000000E+00 -0.25663816068E+03  0.25663816068E+03  0.00000000000E+00 0.  1.
          6    2    1    2  501    0  0.10597773049E+03 -0.23930593559E+03  0.44651876080E+02  0.31516348670E+03  0.16981055074E+03 0.  0.
         24    2    3    3    0    0  0.11977202314E+03 -0.23265651102E+03  0.65878380989E+01  0.27386629134E+03  0.80529226236E+02 0.  0.
         -6    2    1    2    0  502 -0.10597773049E+03  0.23930593559E+03  0.80625131057E+02  0.32338984179E+03  0.17199409249E+03 0.  0.
        -24    2    5    5    0    0 -0.70948979320E+02  0.24608094310E+03  0.44185912065E+02  0.27217635904E+03  0.80857821958E+02 0.  0.
          5    1    3    3  501    0 -0.13794292646E+02 -0.66494245707E+01  0.38064037981E+02  0.41297195354E+02  0.47000000000E+01 0. -1.
        -11    1    4    4    0    0  0.90390615099E+02 -0.22510176541E+03 -0.10821229929E+01  0.24257460519E+03  0.00000000000E+00 0.  1.
         12    1    4    4    0    0  0.29381408040E+02 -0.75547456033E+01  0.76699610918E+01  0.31291686159E+02  0.00000000000E+00 0. -1.
         -5    1    5    5    0  502 -0.35028751173E+02 -0.67750075086E+01  0.36439218991E+02  0.51213482758E+02  0.47000000000E+01 0.  1.
         11    1    6    6    0    0  0.16963895497E+01  0.73184780415E+01 -0.14023072744E+02  0.15908627456E+02  0.00000000000E+00 0. -1.
        -12    1    6    6    0    0 -0.72645368869E+02  0.23876246506E+03  0.58208984809E+02  0.25626773158E+03  0.00000000000E+00 0.  1.
</event>
<event>
12    1  0.8562501E-002  0.2014786E+03  0.7818608E-02  0.1148818E+00
         21   -1    0    0  503  502  0.00000000000E+00  0.00000000000E+00  0.96382267643E+03  0.96382267643E+03  0.00000000000E+00 0.  1.
         21   -1    0    0  501  503 -0.00000000000E+00 -0.00000000000E+00 -0.53925156524E+02  0.53925156524E+02  0.00000000000E+00 0.  1.
          6    2    1    2  501    0 -0.64604244506E+02  0.82872336644E+02  0.21229211368E+03  0.29163011086E+03  0.17011363096E+03 0.  0.
         24    2    3    3    0    0 -0.48489710857E+02  0.72561327695E+02  0.23447654402E+03  0.26196137227E+03  0.77640920478E+02 0.  0.
         -6    2    1    2    0  502  0.64604244506E+02 -0.82872336644E+02  0.69760540622E+03  0.72611772210E+03  0.17190727432E+03 0.  0.
        -24    2    5    5    0    0  0.51470463376E+02 -0.12431505165E+03  0.51605389717E+03  0.53937448856E+03  0.80683167113E+02 0.  0.
          5    1    3    3  501    0 -0.16114533648E+02  0.10311008949E+02 -0.22184430331E+02  0.29668738587E+02  0.47000000000E+01 0. -1.
        -13    1    4    4    0    0 -0.52070429972E+02  0.28069096508E+02  0.70557634762E+02  0.92073794749E+02  0.00000000000E+00 0.  1.
         14    1    4    4    0    0  0.35807191149E+01  0.44492231187E+02  0.16391890925E+03  0.16988757752E+03  0.00000000000E+00 0. -1.
         -5    1    5    5    0  502  0.13133781130E+02  0.41442715005E+02  0.18155150905E+03  0.18674323354E+03  0.47000000000E+01 0.  1.
         11    1    6    6    0    0 -0.19665727925E+01  0.84460601213E+01  0.89453682501E+01  0.12458850398E+02  0.00000000000E+00 0. -1.
        -12    1    6    6    0    0  0.53437036168E+02 -0.13276111177E+03  0.50710852892E+03  0.52691563816E+03  0.00000000000E+00 0.  1.
</event>
<event>
12    1  0.8562501E-002  0.2566829E+03  0.7818608E-02  0.1109202E+00
         21   -1    0    0  503  502  0.00000000000E+00  0.00000000000E+00  0.39005121611E+03  0.39005121611E+03  0.00000000000E+00 0. -1.
         21   -1    0    0  501  503 -0.00000000000E+00 -0.00000000000E+00 -0.17226856618E+03  0.17226856618E+03  0.00000000000E+00 0. -1.
          6    2    1    2  501    0  0.11339261714E+02 -0.19069235287E+03  0.14940723784E+03  0.29699941840E+03  0.17144672500E+03 0.  0.
         24    2    3    3    0    0  0.12853041241E+02 -0.18869917844E+03  0.70141591762E+02  0.21755511766E+03  0.81472729854E+02 0.  0.
         -6    2    1    2    0  502 -0.11339261714E+02  0.19069235287E+03  0.68375412103E+02  0.26532036389E+03  0.17096065693E+03 0.  0.
        -24    2    5    5    0    0  0.39056093660E+02  0.18657676861E+03  0.49326257590E+02  0.21108393550E+03  0.76072853907E+02 0.  0.
          5    1    3    3  501    0 -0.15137795274E+01 -0.19931744250E+01  0.79265646074E+02  0.79444300742E+02  0.47000000000E+01 0. -1.
        -13    1    4    4    0    0 -0.55383626982E+01  0.55264209957E+01  0.11367513671E+02  0.13799824544E+02  0.00000000000E+00 0.  1.
         14    1    4    4    0    0  0.18391403940E+02 -0.19422559944E+03  0.58774078091E+02  0.20375529311E+03  0.00000000000E+00 0. -1.
         -5    1    5    5    0  502 -0.50395355375E+02  0.41155842572E+01  0.19049154513E+02  0.54236428392E+02  0.47000000000E+01 0.  1.
         11    1    6    6    0    0  0.29764279696E+02  0.18738370943E+03  0.57945732388E+02  0.19838415967E+03  0.00000000000E+00 0. -1.
        -12    1    6    6    0    0  0.92918139641E+01 -0.80694082602E+00 -0.86194747977E+01  0.12699775826E+02  0.00000000000E+00 0.  1.
</event>
<event>
12    1  0.8562501E-002  0.3242742E+03  0.7818608E-02  0.1073702E+00
         21   -1    0    0  503  502  0.00000000000E+00  0.00000000000E+00  0.12191671886E+04  0.12191671886E+04  0.00000000000E+00 0. -1.
         21   -1    0    0  501  503 -0.00000000000E+00 -0.00000000000E+00 -0.93271730827E+02  0.93271730827E+02  0.00000000000E+00 0.  1.
          6    2    1    2  501    0 -0.19892760233E+03 -0.18940658332E+03  0.38277002141E+03  0.50164350973E+03  0.17229705972E+03 0.  0.
         24    2    3    3    0    0 -0.43134325676E+02 -0.93927900805E+02  0.98140504994E+02  0.16337767421E+03  0.79860410138E+02 0.  0.
         -6    2    1    2    0  502  0.19892760233E+03  0.18940658332E+03  0.74312543637E+03  0.81079540971E+03  0.17235642562E+03 0.  0.
        -24    2    5    5    0    0  0.21326737309E+03  0.17259943491E+03  0.57313701532E+03  0.63931286671E+03  0.70436963656E+02 0.  0.
          5    1    3    3  501    0 -0.15579327665E+03 -0.95478682512E+02  0.28462951642E+03  0.33826583552E+03  0.47000000000E+01 0. -1.
        -13    1    4    4    0    0 -0.58598828586E+02 -0.32105245329E+02  0.52936453274E+02  0.85245748131E+02  0.00000000000E+00 0.  1.
         14    1    4    4    0    0  0.15464502909E+02 -0.61822655476E+02  0.45204051720E+02  0.78131926075E+02  0.00000000000E+00 0. -1.
         -5    1    5    5    0  502 -0.14339770764E+02  0.16807148404E+02  0.16998842105E+03  0.17148254300E+03  0.47000000000E+01 0.  1.
         11    1    6    6    0    0  0.91845379049E+02  0.62997403394E+02  0.31085777507E+03  0.33020721193E+03  0.00000000000E+00 0. -1.
        -12    1    6    6    0    0  0.12142199404E+03  0.10960203152E+03  0.26227924024E+03  0.30910565477E+03  0.00000000000E+00 0.  1.
</event>
<event>
12    1  0.8562501E-002  0.2329620E+03  0.7818608E-02  0.1125532E+00
         21   -1    0    0  501  502  0.00000000000E+00  0.00000000000E+00  0.78756547694E+03  0.78756547694E+03  0.00000000000E+00 0. -1.
         21   -1    0    0  502  503 -0.00000000000E+00 -0.00000000000E+00 -0.67989288701E+02  0.67989288701E+02  0.00000000000E+00 0. -1.
         -6    2    1    2    0  503 -0.13608750119E+03 -0.63084658860E+02  0.32093749343E+03  0.39657552537E+03  0.17824643186E+03 0.  0.
        -24    2    3    3    0    0 -0.98888698889E+02 -0.11331147762E+03  0.24541289429E+03  0.29843002476E+03  0.78832260323E+02 0.  0.
          6    2    1    2  501    0  0.13608750119E+03  0.63084658860E+02  0.39863869481E+03  0.45897924027E+03  0.17102529589E+03 0.  0.
         24    2    5    5    0    0  0.47052143745E+01  0.55488615688E+02  0.16900383952E+03  0.19426569334E+03  0.77947009722E+02 0.  0.
          5    1    5    5  501    0  0.13138228682E+03  0.75960431715E+01  0.22963485530E+03  0.26471354693E+03  0.47000000000E+01 0. -1.
        -11    1    6    6    0    0 -0.74473407222E+01  0.73604997521E+02  0.13071637675E+03  0.15019963280E+03  0.00000000000E+00 0.  1.
         12    1    6    6    0    0  0.12152555097E+02 -0.18116381833E+02  0.38287462765E+02  0.44066060535E+02  0.00000000000E+00 0. -1.
         -5    1    3    3    0  503 -0.37198802305E+02  0.50226818755E+02  0.75524599136E+02  0.98145500609E+02  0.47000000000E+01 0.  1.
         11    1    4    4    0    0 -0.45327849873E+02 -0.46795131434E+02  0.41210079889E+02  0.77088708541E+02  0.00000000000E+00 0. -1.
        -12    1    4    4    0    0 -0.53560849016E+02 -0.66516346181E+02  0.20420281440E+03  0.22134131622E+03  0.00000000000E+00 0.  1.
</event>
<event>
12    1  0.8562501E-002  0.1928188E+03  0.7818608E-02  0.1156281E+00
         21   -1    0    0  503  502  0.00000000000E+00  0.00000000000E+00  0.56409317969E+02  0.56409317969E+02  0.00000000000E+00 0. -1.
         21   -1    0    0  501  503 -0.00000000000E+00 -0.00000000000E+00 -0.86435748800E+03  0.86435748800E+03  0.00000000000E+00 0. -1.
          6    2    1    2  501    0 -0.43894507238E+02 -0.71270036078E+02 -0.63234928405E+03  0.66109356479E+03  0.17370359398E+03 0.  0.
         24    2    3    3    0    0 -0.75264375678E+02 -0.95899804103E+02 -0.55480442190E+03  0.57376665162E+03  0.80862384777E+02 0.  0.
         -6    2    1    2    0  502  0.43894507238E+02  0.71270036078E+02 -0.17559888598E+03  0.25967324118E+03  0.17201475988E+03 0.  0.
        -24    2    5    5    0    0  0.87601605207E+02  0.49734017812E+02 -0.16701870621E+03  0.20997595774E+03  0.77763364410E+02 0.  0.
          5    1    3    3  501    0  0.31369868440E+02  0.24629768025E+02 -0.77544862150E+02  0.87326913175E+02  0.47000000000E+01 0. -1.
        -11    1    4    4    0    0  0.17315830311E+02 -0.11561892184E+02 -0.68418922594E+02  0.71516881218E+02  0.00000000000E+00 0.  1.
         12    1    4    4    0    0 -0.92580205990E+02 -0.84337911919E+02 -0.48638549931E+03  0.50224977040E+03  0.00000000000E+00 0. -1.
         -5    1    5    5    0  502 -0.43707097969E+02  0.21536018267E+02 -0.85801797697E+01  0.49697283432E+02  0.47000000000E+01 0.  1.
         11    1    6    6    0    0  0.63911473324E+02 -0.23657699827E+01 -0.55716969851E+02  0.84821306400E+02  0.00000000000E+00 0. -1.
        -12    1    6    6    0    0  0.23690131883E+02  0.52099787794E+02 -0.11130173636E+03  0.12515465134E+03  0.00000000000E+00 0.  1.
</event>
<event>
12    1  0.8562501E-002  0.2136091E+03  0.7818608E-02  0.1138749E+00
         21   -1    0    0  503  502  0.00000000000E+00  0.00000000000E+00  0.17747057157E+03  0.17747057157E+03  0.00000000000E+00 0.  1.
         21   -1    0    0  501  503 -0.00000000000E+00 -0.00000000000E+00 -0.87553053321E+03  0.87553053321E+03  0.00000000000E+00 0.  1.
          6    2    1    2  501    0 -0.64819107308E+02 -0.10648901636E+03 -0.79155764369E+03  0.81987336497E+03  0.17345721095E+03 0.  0.
         24    2    3    3    0    0 -0.27949485844E+02 -0.13354463076E+03 -0.48711091421E+03  0.51197520592E+03  0.78906441873E+02 0.  0.
         -6    2    1    2    0  502  0.64819107308E+02  0.10648901636E+03  0.93497682055E+02  0.23312773980E+03  0.17339348095E+03 0.  0.
        -24    2    5    5    0    0  0.73343950949E+02  0.10401418328E+03  0.11171521576E+02  0.15019111063E+03  0.78957465477E+02 0.  0.
          5    1    3    3  501    0 -0.36869621465E+02  0.27055614402E+02 -0.30444672948E+03  0.30789815906E+03  0.47000000000E+01 0. -1.
        -13    1    4    4    0    0 -0.44302536298E+02 -0.78184124939E+02 -0.37800349416E+03  0.38853843274E+03  0.00000000000E+00 0.  1.
         14    1    4    4    0    0  0.16353050455E+02 -0.55360505820E+02 -0.10910742004E+03  0.12343677318E+03  0.00000000000E+00 0. -1.
         -5    1    5    5    0  502 -0.85248436413E+01  0.24748330758E+01  0.82326160479E+02  0.82936629164E+02  0.47000000000E+01 0.  1.
         13    1    6    6    0    0  0.42152487722E+02  0.86023990147E+01  0.23557740092E+02  0.49048961337E+02  0.00000000000E+00 0. -1.
        -14    1    6    6    0    0  0.31191463227E+02  0.95411784267E+02 -0.12386218516E+02  0.10114214930E+03  0.00000000000E+00 0.  1.
</event>
<event>
12    1  0.8562501E-002  0.2304234E+03  0.7818608E-02  0.1126445E+00
         21   -1    0    0  501  502  0.00000000000E+00  0.00000000000E+00  0.59243431901E+03  0.59243431901E+03  0.00000000000E+00 0.  1.
         21   -1    0    0  502  503 -0.00000000000E+00 -0.00000000000E+00 -0.16057626950E+03  0.16057626950E+03  0.00000000000E+00 0.  1.
         -6    2    1    2    0  503 -0.84939608039E+02  0.12679809446E+03 -0.34595711576E+02  0.23300599905E+03  0.17263382797E+03 0.  0.
        -24    2    3    3    0    0  0.23402850982E+01  0.64281453870E+02  0.31005161829E+02  0.10710256507E+03  0.79825166068E+02 0.  0.
          6    2    1    2  501    0  0.84939608039E+02 -0.12679809446E+03  0.46645376108E+03  0.52000458946E+03  0.17185216921E+03 0.  0.
         24    2    5    5    0    0  0.33141715353E+02 -0.20607471562E+02  0.31849396643E+03  0.33060115520E+03  0.79596959644E+02 0.  0.
          5    1    5    5  501    0  0.51797892686E+02 -0.10619062290E+03  0.14795979465E+03  0.18940343427E+03  0.47000000000E+01 0. -1.
        -11    1    6    6    0    0  0.56382055768E+02 -0.18920458940E+01  0.24211309525E+03  0.24859860607E+03  0.00000000000E+00 0.  1.
         12    1    6    6    0    0 -0.23240340414E+02 -0.18715425668E+02  0.76380871182E+02  0.82002549125E+02  0.00000000000E+00 0. -1.
         -5    1    3    3    0  503 -0.87279893137E+02  0.62516640592E+02 -0.65600873405E+02  0.12590343398E+03  0.47000000000E+01 0.  1.
         11    1    4    4    0    0 -0.96139466580E+01  0.73846935156E+02  0.22248320552E+01  0.74503340059E+02  0.00000000000E+00 0. -1.
        -12    1    4    4    0    0  0.11954231756E+02 -0.95654812868E+01  0.28780329774E+02  0.32599225007E+02  0.00000000000E+00 0.  1.
</event>
<event>
12    1  0.8562501E-002  0.1794528E+03  0.7818608E-02  0.1168584E+00
         21   -1    0    0  501  502  0.00000000000E+00  0.00000000000E+00  0.59242041511E+02  0.59242041511E+02  0.00000000000E+00 0.  1.
         21   -1    0    0  502  503 -0.00000000000E+00 -0.00000000000E+00 -0.57225696766E+03  0.57225696766E+03  0.00000000000E+00 0.  1.
         -6    2    1    2    0  503  0.19358235368E+02 -0.46542631753E+02 -0.33021321208E+03  0.37533543674E+03  0.17115772490E+03 0.  0.
        -24    2    3    3    0    0  0.32082528656E+02 -0.24295340590E+02 -0.33631210524E+03  0.34857471736E+03  0.82334374557E+02 0.  0.
          6    2    1    2  501    0 -0.19358235368E+02  0.46542631753E+02 -0.18280171407E+03  0.25616357243E+03  0.17222761488E+03 0.  0.
         24    2    5    5    0    0 -0.51271530588E+01  0.26812825191E+02 -0.15540009372E+02  0.87076740214E+02  0.81213616480E+02 0.  0.
          5    1    5    5  501    0 -0.14231082309E+02  0.19729806563E+02 -0.16726170470E+03  0.16908683222E+03  0.47000000000E+01 0. -1.
        -13    1    6    6    0    0 -0.19193627894E+02  0.52678947617E+02 -0.12775203533E+02  0.57503675527E+02  0.00000000000E+00 0.  1.
         14    1    6    6    0    0  0.14066474835E+02 -0.25866122426E+02 -0.27648058385E+01  0.29573064687E+02  0.00000000000E+00 0. -1.
         -5    1    3    3    0  503 -0.12724293287E+02 -0.22247291163E+02  0.60988931618E+01  0.26760719377E+02  0.47000000000E+01 0.  1.
         13    1    4    4    0    0  0.68305892938E+00 -0.33978130581E+01  0.45010651929E+01  0.56807826000E+01  0.00000000000E+00 0. -1.
        -14    1    4    4    0    0  0.31399469726E+02 -0.20897527532E+02 -0.34081317043E+03  0.34289393476E+03  0.00000000000E+00 0.  1.
</event>
<event>
12    1  0.8562501E-002  0.2001740E+03  0.7818608E-02  0.1150104E+00
         21   -1    0    0  503  502  0.00000000000E+00  0.00000000000E+00  0.10135883336E+03  0.10135883336E+03  0.00000000000E+00 0. -1.
         21   -1    0    0  501  503 -0.00000000000E+00 -0.00000000000E+00 -0.51418761573E+03  0.51418761573E+03  0.00000000000E+00 0. -1.
          6    2    1    2  501    0 -0.30738234858E+02  0.94133165049E+02 -0.35636795981E+03  0.40756217580E+03  0.17118093504E+03 0.  0.
         24    2    3    3    0    0 -0.43517333155E+02  0.12487794915E+03 -0.23436215400E+03  0.28100762727E+03  0.80940761592E+02 0.  0.
         -6    2    1    2    0  502  0.30738234858E+02 -0.94133165049E+02 -0.56460822563E+02  0.20798427329E+03  0.17396477116E+03 0.  0.
        -24    2    5    5    0    0  0.51438534256E+02 -0.11471944486E+03 -0.80153013776E+02  0.17009354572E+03  0.81858627170E+02 0.  0.
          5    1    3    3  501    0  0.12779098297E+02 -0.30744784101E+02 -0.12200580581E+03  0.12655454853E+03  0.47000000000E+01 0. -1.
        -11    1    4    4    0    0  0.85341464397E+01  0.84149902173E+02 -0.97859733015E+02  0.12934668545E+03  0.00000000000E+00 0.  1.
         12    1    4    4    0    0 -0.52051479595E+02  0.40728046977E+02 -0.13650242099E+03  0.15166094182E+03  0.00000000000E+00 0. -1.
         -5    1    5    5    0  502 -0.20700299398E+02  0.20586279808E+02  0.23692191213E+02  0.37890727572E+02  0.47000000000E+01 0.  1.
         11    1    6    6    0    0  0.49080516417E+02 -0.10099576430E+03 -0.27469826241E+02  0.11560118015E+03  0.00000000000E+00 0. -1.
        -12    1    6    6    0    0  0.23580178385E+01 -0.13723680558E+02 -0.52683187536E+02  0.54492365567E+02  0.00000000000E+00 0.  1.
</event>
<event>
12    1  0.8562501E-002  0.3941083E+03  0.7818608E-02  0.1046007E+00
         21   -1    0    0  501  502  0.00000000000E+00  0.00000000000E+00  0.12714640806E+03  0.12714640806E+03  0.00000000000E+00 0. -1.
         21   -1    0    0  502  503 -0.00000000000E+00 -0.00000000000E+00 -0.12300237028E+04  0.12300237028E+04  0.00000000000E+00 0. -1.
         -6    2    1    2    0  503 -0.14738542092E+03 -0.32014113591E+03 -0.47960800283E+03  0.62076179588E+03  0.17637619352E+03 0.  0.
        -24    2    3    3    0    0 -0.12376683147E+03 -0.27597174713E+03 -0.29907693616E+03  0.43335227449E+03  0.82876693219E+02 0.  0.
          6    2    1    2  501    0  0.14738542092E+03  0.32014113591E+03 -0.62326929193E+03  0.73640831499E+03  0.17210400031E+03 0.  0.
         24    2    5    5    0    0  0.14777014743E+03  0.25442838663E+03 -0.58671481838E+03  0.66106488151E+03  0.78757088954E+02 0.  0.
          5    1    5    5  501    0 -0.38472650755E+00  0.65712749280E+02 -0.36554473546E+02  0.75343433480E+02  0.47000000000E+01 0. -1.
        -13    1    6    6    0    0  0.14898980785E+03  0.25956848346E+03 -0.57734590135E+03  0.65030919588E+03  0.00000000000E+00 0.  1.
         14    1    6    6    0    0 -0.12196604249E+01 -0.51400968222E+01 -0.93689170295E+01  0.10755685622E+02  0.00000000000E+00 0. -1.
         -5    1    3    3    0  503 -0.23618589450E+02 -0.44169388783E+02 -0.18053106667E+03  0.18740952139E+03  0.47000000000E+01 0.  1.
         13    1    4    4    0    0 -0.22375279820E+02 -0.72854115950E+02 -0.12846523393E+03  0.14937098677E+03  0.00000000000E+00 0. -1.
        -14    1    4    4    0    0 -0.10139155165E+03 -0.20311763118E+03 -0.17061170222E+03  0.28398128772E+03  0.00000000000E+00 0.  1.
</event>
<event>
12    1  0.8562501E-002  0.1862736E+03  0.7818608E-02  0.1161970E+00
         21   -1    0    0  501  502  0.00000000000E+00  0.00000000000E+00  0.88429224767E+02  0.88429224767E+02  0.00000000000E+00 0.  1.
         21   -1    0    0  502  503 -0.00000000000E+00 -0.00000000000E+00 -0.60669198596E+03  0.60669198596E+03  0.00000000000E+00 0. -1.
         -6    2    1    2    0  503  0.28056006778E+02  0.65810090160E+02 -0.46635723318E+03  0.50218214364E+03  0.17198758377E+03 0.  0.
        -24    2    3    3    0    0  0.67128027408E+01  0.74211561259E+02 -0.46698244054E+03  0.47875997552E+03  0.74740195636E+02 0.  0.
          6    2    1    2  501    0 -0.28056006778E+02 -0.65810090160E+02 -0.51905528017E+02  0.19293906709E+03  0.17150274717E+03 0.  0.
         24    2    5    5    0    0  0.38610525900E+02 -0.28741663070E+02  0.15148051242E+02  0.91269173030E+02  0.76050920986E+02 0.  0.
          5    1    5    5  501    0 -0.66666532679E+02 -0.37068427090E+02 -0.67053579259E+02  0.10166989406E+03  0.47000000000E+01 0. -1.
        -13    1    6    6    0    0  0.84763017977E+01 -0.29650137922E+02  0.41173646114E+02  0.51441690342E+02  0.00000000000E+00 0.  1.
         14    1    6    6    0    0  0.30134224103E+02  0.90847485165E+00 -0.26025594872E+02  0.39827482688E+02  0.00000000000E+00 0. -1.
         -5    1    3    3    0  503  0.21343204038E+02 -0.84014710991E+01  0.62520736003E+00  0.23422168120E+02  0.47000000000E+01 0.  1.
         11    1    4    4    0    0 -0.22589244226E+01  0.30110584957E+02 -0.37644452500E+03  0.37765358527E+03  0.00000000000E+00 0. -1.
        -12    1    4    4    0    0  0.89717271634E+01  0.44100976301E+02 -0.90537915538E+02  0.10110639025E+03  0.00000000000E+00 0.  1.
</event>
<event>
12    1  0.8562501E-002  0.2119888E+03  0.7818608E-02  0.1140164E+00
         21   -1    0    0  501  502  0.00000000000E+00  0.00000000000E+00  0.22980588279E+03  0.22980588279E+03  0.00000000000E+00 0.  1.
         21   -1    0    0  502  503 -0.00000000000E+00 -0.00000000000E+00 -0.12520809293E+04  0.12520809293E+04  0.00000000000E+00 0. -1.
         -6    2    1    2    0  503 -0.11254697826E+03  0.49774467342E+02 -0.11921685475E+04  0.12108695645E+04  0.17261209947E+03 0.  0.
        -24    2    3    3    0    0 -0.83300679706E+02  0.47379246429E+02 -0.41446125818E+03  0.43259467683E+03  0.78588953765E+02 0.  0.
          6    2    1    2  501    0  0.11254697826E+03 -0.49774467342E+02  0.16989350092E+03  0.27101724757E+03  0.17158737400E+03 0.  0.
         24    2    5    5    0    0  0.66032912944E+02  0.11979427175E+02  0.16278259579E+03  0.19323706545E+03  0.79614933917E+02 0.  0.
          5    1    5    5  501    0  0.46514065314E+02 -0.61753894517E+02  0.71109051231E+01  0.77780182127E+02  0.47000000000E+01 0. -1.
        -11    1    6    6    0    0 -0.12531348736E+02 -0.65949199909E+01  0.64562508617E+02  0.66097240410E+02  0.00000000000E+00 0.  1.
         12    1    6    6    0    0  0.78564261680E+02  0.18574347166E+02  0.98220087175E+02  0.12713982504E+03  0.00000000000E+00 0. -1.
         -5    1    3    3    0  503 -0.29246298552E+02  0.23952209127E+01 -0.77770728927E+03  0.77827488771E+03  0.47000000000E+01 0.  1.
         11    1    4    4    0    0 -0.58278349874E+02  0.51346171327E+02 -0.38899210802E+03  0.39667071417E+03  0.00000000000E+00 0. -1.
        -12    1    4    4    0    0 -0.25022329832E+02 -0.39669248976E+01 -0.25469150159E+02  0.35923962660E+02  0.00000000000E+00 0.  1.
</event>
<event>
12    1  0.8562501E-002  0.1837675E+03  0.7818608E-02  0.1166788E+00
         21   -1    0    0  503  502  0.00000000000E+00  0.00000000000E+00  0.34229321251E+03  0.34229321251E+03  0.00000000000E+00 0.  1.
         21   -1    0    0  501  503 -0.00000000000E+00 -0.00000000000E+00 -0.10434731792E+03  0.10434731792E+03  0.00000000000E+00 0.  1.
          6    2    1    2  501    0 -0.42943907661E+02  0.44094500913E+02  0.48647331234E+02  0.19009749619E+03  0.17315308546E+03 0.  0.
         24    2    3    3    0    0 -0.15846216387E+02  0.89157829208E+02  0.34998549245E+01  0.12063259105E+03  0.79622559337E+02 0.  0.
         -6    2    1    2    0  502  0.42943907661E+02 -0.44094500913E+02  0.18929856336E+03  0.25654303425E+03  0.16183905003E+03 0.  0.
        -24    2    5    5    0    0  0.72324215839E+02 -0.51718974737E+02  0.19170107806E+03  0.22573399034E+03  0.79378123675E+02 0.  0.
          5    1    3    3  501    0 -0.27097691274E+02 -0.45063328295E+02  0.45147476310E+02  0.69464905143E+02  0.47000000000E+01 0. -1.
        -13    1    4    4    0    0  0.18595939344E+02  0.33398162170E+02 -0.28516617471E+02  0.47691127774E+02  0.00000000000E+00 0.  1.
         14    1    4    4    0    0 -0.34442155732E+02  0.55759667038E+02  0.32016472395E+02  0.72941463272E+02  0.00000000000E+00 0. -1.
         -5    1    5    5    0  502 -0.29380308178E+02  0.76244738231E+01 -0.24025147053E+01  0.30809043909E+02  0.47000000000E+01 0.  1.
         11    1    6    6    0    0  0.34278918345E+02 -0.27654972270E+02  0.20257859383E+02  0.48479094473E+02  0.00000000000E+00 0. -1.
        -12    1    6    6    0    0  0.38045297494E+02 -0.24064002467E+02  0.17144321868E+03  0.17725489586E+03  0.00000000000E+00 0.  1.
</event>
<event>
12    1  0.8562501E-002  0.2287163E+03  0.7818608E-02  0.1127634E+00
         21   -1    0    0  501  502  0.00000000000E+00  0.00000000000E+00  0.17875736611E+03  0.17875736611E+03  0.00000000000E+00 0. -1.
         21   -1    0    0  502  503 -0.00000000000E+00 -0.00000000000E+00 -0.55134098688E+03  0.55134098688E+03  0.00000000000E+00 0.  1.
         -6    2    1    2    0  503 -0.11608073854E+03 -0.94765978795E+02 -0.43676274172E+03  0.49302416114E+03  0.17278831650E+03 0.  0.
        -24    2    3    3    0    0 -0.67856195696E+02 -0.85403494608E+01 -0.11412633780E+03  0.15556778645E+03  0.80617084657E+02 0.  0.
          6    2    1    2  501    0  0.11608073854E+03  0.94765978795E+02  0.64179120950E+02  0.23707419186E+03  0.17213333286E+03 0.  0.
         24    2    5    5    0    0 -0.31251427251E+00  0.69283208095E+02  0.74938736004E+01  0.10504363414E+03  0.78598640848E+02 0.  0.
          5    1    5    5  501    0  0.11639325281E+03  0.25482770700E+02  0.56685247349E+02  0.13203055771E+03  0.47000000000E+01 0. -1.
        -11    1    6    6    0    0  0.29244280180E+00  0.33620179884E+01 -0.29335911292E+02  0.29529381624E+02  0.00000000000E+00 0.  1.
         12    1    6    6    0    0 -0.60495707432E+00  0.65921190106E+02  0.36829784893E+02  0.75514252518E+02  0.00000000000E+00 0. -1.
         -5    1    3    3    0  503 -0.48224542846E+02 -0.86225629334E+02 -0.32263640391E+03  0.33745637469E+03  0.47000000000E+01 0.  1.
         11    1    4    4    0    0 -0.22655697359E+02 -0.41210263947E+02 -0.34378903819E+02  0.58253545001E+02  0.00000000000E+00 0. -1.
        -12    1    4    4    0    0 -0.45200498337E+02  0.32669914486E+02 -0.79747433983E+02  0.97314241452E+02  0.00000000000E+00 0.  1.
</event>
<event>
12    1  0.8562501E-002  0.6263174E+03  0.7818608E-02  0.9852513E-01
         21   -1    0    0  501  502  0.00000000000E+00  0.00000000000E+00  0.16649220397E+04  0.16649220397E+04  0.00000000000E+00 0.  1.
         21   -1    0    0  502  503 -0.00000000000E+00 -0.00000000000E+00 -0.23542109264E+03  0.23542109264E+03  0.00000000000E+00 0. -1.
         -6    2    1    2    0  503  0.25043276095E+03  0.54750811259E+03  0.71204040091E+03  0.94830114522E+03  0.17260309496E+03 0.  0.
        -24    2    3    3    0    0  0.16177875445E+03  0.44268377149E+03  0.47349173701E+03  0.67302813455E+03  0.81431922153E+02 0.  0.
          6    2    1    2  501    0 -0.25043276095E+03 -0.54750811259E+03  0.71746054611E+03  0.95204198707E+03  0.17074135066E+03 0.  0.
         24    2    5    5    0    0 -0.24746336843E+03 -0.55423322009E+03  0.71772473870E+03  0.94331248762E+03  0.79354066042E+02 0.  0.
          5    1    5    5  501    0 -0.29693925199E+01  0.67251075067E+01 -0.26419259108E+00  0.87294994495E+01  0.47000000000E+01 0. -1.
        -13    1    6    6    0    0 -0.71284986572E+02 -0.10301961446E+03  0.11491583528E+03  0.17000070433E+03  0.00000000000E+00 0.  1.
         14    1    6    6    0    0 -0.17617838185E+03 -0.45121360564E+03  0.60280890342E+03  0.77331178329E+03  0.00000000000E+00 0. -1.
         -5    1    3    3    0  503  0.88654006494E+02  0.10482434110E+03  0.23854866390E+03  0.27527301067E+03  0.47000000000E+01 0.  1.
         13    1    4    4    0    0  0.22539531463E+02  0.69424287816E+02  0.11983702117E+03  0.14031633498E+03  0.00000000000E+00 0. -1.
        -14    1    4    4    0    0  0.13923922299E+03  0.37325948367E+03  0.35365471584E+03  0.53271179957E+03  0.00000000000E+00 0.  1.
</event>
<event>
12    1  0.8562501E-002  0.1912321E+03  0.7818608E-02  0.1157376E+00
         21   -1    0    0  503  502  0.00000000000E+00  0.00000000000E+00  0.77759994844E+03  0.77759994844E+03  0.00000000000E+00 0. -1.
         21   -1    0    0  501  503 -0.00000000000E+00 -0.00000000000E+00 -0.49416425715E+02  0.49416425715E+02  0.00000000000E+00 0. -1.
          6    2    1    2  501    0 -0.46463691193E+02  0.69461753370E+02  0.45533901591E+03  0.49382898953E+03  0.17190009222E+03 0.  0.
         24    2    3    3    0    0 -0.62816373617E+02  0.10886717863E+03  0.35942347547E+03  0.38874769405E+03  0.78368204834E+02 0.  0.
         -6    2    1    2    0  502  0.46463691193E+02 -0.69461753370E+02  0.27284450681E+03  0.33318738462E+03  0.17200551909E+03 0.  0.
        -24    2    5    5    0    0  0.31333815710E+02 -0.64851546155E+02  0.69341340037E+02  0.12901638759E+03  0.81544317912E+02 0.  0.
          5    1    3    3  501    0  0.16352682424E+02 -0.39405425255E+02  0.95915540437E+02  0.10508129548E+03  0.47000000000E+01 0. -1.
        -13    1    4    4    0    0 -0.53583813724E+02  0.19077238309E+02  0.11774671795E+03  0.13076488711E+03  0.00000000000E+00 0.  1.
         14    1    4    4    0    0 -0.92325598927E+01  0.89789940317E+02  0.24167675753E+03  0.25798280693E+03  0.00000000000E+00 0. -1.
         -5    1    5    5    0  502  0.15129875483E+02 -0.46102072152E+01  0.20350316677E+03  0.20417099703E+03  0.47000000000E+01 0.  1.
         11    1    6    6    0    0 -0.67521695599E+01 -0.67533082491E+02  0.57752756910E+02  0.89116159899E+02  0.00000000000E+00 0. -1.
        -12    1    6    6    0    0  0.38085985270E+02  0.26815363357E+01  0.11588583128E+02  0.39900227694E+02  0.00000000000E+00 0.  1.
</event>
<event>
12    1  0.8562501E-002  0.2305516E+03  0.7818608E-02  0.1126350E+00
         21   -1    0    0  503  502  0.00000000000E+00  0.00000000000E+00  0.52597685742E+03  0.52597685742E+03  0.00000000000E+00 0. -1.
         21   -1    0    0  501  503 -0.00000000000E+00 -0.00000000000E+00 -0.22746171965E+03  0.22746171965E+03  0.00000000000E+00 0.  1.
          6    2    1    2  501    0  0.14829961607E+03 -0.34320921362E+02 -0.13176384242E+03  0.26554799608E+03  0.17315694118E+03 0.  0.
         24    2    3    3    0    0  0.12240195474E+02 -0.28561277989E+02 -0.84511467872E+02  0.12132519508E+03  0.81314486867E+02 0.  0.
         -6    2    1    2    0  502 -0.14829961607E+03  0.34320921362E+02  0.43027898019E+03  0.48789058099E+03  0.17241379427E+03 0.  0.
        -24    2    5    5    0    0 -0.12256665575E+03  0.26630802086E+02  0.43586403175E+03  0.46005883685E+03  0.77103141709E+02 0.  0.
          5    1    3    3  501    0  0.13605942060E+03 -0.57596433726E+01 -0.47252374551E+02  0.14422280099E+03  0.47000000000E+01 0. -1.
        -11    1    4    4    0    0 -0.24962722953E+02 -0.49009259428E+01 -0.70677661179E+02  0.75116498867E+02  0.00000000000E+00 0.  1.
         12    1    4    4    0    0  0.37202918426E+02 -0.23660352047E+02 -0.13833806694E+02  0.46208696217E+02  0.00000000000E+00 0. -1.
         -5    1    5    5    0  502 -0.25732960319E+02  0.76901192758E+01 -0.55850515600E+01  0.27831744145E+02  0.47000000000E+01 0.  1.
         13    1    6    6    0    0  0.85370654855E+00  0.14858087156E+02  0.11695041749E+03  0.11789356098E+03  0.00000000000E+00 0. -1.
        -14    1    6    6    0    0 -0.12342036230E+03  0.11772714930E+02  0.31891361426E+03  0.34216527586E+03  0.00000000000E+00 0.  1.
</event>
<event>
12    1  0.8562501E-002  0.2609702E+03  0.7818608E-02  0.1106657E+00
         21   -1    0    0  501  502  0.00000000000E+00  0.00000000000E+00  0.41357019078E+03  0.41357019078E+03  0.00000000000E+00 0. -1.
         21   -1    0    0  502  503 -0.00000000000E+00 -0.00000000000E+00 -0.34324372900E+03  0.34324372900E+03  0.00000000000E+00 0. -1.
         -6    2    1    2    0  503  0.16489254084E+03 -0.10772592504E+03 -0.23805737447E+03  0.35323750812E+03  0.17120455209E+03 0.  0.
        -24    2    3    3    0    0  0.12812516538E+02 -0.56907162856E+02 -0.11378096129E+03  0.15031486953E+03  0.79030798331E+02 0.  0.
          6    2    1    2  501    0 -0.16489254084E+03  0.10772592504E+03  0.30838383624E+03  0.40357641166E+03  0.17023191428E+03 0.  0.
         24    2    5    5    0    0 -0.41814906180E+02 -0.27725091058E+01  0.71481818961E+02  0.11460813676E+03  0.79178288593E+02 0.  0.
          5    1    5    5  501    0 -0.12307763466E+03  0.11049843415E+03  0.23690201728E+03  0.28896827490E+03  0.47000000000E+01 0. -1.
        -11    1    6    6    0    0  0.18279244583E+02 -0.58851643724E+01  0.44879732994E+02  0.48815534165E+02  0.00000000000E+00 0.  1.
         12    1    6    6    0    0 -0.60094150763E+02  0.31126552666E+01  0.26602085967E+02  0.65792602597E+02  0.00000000000E+00 0. -1.
         -5    1    3    3    0  503  0.15208002430E+03 -0.50818762185E+02 -0.12427641317E+03  0.20292263859E+03  0.47000000000E+01 0.  1.
         11    1    4    4    0    0  0.14805260617E+02 -0.20386560968E+02 -0.11078893691E+03  0.11361776336E+03  0.00000000000E+00 0. -1.
        -12    1    4    4    0    0 -0.19927440792E+01 -0.36520601888E+02 -0.29920243847E+01  0.36697106169E+02  0.00000000000E+00 0.  1.
</event>
<event>
12    1  0.8562501E-002  0.1987291E+03  0.7818608E-02  0.1151028E+00
         21   -1    0    0  503  502  0.00000000000E+00  0.00000000000E+00  0.13366615192E+03  0.13366615192E+03  0.00000000000E+00 0.  1.
         21   -1    0    0  501  503 -0.00000000000E+00 -0.00000000000E+00 -0.45787800416E+03  0.45787800416E+03  0.00000000000E+00 0.  1.
          6    2    1    2  501    0  0.94468913657E+02  0.29534398109E+02 -0.33932252983E+03  0.39323409364E+03  0.17232706355E+03 0.  0.
         24    2    3    3    0    0  0.42258387304E+02  0.26999026805E+02 -0.32560197870E+03  0.33898733620E+03  0.79881454809E+02 0.  0.
         -6    2    1    2    0  502 -0.94468913657E+02 -0.29534398109E+02  0.15110677588E+02  0.19831006243E+03  0.17117795409E+03 0.  0.
        -24    2    5    5    0    0 -0.12322567189E+02  0.81530595958E+01 -0.43802104792E+02  0.90323152884E+02  0.77597226237E+02 0.  0.
          5    1    3    3  501    0  0.52210526353E+02  0.25353713034E+01 -0.13720551131E+02  0.54246757443E+02  0.47000000000E+01 0. -1.
        -13    1    4    4    0    0  0.46260073010E+02  0.34465867677E+02 -0.11934139281E+03  0.13255285145E+03  0.00000000000E+00 0.  1.
         14    1    4    4    0    0 -0.40016857055E+01 -0.74668408720E+01 -0.20626058589E+03  0.20643448475E+03  0.00000000000E+00 0. -1.
         -5    1    5    5    0  502 -0.82146346468E+02 -0.37687457704E+02  0.58912782380E+02  0.10798690955E+03  0.47000000000E+01 0.  1.
         11    1    6    6    0    0 -0.43295108501E+02  0.56110474135E+01 -0.10761225157E+02  0.44963921538E+02  0.00000000000E+00 0. -1.
        -12    1    6    6    0    0  0.30972541312E+02  0.25420121823E+01 -0.33040879635E+02  0.45359231346E+02  0.00000000000E+00 0.  1.
</event>
<event>
12    1  0.8562501E-002  0.1881285E+03  0.7818608E-02  0.1161333E+00
         21   -1    0    0  503  502  0.00000000000E+00  0.00000000000E+00  0.41420964998E+03  0.41420964998E+03  0.00000000000E+00 0. -1.
         21   -1    0    0  501  503 -0.00000000000E+00 -0.00000000000E+00 -0.33654470195E+03  0.33654470195E+03  0.00000000000E+00 0.  1.
          6    2    1    2  501    0 -0.50345342249E+02  0.56389836128E+02 -0.28700318938E+03  0.34041888920E+03  0.16673248725E+03 0.  0.
         24    2    3    3    0    0 -0.86336680074E+02  0.20505037116E+02 -0.25078064166E+03  0.27783088586E+03  0.80153552832E+02 0.  0.
         -6    2    1    2    0  502  0.50345342249E+02 -0.56389836128E+02  0.36466813741E+03  0.41033546273E+03  0.17227267465E+03 0.  0.
        -24    2    5    5    0    0 -0.26009274450E+02 -0.18529948840E+02  0.26810330702E+03  0.28145468440E+03  0.79482795450E+02 0.  0.
          5    1    3    3  501    0  0.35991337825E+02  0.35884799012E+02 -0.36222547716E+02  0.62588003336E+02  0.47000000000E+01 0. -1.
        -13    1    4    4    0    0 -0.38782667946E+02  0.42166593241E+02 -0.74574937873E+02  0.94040088671E+02  0.00000000000E+00 0.  1.
         14    1    4    4    0    0 -0.47554012128E+02 -0.21661556124E+02 -0.17620570379E+03  0.18379079719E+03  0.00000000000E+00 0. -1.
         -5    1    5    5    0  502  0.76354616699E+02 -0.37859887288E+02  0.96564830385E+02  0.12888077833E+03  0.47000000000E+01 0.  1.
         13    1    6    6    0    0 -0.54269175325E+02 -0.75723174353E+01  0.15681594924E+03  0.16611359161E+03  0.00000000000E+00 0. -1.
        -14    1    6    6    0    0  0.28259900875E+02 -0.10957631405E+02  0.11128735778E+03  0.11534109279E+03  0.00000000000E+00 0.  1.
</event>
<event>
12    1  0.8562501E-002  0.2209874E+03  0.7818608E-02  0.1133243E+00
         21   -1    0    0  501  502  0.00000000000E+00  0.00000000000E+00  0.80923344071E+02  0.80923344071E+02  0.00000000000E+00 0.  1.
         21   -1    0    0  502  503 -0.00000000000E+00 -0.00000000000E+00 -0.67792482994E+03  0.67792482994E+03  0.00000000000E+00 0.  1.
         -6    2    1    2    0  503 -0.13743894711E+03  0.16079939368E+02 -0.17129436761E+03  0.27920040427E+03  0.17164811895E+03 0.  0.
        -24    2    3    3    0    0 -0.10644638256E+03 -0.26995059945E+02 -0.17946581710E+03  0.22530367701E+03  0.80586610214E+02 0.  0.
          6    2    1    2  501    0  0.13743894711E+03 -0.16079939368E+02 -0.42570711826E+03  0.47964776974E+03  0.17230033037E+03 0.  0.
         24    2    5    5    0    0  0.82791922336E+01 -0.93099545714E+01 -0.93538940446E+02  0.12315672732E+03  0.79138017576E+02 0.  0.
          5    1    5    5  501    0  0.12915975488E+03 -0.67699847962E+01 -0.33216817782E+03  0.35649104242E+03  0.47000000000E+01 0. -1.
        -11    1    6    6    0    0  0.32021914181E+02 -0.23225993162E+02 -0.85938781089E+02  0.94606151181E+02  0.00000000000E+00 0.  1.
         12    1    6    6    0    0 -0.23742721948E+02  0.13916038591E+02 -0.76001593568E+01  0.28550576138E+02  0.00000000000E+00 0. -1.
         -5    1    3    3    0  503 -0.30992564544E+02  0.43074999313E+02  0.81714494865E+01  0.53896727262E+02  0.47000000000E+01 0.  1.
         11    1    4    4    0    0 -0.29890727710E+02 -0.48232658738E+02 -0.76760507630E+02  0.95456903907E+02  0.00000000000E+00 0. -1.
        -12    1    4    4    0    0 -0.76555654855E+02  0.21237598793E+02 -0.10270530947E+03  0.12984677310E+03  0.00000000000E+00 0.  1.
</event>
<event>
12    1  0.8562501E-002  0.1769976E+03  0.7818608E-02  0.1171156E+00
         21   -1    0    0  503  502  0.00000000000E+00  0.00000000000E+00  0.13754497092E+03  0.13754497092E+03  0.00000000000E+00 0. -1.
         21   -1    0    0  501  503 -0.00000000000E+00 -0.00000000000E+00 -0.31654892680E+03  0.31654892680E+03  0.00000000000E+00 0. -1.
          6    2    1    2  501    0 -0.16384684547E+02 -0.29611264632E+02 -0.21149059016E+03  0.27578328532E+03  0.17373216701E+03 0.  0.
         24    2    3    3    0    0  0.16813363311E+02 -0.81145023610E+02 -0.14785773471E+03  0.18730125895E+03  0.79703499616E+02 0.  0.
         -6    2    1    2    0  502  0.16384684547E+02  0.29611264632E+02  0.32486634282E+02  0.17831061241E+03  0.17202909117E+03 0.  0.
        -24    2    5    5    0    0 -0.49321560742E+02  0.48572848526E+02  0.30012944824E+02  0.10971716175E+03  0.79656391818E+02 0.  0.
          5    1    3    3  501    0 -0.33198047859E+02  0.51533758979E+02 -0.63632855455E+02  0.88482026364E+02  0.47000000000E+01 0. -1.
        -11    1    4    4    0    0 -0.12882734739E+02 -0.70385477003E+02 -0.58175875159E+02  0.92219914757E+02  0.00000000000E+00 0.  1.
         12    1    4    4    0    0  0.29696098051E+02 -0.10759546608E+02 -0.89681859547E+02  0.95081344197E+02  0.00000000000E+00 0. -1.
         -5    1    5    5    0  502  0.65706245289E+02 -0.18961583895E+02  0.24736894578E+01  0.68593450659E+02  0.47000000000E+01 0.  1.
         11    1    6    6    0    0 -0.33139896619E+02 -0.13239791785E+02 -0.62778098253E+01  0.36234730999E+02  0.00000000000E+00 0. -1.
        -12    1    6    6    0    0 -0.16181664123E+02  0.61812640311E+02  0.36290754650E+02  0.73482430751E+02  0.00000000000E+00 0.  1.
</event>
<event>
12    1  0.8562501E-002  0.1841284E+03  0.7818608E-02  0.1164301E+00
         21   -1    0    0  501  502  0.00000000000E+00  0.00000000000E+00  0.36177036261E+03  0.36177036261E+03  0.00000000000E+00 0. -1.
         21   -1    0    0  502  503 -0.00000000000E+00 -0.00000000000E+00 -0.15994942875E+03  0.15994942875E+03  0.00000000000E+00 0. -1.
         -6    2    1    2    0  503 -0.23520754976E+02 -0.54563886954E+02  0.26965898880E+03  0.32549220326E+03  0.17233328312E+03 0.  0.
        -24    2    3    3    0    0 -0.56879440198E+02  0.54888585045E+01  0.21237680989E+03  0.23592394919E+03  0.85386194070E+02 0.  0.
          6    2    1    2  501    0  0.23520754976E+02  0.54563886954E+02 -0.67838054930E+02  0.19622758810E+03  0.17427799907E+03 0.  0.
         24    2    5    5    0    0  0.52711682991E+02  0.42272801689E+02  0.16756210700E+02  0.10577616007E+03  0.79638647373E+02 0.  0.
          5    1    5    5  501    0 -0.29190928015E+02  0.12291085265E+02 -0.84594265630E+02  0.90451428031E+02  0.47000000000E+01 0. -1.
        -13    1    6    6    0    0 -0.23763265056E+01  0.14359304427E+02  0.37821940591E+02  0.40525741713E+02  0.00000000000E+00 0.  1.
         14    1    6    6    0    0  0.55088009497E+02  0.27913497262E+02 -0.21065729891E+02  0.65250418355E+02  0.00000000000E+00 0. -1.
         -5    1    3    3    0  503  0.33358685222E+02 -0.60052745458E+02  0.57282178903E+02  0.89568254067E+02  0.47000000000E+01 0.  1.
         13    1    4    4    0    0 -0.22208909512E+02  0.43220186542E+02  0.75664036121E+02  0.89923670680E+02  0.00000000000E+00 0. -1.
        -14    1    4    4    0    0 -0.34670530686E+02 -0.37731328038E+02  0.13671277377E+03  0.14600027851E+03  0.00000000000E+00 0.  1.
</event>
<event>
12    1  0.8562501E-002  0.2723988E+03  0.7818608E-02  0.1100169E+00
         21   -1    0    0  503  502  0.00000000000E+00  0.00000000000E+00  0.38178620585E+03  0.38178620585E+03  0.00000000000E+00 0. -1.
         21   -1    0    0  501  503 -0.00000000000E+00 -0.00000000000E+00 -0.19591663157E+03  0.19591663157E+03  0.00000000000E+00 0. -1.
          6    2    1    2  501    0  0.12415777982E+03  0.17072920079E+03  0.58449728587E+02  0.27859908483E+03  0.17215535137E+03 0.  0.
         24    2    3    3    0    0  0.12688209325E+03  0.13159656359E+03  0.98798419730E+02  0.22212880898E+03  0.78507062736E+02 0.  0.
         -6    2    1    2    0  502 -0.12415777982E+03 -0.17072920079E+03  0.12741984570E+03  0.29910375259E+03  0.16930334741E+03 0.  0.
        -24    2    5    5    0    0 -0.81201343737E+02 -0.19088477143E+03  0.95283698167E+02  0.24160310557E+03  0.79135474331E+02 0.  0.
          5    1    3    3  501    0 -0.27243134338E+01  0.39132637196E+02 -0.40348691143E+02  0.56470275850E+02  0.47000000000E+01 0. -1.
        -11    1    4    4    0    0  0.15338987411E+02 -0.31156313861E+01 -0.76105150806E+01  0.17404356740E+02  0.00000000000E+00 0.  1.
         12    1    4    4    0    0  0.11154310584E+03  0.13471219498E+03  0.10640893481E+03  0.20472445224E+03  0.00000000000E+00 0. -1.
         -5    1    5    5    0  502 -0.42956436084E+02  0.20155570642E+02  0.32136147531E+02  0.57500647014E+02  0.47000000000E+01 0.  1.
         11    1    6    6    0    0 -0.93253247244E+02 -0.14583195308E+03  0.88707229038E+02  0.19450475353E+03  0.00000000000E+00 0. -1.
        -12    1    6    6    0    0  0.12051903507E+02 -0.45052818348E+02  0.65764691292E+01  0.47098352046E+02  0.00000000000E+00 0.  1.
</event>
<event>
12    1  0.8562501E-002  0.2479490E+03  0.7818608E-02  0.1115486E+00
         21   -1    0    0  501  502  0.00000000000E+00  0.00000000000E+00  0.25091000436E+03  0.25091000436E+03  0.00000000000E+00 0. -1.
         21   -1    0    0  502  503 -0.00000000000E+00 -0.00000000000E+00 -0.26001405344E+03  0.26001405344E+03  0.00000000000E+00 0. -1.
         -6    2    1    2    0  503  0.17359990807E+03 -0.38597542933E+02 -0.76030767001E+02  0.25934417111E+03  0.17277738034E+03 0.  0.
        -24    2    3    3    0    0  0.17818949534E+03  0.41736424667E+01 -0.32400256229E+02  0.19789378396E+03  0.79644570333E+02 0.  0.
          6    2    1    2  501    0 -0.17359990807E+03  0.38597542933E+02  0.66926717916E+02  0.25157988669E+03  0.16488346009E+03 0.  0.
         24    2    5    5    0    0 -0.70495536612E+02  0.38117844384E+02  0.91363569956E+02  0.14551391070E+03  0.80027529943E+02 0.  0.
          5    1    5    5  501    0 -0.10310437146E+03  0.47969854856E+00 -0.24436852040E+02  0.10606597599E+03  0.47000000000E+01 0. -1.
        -11    1    6    6    0    0 -0.10372500295E+01  0.29219514750E+02 -0.14183151849E+01  0.29272300009E+02  0.00000000000E+00 0.  1.
         12    1    6    6    0    0 -0.69458286582E+02  0.88983296344E+01  0.92781885141E+02  0.11624161069E+03  0.00000000000E+00 0. -1.
         -5    1    3    3    0  503 -0.45895872661E+01 -0.42771185400E+02 -0.43630510772E+02  0.61450387159E+02  0.47000000000E+01 0.  1.
         13    1    4    4    0    0  0.11319421088E+03  0.23577502721E+02  0.12880117704E+02  0.11633883893E+03  0.00000000000E+00 0. -1.
        -14    1    4    4    0    0  0.64995284463E+02 -0.19403860254E+02 -0.45280373933E+02  0.81554945030E+02  0.00000000000E+00 0.  1.
</event>
<event>
12    1  0.8562501E-002  0.1961614E+03  0.7818608E-02  0.1153262E+00
         21   -1    0    0  501  502  0.00000000000E+00  0.00000000000E+00  0.55970036463E+03  0.55970036463E+03  0.00000000000E+00 0.  1.
         21   -1    0    0  502  503 -0.00000000000E+00 -0.00000000000E+00 -0.22354132317E+03  0.22354132317E+03  0.00000000000E+00 0. -1.
         -6    2    1    2    0  503  0.38984689282E+01  0.93913659878E+02 -0.15806749384E+03  0.25192183322E+03  0.17217521271E+03 0.  0.
        -24    2    3    3    0    0  0.52540012414E+02  0.63187468110E+02 -0.15659542330E+03  0.19417795385E+03  0.80186296411E+02 0.  0.
          6    2    1    2  501    0 -0.38984689282E+01 -0.93913659878E+02  0.49422653530E+03  0.53131985458E+03  0.17089747248E+03 0.  0.
         24    2    5    5    0    0  0.53199845691E+02 -0.94228336384E+02  0.37082445829E+03  0.39526663277E+03  0.83759949583E+02 0.  0.
          5    1    5    5  501    0 -0.57098314619E+02  0.31467650653E+00  0.12340207701E+03  0.13605322181E+03  0.47000000000E+01 0. -1.
        -13    1    6    6    0    0 -0.18589860275E+02 -0.32481533479E+02  0.63746558559E+02  0.73920610457E+02  0.00000000000E+00 0.  1.
         14    1    6    6    0    0  0.71789705966E+02 -0.61746802906E+02  0.30707789973E+03  0.32134602231E+03  0.00000000000E+00 0. -1.
         -5    1    3    3    0  503 -0.48641543486E+02  0.30726191768E+02 -0.14720705410E+01  0.57743879372E+02  0.47000000000E+01 0.  1.
         11    1    4    4    0    0  0.56234439954E+02  0.92128259242E+01 -0.55655266453E+02  0.79653606839E+02  0.00000000000E+00 0. -1.
        -12    1    4    4    0    0 -0.36944275406E+01  0.53974642186E+02 -0.10094015685E+03  0.11452434701E+03  0.00000000000E+00 0.  1.
</event>
<event>
12    1  0.8562501E-002  0.1906582E+03  0.7818608E-02  0.1158323E+00
         21   -1    0    0  501  502  0.00000000000E+00  0.00000000000E+00  0.54344980253E+03  0.54344980253E+03  0.00000000000E+00 0. -1.
         21   -1    0    0  502  503 -0.00000000000E+00 -0.00000000000E+00 -0.68817825343E+02  0.68817825343E+02  0.00000000000E+00 0.  1.
         -6    2    1    2    0  503  0.39338229937E+02  0.65753856923E+02  0.17865078837E+03  0.26127888470E+03  0.17458374887E+03 0.  0.
        -24    2    3    3    0    0  0.62732800526E+02  0.31092926171E+02  0.37106484941E+02  0.11361180682E+03  0.81416074000E+02 0.  0.
          6    2    1    2  501    0 -0.39338229937E+02 -0.65753856923E+02  0.29598118881E+03  0.35098874317E+03  0.17238668066E+03 0.  0.
         24    2    5    5    0    0 -0.17306479985E+02 -0.11103304038E+03  0.20581882379E+03  0.24761106411E+03  0.79511008928E+02 0.  0.
          5    1    5    5  501    0 -0.22031749951E+02  0.45279183459E+02  0.90162365026E+02  0.10337767906E+03  0.47000000000E+01 0. -1.
        -13    1    6    6    0    0 -0.43249856307E+02 -0.32194234607E+02  0.68722621396E+02  0.87348826575E+02  0.00000000000E+00 0.  1.
         14    1    6    6    0    0  0.25943376322E+02 -0.78838805775E+02  0.13709620239E+03  0.16026223754E+03  0.00000000000E+00 0. -1.
         -5    1    3    3    0  503 -0.23394570589E+02  0.34660930751E+02  0.14154430343E+03  0.14766707787E+03  0.47000000000E+01 0.  1.
         11    1    4    4    0    0 -0.13226604317E+01  0.42174296076E+02  0.17825681226E+02  0.45805846693E+02  0.00000000000E+00 0. -1.
        -12    1    4    4    0    0  0.64055460958E+02 -0.11081369905E+02  0.19280803715E+02  0.67805960131E+02  0.00000000000E+00 0.  1.
</event>
<event>
12    1  0.8562501E-002  0.2380943E+03  0.7818608E-02  0.1121727E+00
         21   -1    0    0  501  502  0.00000000000E+00  0.00000000000E+00  0.56732447915E+02  0.56732447915E+02  0.00000000000E+00 0.  1.
         21   -1    0    0  502  503 -0.00000000000E+00 -0.00000000000E+00 -0.12753644344E+04  0.12753644344E+04  0.00000000000E+00 0. -1.
         -6    2    1    2    0  503 -0.44261321626E+00 -0.15959415378E+03 -0.92433172374E+03  0.95354496018E+03  0.17143035244E+03 0.  0.
        -24    2    3    3    0    0 -0.63770044983E+02 -0.98619463441E+02 -0.66138810618E+03  0.67625501717E+03  0.78065383151E+02 0.  0.
          6    2    1    2  501    0  0.44261321626E+00  0.15959415378E+03 -0.29430026278E+03  0.37855192217E+03  0.17668736027E+03 0.  0.
         24    2    5    5    0    0 -0.92397009429E+01  0.18885708667E+03 -0.25729757434E+03  0.33016436798E+03  0.83988671070E+02 0.  0.
          5    1    5    5  501    0  0.96823141592E+01 -0.29262932885E+02 -0.37002688443E+02  0.48387554190E+02  0.47000000000E+01 0. -1.
        -11    1    6    6    0    0  0.16421037381E+01  0.14455661911E+03 -0.24229067200E+03  0.28214195429E+03  0.00000000000E+00 0.  1.
         12    1    6    6    0    0 -0.10881804681E+02  0.44300467555E+02 -0.15006902333E+02  0.48022413687E+02  0.00000000000E+00 0. -1.
         -5    1    3    3    0  503  0.63327431767E+02 -0.60974690341E+02 -0.26294361757E+03  0.27728994301E+03  0.47000000000E+01 0.  1.
         13    1    4    4    0    0 -0.11922032489E+01 -0.49124006178E+02 -0.39872445877E+03  0.40174094060E+03  0.00000000000E+00 0. -1.
        -14    1    4    4    0    0 -0.62577841734E+02 -0.49495457263E+02 -0.26266364740E+03  0.27451407657E+03  0.00000000000E+00 0.  1.
</event>
<event>
12    1  0.8562501E-002  0.2396709E+03  0.7818608E-02  0.1120028E+00
         21   -1    0    0  503  502  0.00000000000E+00  0.00000000000E+00  0.19550201737E+03  0.19550201737E+03  0.00000000000E+00 0.  1.
         21   -1    0    0  501  503 -0.00000000000E+00 -0.00000000000E+00 -0.40147199276E+03  0.40147199276E+03  0.00000000000E+00 0.  1.
          6    2    1    2  501    0  0.16395648399E+03 -0.22607804607E+02 -0.25765102782E+03  0.35188946186E+03  0.17334733850E+03 0.  0.
         24    2    3    3    0    0  0.10599158265E+03 -0.36564352649E+02 -0.67412717227E+02  0.15247175995E+03  0.78307060098E+02 0.  0.
         -6    2    1    2    0  502 -0.16395648399E+03  0.22607804607E+02  0.51681052421E+02  0.24508454827E+03  0.17321276844E+03 0.  0.
        -24    2    5    5    0    0 -0.15143669115E+03  0.58268640683E+01  0.97327308988E+02  0.19464630963E+03  0.73807567415E+02 0.  0.
          5    1    3    3  501    0  0.57964901332E+02  0.13956548043E+02 -0.19023831059E+03  0.19941770191E+03  0.47000000000E+01 0. -1.
        -13    1    4    4    0    0  0.88850290930E+02  0.35261651441E+01 -0.62297187046E+02  0.10857139380E+03  0.00000000000E+00 0.  1.
         14    1    4    4    0    0  0.17141291723E+02 -0.40090517793E+02 -0.51155301820E+01  0.43900366148E+02  0.00000000000E+00 0. -1.
         -5    1    5    5    0  502 -0.12519792834E+02  0.16780940538E+02 -0.45646256567E+02  0.50438238635E+02  0.47000000000E+01 0.  1.
         11    1    6    6    0    0 -0.14622308580E+03 -0.11248143433E+02  0.98645357137E+02  0.17674449931E+03  0.00000000000E+00 0. -1.
        -12    1    6    6    0    0 -0.52136053483E+01  0.17075007501E+02 -0.13180481488E+01  0.17901810322E+02  0.00000000000E+00 0.  1.
</event>
<event>
12    1  0.8562501E-002  0.2018497E+03  0.7818608E-02  0.1149493E+00
         21   -1    0    0  503  502  0.00000000000E+00  0.00000000000E+00  0.77391047196E+02  0.77391047196E+02  0.00000000000E+00 0.  1.
         21   -1    0    0  501  503 -0.00000000000E+00 -0.00000000000E+00 -0.87835607809E+03  0.87835607809E+03  0.00000000000E+00 0. -1.
          6    2    1    2  501    0  0.97393466098E+02  0.57265535382E+01 -0.71331467142E+03  0.74132390776E+03  0.17670606979E+03 0.  0.
         24    2    3    3    0    0  0.13216749209E+03  0.26514052522E+02 -0.61806644006E+03  0.63771083631E+03  0.80608594307E+02 0.  0.
         -6    2    1    2    0  502 -0.97393466098E+02 -0.57265535382E+01 -0.87650359475E+02  0.21442321752E+03  0.16963622857E+03 0.  0.
        -24    2    5    5    0    0  0.34452469699E+01  0.30761970969E+02 -0.51593569494E+02  0.10118876792E+03  0.81357862283E+02 0.  0.
          5    1    3    3  501    0 -0.34774025993E+02 -0.20787498984E+02 -0.95248231361E+02  0.10361307145E+03  0.47000000000E+01 0. -1.
        -11    1    4    4    0    0  0.96934900103E+02  0.30598797905E+02 -0.28168605280E+03  0.29946568022E+03  0.00000000000E+00 0.  1.
         12    1    4    4    0    0  0.35232591987E+02 -0.40847453828E+01 -0.33638038726E+03  0.33824515609E+03  0.00000000000E+00 0. -1.
         -5    1    5    5    0  502 -0.10083871307E+03 -0.36488524507E+02 -0.36056789980E+02  0.11323444961E+03  0.47000000000E+01 0.  1.
         11    1    6    6    0    0 -0.34243299146E+02  0.26938361611E+02 -0.45183886497E+02  0.62768323713E+02  0.00000000000E+00 0. -1.
        -12    1    6    6    0    0  0.37688546116E+02  0.38236093575E+01 -0.64096829976E+01  0.38420444206E+02  0.00000000000E+00 0.  1.
</event>
<event>
12    1  0.8562501E-002  0.2067379E+03  0.7818608E-02  0.1144545E+00
         21   -1    0    0  503  502  0.00000000000E+00  0.00000000000E+00  0.15677809923E+03  0.15677809923E+03  0.00000000000E+00 0.  1.
         21   -1    0    0  501  503 -0.00000000000E+00 -0.00000000000E+00 -0.31408639625E+03  0.31408639625E+03  0.00000000000E+00 0. -1.
          6    2    1    2  501    0 -0.17640530500E+02  0.10964086547E+03 -0.16633678382E+03  0.26392952163E+03  0.17221660500E+03 0.  0.
         24    2    3    3    0    0  0.52933279521E+02  0.92491473507E+02 -0.11153092125E+03  0.17282223939E+03  0.77921596996E+02 0.  0.
         -6    2    1    2    0  502  0.17640530500E+02 -0.10964086547E+03  0.90284868008E+01  0.20693497386E+03  0.17437964943E+03 0.  0.
        -24    2    5    5    0    0 -0.44320899438E+02 -0.61650337481E+02 -0.34400475768E+02  0.11721053813E+03  0.82400311150E+02 0.  0.
          5    1    3    3  501    0 -0.70573810022E+02  0.17149391965E+02 -0.54805862567E+02  0.91107282242E+02  0.47000000000E+01 0. -1.
        -11    1    4    4    0    0 -0.58685144241E+00  0.40486448798E+02 -0.23292910156E+01  0.40557644501E+02  0.00000000000E+00 0.  1.
         12    1    4    4    0    0  0.53520130964E+02  0.52005024709E+02 -0.10920163024E+03  0.13226459489E+03  0.00000000000E+00 0. -1.
         -5    1    5    5    0  502  0.61961429938E+02 -0.47990527991E+02  0.43428962569E+02  0.89724435728E+02  0.47000000000E+01 0.  1.
         13    1    6    6    0    0  0.82998758140E+01 -0.11487399975E+02 -0.41798044028E+02  0.44135300852E+02  0.00000000000E+00 0. -1.
        -14    1    6    6    0    0 -0.52620775252E+02 -0.50162937506E+02  0.73975682600E+01  0.73075237280E+02  0.00000000000E+00 0.  1.
</event>
<event>
12    1  0.8562501E-002  0.1765076E+03  0.7818608E-02  0.1171343E+00
         21   -1    0    0  503  502  0.00000000000E+00  0.00000000000E+00  0.10526552828E+04  0.10526552828E+04  0.00000000000E+00 0.  1.
         21   -1    0    0  501  503 -0.00000000000E+00 -0.00000000000E+00 -0.38766558113E+02  0.38766558113E+02  0.00000000000E+00 0.  1.
          6    2    1    2  501    0 -0.30503976576E+02 -0.25854876950E+02  0.24091172836E+03  0.29865265389E+03  0.17191852596E+03 0.  0.
         24    2    3    3    0    0 -0.59210426944E+02 -0.36907762313E+02  0.75323394828E+02  0.13016582126E+03  0.80009184717E+02 0.  0.
         -6    2    1    2    0  502  0.30503976576E+02  0.25854876950E+02  0.77297699628E+03  0.79276918697E+03  0.17143680989E+03 0.  0.
        -24    2    5    5    0    0  0.12851581595E+02  0.66354792337E+02  0.30392583639E+03  0.32161854144E+03  0.80619169894E+02 0.  0.
          5    1    3    3  501    0  0.28706450369E+02  0.11052885363E+02  0.16558833353E+03  0.16848683263E+03  0.47000000000E+01 0. -1.
        -13    1    4    4    0    0 -0.52907657029E+01 -0.26725944064E+02 -0.97452151492E+01  0.28935056698E+02  0.00000000000E+00 0.  1.
         14    1    4    4    0    0 -0.53919661242E+02 -0.10181818249E+02  0.85068609977E+02  0.10123076457E+03  0.00000000000E+00 0. -1.
         -5    1    5    5    0  502  0.17652394980E+02 -0.40499915387E+02  0.46905115989E+03  0.47115064553E+03  0.47000000000E+01 0.  1.
         11    1    6    6    0    0  0.34078250002E+02 -0.46742488595E+00  0.12128458670E+03  0.12598212802E+03  0.00000000000E+00 0. -1.
        -12    1    6    6    0    0 -0.21226668407E+02  0.66822217223E+02  0.18264124969E+03  0.19563641342E+03  0.00000000000E+00 0.  1.
</event>
<event>
12    1  0.8562501E-002  0.2286037E+03  0.7818608E-02  0.1127771E+00
         21   -1    0    0  501  502  0.00000000000E+00  0.00000000000E+00  0.38707290167E+03  0.38707290167E+03  0.00000000000E+00 0.  1.
         21   -1    0    0  502  503 -0.00000000000E+00 -0.00000000000E+00 -0.13979871411E+03  0.13979871411E+03  0.00000000000E+00 0.  1.
         -6    2    1    2    0  503 -0.31005765571E+02 -0.14644725103E+03  0.17455555256E+03  0.28698072547E+03  0.17169781894E+03 0.  0.
        -24    2    3    3    0    0  0.33736828481E+02 -0.84662140966E+02  0.15294283537E+03  0.19479502780E+03  0.79042648330E+02 0.  0.
          6    2    1    2  501    0  0.31005765571E+02  0.14644725103E+03  0.72718634996E+02  0.23989089032E+03  0.17277582165E+03 0.  0.
         24    2    5    5    0    0  0.29643556870E+02  0.11908596167E+03 -0.11591112355E+02  0.15111747500E+03  0.87418136756E+02 0.  0.
          5    1    5    5  501    0  0.13622087007E+01  0.27361289358E+02  0.84309747351E+02  0.88773415313E+02  0.47000000000E+01 0. -1.
        -11    1    6    6    0    0 -0.15166113318E+02  0.10073688532E+03 -0.12854766462E+02  0.10267996921E+03  0.00000000000E+00 0.  1.
         12    1    6    6    0    0  0.44809670188E+02  0.18349076356E+02  0.12636541071E+01  0.48437505790E+02  0.00000000000E+00 0. -1.
         -5    1    3    3    0  503 -0.64742594052E+02 -0.61785110066E+02  0.21612717188E+02  0.92185697669E+02  0.47000000000E+01 0.  1.
         11    1    4    4    0    0  0.50436787745E+02 -0.83255727516E+02  0.14832059241E+03  0.17741021350E+03  0.00000000000E+00 0. -1.
        -12    1    4    4    0    0 -0.16699959263E+02 -0.14064134500E+01  0.46222429636E+01  0.17384814299E+02  0.00000000000E+00 0.  1.
</event>
<event>
12    1  0.8562501E-002  0.1844402E+03  0.7818608E-02  0.1163633E+00
         21   -1    0    0  501  502  0.00000000000E+00  0.00000000000E+00  0.28744856516E+02  0.28744856516E+02  0.00000000000E+00 0.  1.
         21   -1    0    0  502  503 -0.00000000000E+00 -0.00000000000E+00 -0.15381215390E+04  0.15381215390E+04  0.00000000000E+00 0. -1.
         -6    2    1    2    0  503 -0.67966499597E+02 -0.47059856779E+01 -0.11313466511E+04  0.11462420071E+04  0.17112539976E+03 0.  0.
        -24    2    3    3    0    0  0.15320331295E+02 -0.24570839298E+02 -0.78394756430E+03  0.78841589830E+03  0.78660068767E+02 0.  0.
          6    2    1    2  501    0  0.67966499597E+02  0.47059856779E+01 -0.37803003141E+03  0.42062438847E+03  0.17139597476E+03 0.  0.
         24    2    5    5    0    0  0.46692506180E+02  0.61074949440E+02 -0.20407894921E+03  0.23647468886E+03  0.91442448438E+02 0.  0.
          5    1    5    5  501    0  0.21273993417E+02 -0.56368963762E+02 -0.17395108219E+03  0.18414969961E+03  0.47000000000E+01 0. -1.
        -11    1    6    6    0    0  0.56296200539E+02 -0.12865478352E+01 -0.92562659631E+02  0.10834557378E+03  0.00000000000E+00 0.  1.
         12    1    6    6    0    0 -0.96036943594E+01  0.62361497275E+02 -0.11151628958E+03  0.12812911508E+03  0.00000000000E+00 0. -1.
         -5    1    3    3    0  503 -0.83286830892E+02  0.19864853620E+02 -0.34739908681E+03  0.35782610879E+03  0.47000000000E+01 0.  1.
         13    1    4    4    0    0 -0.28034804225E+02 -0.22550667906E+02 -0.48518868105E+03  0.48652085165E+03  0.00000000000E+00 0. -1.
        -14    1    4    4    0    0  0.43355135520E+02 -0.20201713922E+01 -0.29875888325E+03  0.30189504665E+03  0.00000000000E+00 0.  1.
</event>
<event>
12    1  0.8562501E-002  0.2142331E+03  0.7818608E-02  0.1138498E+00
         21   -1    0    0  503  502  0.00000000000E+00  0.00000000000E+00  0.77949615914E+03  0.77949615914E+03  0.00000000000E+00 0.  1.
         21   -1    0    0  501  503 -0.00000000000E+00 -0.00000000000E+00 -0.69236602458E+02  0.69236602458E+02  0.00000000000E+00 0.  1.
          6    2    1    2  501    0 -0.11864004162E+03 -0.47926797532E+02  0.18742686772E+03  0.28371079085E+03  0.17026609969E+03 0.  0.
         24    2    3    3    0    0 -0.13681046088E+03 -0.68963421731E+02  0.16404365028E+03  0.24708336190E+03  0.10328026331E+03 0.  0.
         -6    2    1    2    0  502  0.11864004162E+03  0.47926797532E+02  0.52283268896E+03  0.56502197075E+03  0.17182365781E+03 0.  0.
        -24    2    5    5    0    0  0.12779911038E+03  0.42027951296E+02  0.27726612773E+03  0.31916894367E+03  0.83026186909E+02 0.  0.
          5    1    3    3  501    0  0.18170419253E+02  0.21036624198E+02  0.23383217433E+02  0.36627428944E+02  0.47000000000E+01 0. -1.
        -11    1    4    4    0    0 -0.28520496679E+02 -0.63904451965E+02  0.34067722430E+02  0.77831917768E+02  0.00000000000E+00 0.  1.
         12    1    4    4    0    0 -0.10828996420E+03 -0.50589697657E+01  0.12997592785E+03  0.16925144414E+03  0.00000000000E+00 0. -1.
         -5    1    5    5    0  502 -0.91590687612E+01  0.58988462366E+01  0.24556656123E+03  0.24585302708E+03  0.47000000000E+01 0.  1.
         13    1    6    6    0    0  0.31953125371E+02 -0.16721055939E+02  0.12371543945E+03  0.12886468054E+03  0.00000000000E+00 0. -1.
        -14    1    6    6    0    0  0.95845985013E+02  0.58749007235E+02  0.15355068828E+03  0.19030426313E+03  0.00000000000E+00 0.  1.
</event>
<event>
12    1  0.8562501E-002  0.2191821E+03  0.7818608E-02  0.1135185E+00
         21   -1    0    0  501  502  0.00000000000E+00  0.00000000000E+00  0.14054810695E+04  0.14054810695E+04  0.00000000000E+00 0.  1.
         21   -1    0    0  502  503 -0.00000000000E+00 -0.00000000000E+00 -0.51700668861E+02  0.51700668861E+02  0.00000000000E+00 0.  1.
         -6    2    1    2    0  503 -0.70579242062E+02 -0.11159282853E+03  0.11041243196E+04  0.11249635369E+04  0.17034687405E+03 0.  0.
        -24    2    3    3    0    0 -0.43827790057E+02 -0.20490211981E+01  0.67375623059E+03  0.68004301824E+03  0.81154018592E+02 0.  0.
          6    2    1    2  501    0  0.70579242062E+02  0.11159282853E+03  0.24965608101E+03  0.33221820140E+03  0.17494680839E+03 0.  0.
         24    2    5    5    0    0  0.10723632361E+03  0.11010083330E+03  0.15569209234E+03  0.23123657513E+03  0.74889942358E+02 0.  0.
          5    1    5    5  501    0 -0.36657081549E+02  0.14919952312E+01  0.93963988665E+02  0.10098162627E+03  0.47000000000E+01 0. -1.
        -13    1    6    6    0    0  0.99369589013E+02  0.70162134698E+02  0.14476941774E+03  0.18909051980E+03  0.00000000000E+00 0.  1.
         14    1    6    6    0    0  0.78667345983E+01  0.39938698605E+02  0.10922674598E+02  0.42146055330E+02  0.00000000000E+00 0. -1.
         -5    1    3    3    0  503 -0.26751452005E+02 -0.10954380734E+03  0.43036808902E+03  0.44492051870E+03  0.47000000000E+01 0.  1.
         11    1    4    4    0    0 -0.42496424828E+02 -0.24758826071E+02  0.61611775383E+03  0.61807769105E+03  0.00000000000E+00 0. -1.
        -12    1    4    4    0    0 -0.13313652296E+01  0.22709804873E+02  0.57638476758E+02  0.61965327189E+02  0.00000000000E+00 0.  1.
</event>
<event>
12    1  0.8562501E-002  0.1924346E+03  0.7818608E-02  0.1156298E+00
         21   -1    0    0  503  502  0.00000000000E+00  0.00000000000E+00  0.27706991174E+03  0.27706991174E+03  0.00000000000E+00 0.  1.
         21   -1    0    0  501  503 -0.00000000000E+00 -0.00000000000E+00 -0.18799447540E+03  0.18799447540E+03  0.00000000000E+00 0.  1.
          6    2    1    2  501    0 -0.48393160717E+02  0.72475935987E+02 -0.80538760751E+02  0.20854915643E+03  0.17149810309E+03 0.  0.
         24    2    3    3    0    0 -0.75827614404E+02  0.91457818486E+02 -0.95285111347E+02  0.17177272419E+03  0.79449711530E+02 0.  0.
         -6    2    1    2    0  502  0.48393160717E+02 -0.72475935987E+02  0.16961419710E+03  0.25651523071E+03  0.17157047656E+03 0.  0.
        -24    2    5    5    0    0  0.45399918285E+02  0.17252277790E+02  0.45406317121E+02  0.10318617510E+03  0.78910451951E+02 0.  0.
          5    1    3    3  501    0  0.27434453687E+02 -0.18981882499E+02  0.14746350596E+02  0.36776432239E+02  0.47000000000E+01 0. -1.
        -11    1    4    4    0    0  0.77404432018E+01  0.27856919460E+02 -0.49247626263E+02  0.57107364808E+02  0.00000000000E+00 0.  1.
         12    1    4    4    0    0 -0.83568057606E+02  0.63600899026E+02 -0.46037485084E+02  0.11466535938E+03  0.00000000000E+00 0. -1.
         -5    1    5    5    0  502  0.29932424325E+01 -0.89728213777E+02  0.12420787997E+03  0.15332905561E+03  0.47000000000E+01 0.  1.
         11    1    6    6    0    0 -0.18471847510E+02 -0.82262671408E+01 -0.96875631576E+00  0.20243989486E+02  0.00000000000E+00 0. -1.
        -12    1    6    6    0    0  0.63871765795E+02  0.25478544931E+02  0.46375073437E+02  0.82942185610E+02  0.00000000000E+00 0.  1.
</event>
<event>
12    1  0.8562501E-002  0.1767640E+03  0.7818608E-02  0.1171105E+00
         21   -1    0    0  501  502  0.00000000000E+00  0.00000000000E+00  0.12855768581E+04  0.12855768581E+04  0.00000000000E+00 0. -1.
         21   -1    0    0  502  503 -0.00000000000E+00 -0.00000000000E+00 -0.37324229419E+02  0.37324229419E+02  0.00000000000E+00 0. -1.
         -6    2    1    2    0  503  0.16637896961E+02 -0.33424928377E+02  0.23175238326E+03  0.29114613816E+03  0.17222909501E+03 0.  0.
        -24    2    3    3    0    0  0.46844708303E+02 -0.29653801105E+02  0.53822386644E+02  0.11056970961E+03  0.79088790381E+02 0.  0.
          6    2    1    2  501    0 -0.16637896961E+02  0.33424928377E+02  0.10165002455E+04  0.10317549494E+04  0.17277581175E+03 0.  0.
         24    2    5    5    0    0  0.53440987060E+02  0.28701566102E+02  0.52655602841E+03  0.53677940862E+03  0.84800728044E+02 0.  0.
          5    1    5    5  501    0 -0.70078884021E+02  0.47233622745E+01  0.48994421706E+03  0.49497554078E+03  0.47000000000E+01 0. -1.
        -13    1    6    6    0    0  0.53483099348E+02  0.45632727428E+02  0.24977204456E+03  0.25947805682E+03  0.00000000000E+00 0.  1.
         14    1    6    6    0    0 -0.42112288054E-01 -0.16931161326E+02  0.27678398384E+03  0.27730135180E+03  0.00000000000E+00 0. -1.
         -5    1    3    3    0  503 -0.30206811342E+02 -0.37711272722E+01  0.17792999662E+03  0.18057642855E+03  0.47000000000E+01 0.  1.
         13    1    4    4    0    0 -0.14133774958E+02 -0.23992180900E+02  0.38370379161E+02  0.47409643912E+02  0.00000000000E+00 0. -1.
        -14    1    4    4    0    0  0.60978483261E+02 -0.56616202050E+01  0.15452007483E+02  0.63160065701E+02  0.00000000000E+00 0.  1.
</event>
<event>
12    1  0.8562501E-002  0.1906403E+03  0.7818608E-02  0.1157968E+00
         21   -1    0    0  503  502  0.00000000000E+00  0.00000000000E+00  0.74801021880E+03  0.74801021880E+03  0.00000000000E+00 0.  1.
         21   -1    0    0  501  503 -0.00000000000E+00 -0.00000000000E+00 -0.61724218387E+02  0.61724218387E+02  0.00000000000E+00 0.  1.
          6    2    1    2  501    0  0.78195908555E+02  0.17934670195E+02  0.15595754251E+03  0.24630569528E+03  0.17293781527E+03 0.  0.
         24    2    3    3    0    0 -0.51933923856E+01 -0.27234089922E+02  0.31400218096E+02  0.89683189017E+02  0.79299645128E+02 0.  0.
         -6    2    1    2    0  502 -0.78195908555E+02 -0.17934670195E+02  0.53032845790E+03  0.56342874191E+03  0.17253237795E+03 0.  0.
        -24    2    5    5    0    0 -0.52574375194E+02  0.51805972678E+02  0.21741859744E+03  0.24178469795E+03  0.75769848345E+02 0.  0.
          5    1    3    3  501    0  0.83389300941E+02  0.45168760117E+02  0.12455732442E+03  0.15662250626E+03  0.47000000000E+01 0. -1.
        -11    1    4    4    0    0  0.28179726498E+02 -0.20110329500E+02 -0.99967614639E+01  0.36034116860E+02  0.00000000000E+00 0.  1.
         12    1    4    4    0    0 -0.33373118884E+02 -0.71237604213E+01  0.41396979560E+02  0.53649072157E+02  0.00000000000E+00 0. -1.
         -5    1    5    5    0  502 -0.25621533361E+02 -0.69740642874E+02  0.31290986047E+03  0.32164404396E+03  0.47000000000E+01 0.  1.
         13    1    6    6    0    0 -0.71301616257E+02  0.47535739838E+02  0.16440046679E+03  0.18539439184E+03  0.00000000000E+00 0. -1.
        -14    1    6    6    0    0  0.18727241063E+02  0.42702328401E+01  0.53018130644E+02  0.56390306111E+02  0.00000000000E+00 0.  1.
</event>
<event>
12    1  0.8562501E-002  0.2348383E+03  0.7818608E-02  0.1123487E+00
         21   -1    0    0  503  502  0.00000000000E+00  0.00000000000E+00  0.11885534363E+04  0.11885534363E+04  0.00000000000E+00 0.  1.
         21   -1    0    0  501  503 -0.00000000000E+00 -0.00000000000E+00 -0.58670228094E+02  0.58670228094E+02  0.00000000000E+00 0. -1.
          6    2    1    2  501    0  0.58178193910E+02  0.14760538321E+03  0.27585615311E+03  0.36149727295E+03  0.17149813334E+03 0.  0.
         24    2    3    3    0    0  0.93163900616E+02  0.12782046961E+03  0.16050254064E+03  0.23925166611E+03  0.80390978073E+02 0.  0.
         -6    2    1    2    0  502 -0.58178193910E+02 -0.14760538321E+03  0.85402705514E+03  0.88572639149E+03  0.17313861003E+03 0.  0.
        -24    2    5    5    0    0 -0.82219059966E+02 -0.47825044682E+02  0.36054740097E+03  0.38166455176E+03  0.81401431214E+02 0.  0.
          5    1    3    3  501    0 -0.34985706706E+02  0.19784913597E+02  0.11535361247E+03  0.12224560683E+03  0.47000000000E+01 0. -1.
        -13    1    4    4    0    0  0.25918572008E+02  0.12937144340E+02  0.76612185627E+02  0.81905854889E+02  0.00000000000E+00 0.  1.
         14    1    4    4    0    0  0.67245328608E+02  0.11488332527E+03  0.83890355016E+02  0.15734581122E+03  0.00000000000E+00 0. -1.
         -5    1    5    5    0  502  0.24040866056E+02 -0.99780338527E+02  0.49347965417E+03  0.50406183974E+03  0.47000000000E+01 0.  1.
         11    1    6    6    0    0 -0.10796379788E+02  0.14128928281E+02  0.14533730822E+02  0.22965577774E+02  0.00000000000E+00 0. -1.
        -12    1    6    6    0    0 -0.71422680178E+02 -0.61953972962E+02  0.34601367014E+03  0.35869897398E+03  0.00000000000E+00 0.  1.
</event>
<event>
12    1  0.8562501E-002  0.1783198E+03  0.7818608E-02  0.1169563E+00
         21   -1    0    0  503  502  0.00000000000E+00  0.00000000000E+00  0.14343190379E+03  0.14343190379E+03  0.00000000000E+00 0. -1.
         21   -1    0    0  501  503 -0.00000000000E+00 -0.00000000000E+00 -0.15463434110E+04  0.15463434110E+04  0.00000000000E+00 0. -1.
          6    2    1    2  501    0 -0.39094495050E+02  0.24525741492E+02 -0.14834802553E+04  0.14940989069E+04  0.17172065748E+03 0.  0.
         24    2    3    3    0    0  0.11986441666E+02  0.68961496776E+01 -0.12678074387E+04  0.12717097920E+04  0.98584287824E+02 0.  0.
         -6    2    1    2    0  502  0.39094495050E+02 -0.24525741492E+02  0.80568748056E+02  0.19567640791E+03  0.17224413462E+03 0.  0.
        -24    2    5    5    0    0  0.11468169686E+02 -0.87393218978E+01 -0.26253447088E+02  0.84117023401E+02  0.78603660721E+02 0.  0.
          5    1    3    3  501    0 -0.51080936716E+02  0.17629591814E+02 -0.21567281662E+03  0.22238911491E+03  0.47000000000E+01 0. -1.
        -11    1    4    4    0    0 -0.27518516911E+02  0.39421570383E+02 -0.56483021430E+03  0.56687256061E+03  0.00000000000E+00 0.  1.
         12    1    4    4    0    0  0.39504958577E+02 -0.32525420706E+02 -0.70297722435E+03  0.70483723135E+03  0.00000000000E+00 0. -1.
         -5    1    5    5    0  502  0.27626325364E+02 -0.15786419594E+02  0.10682219514E+03  0.11155938451E+03  0.47000000000E+01 0.  1.
         11    1    6    6    0    0  0.20299202781E+02 -0.20772621472E+02  0.20164897347E+02  0.35357920207E+02  0.00000000000E+00 0. -1.
        -12    1    6    6    0    0 -0.88310330953E+01  0.12033299574E+02 -0.46418344435E+02  0.48759103194E+02  0.00000000000E+00 0.  1.
</event>
<event>
12    1  0.8562501E-002  0.1798068E+03  0.7818608E-02  0.1170881E+00
         21   -1    0    0  503  502  0.00000000000E+00  0.00000000000E+00  0.97062605860E+03  0.97062605860E+03  0.00000000000E+00 0. -1.
         21   -1    0    0  501  503 -0.00000000000E+00 -0.00000000000E+00 -0.75204099207E+02  0.75204099207E+02  0.00000000000E+00 0. -1.
          6    2    1    2  501    0 -0.40339831655E+02  0.34548884882E+02  0.41703814719E+02  0.17338236282E+03  0.15969129002E+03 0.  0.
         24    2    3    3    0    0 -0.66298067783E+02 -0.12952898095E+02 -0.28205172793E+01  0.10313454755E+03  0.77881757946E+02 0.  0.
         -6    2    1    2    0  502  0.40339831655E+02 -0.34548884882E+02  0.85371814468E+03  0.87244779500E+03  0.17178345955E+03 0.  0.
        -24    2    5    5    0    0 -0.17778928797E+02 -0.36062396425E+02  0.23861690950E+03  0.25458721157E+03  0.79120364322E+02 0.  0.
          5    1    3    3  501    0  0.25958236128E+02  0.47501782977E+02  0.44524331999E+02  0.70247815260E+02  0.47000000000E+01 0. -1.
        -11    1    4    4    0    0 -0.65136984890E+01 -0.34663702721E+01  0.32313211594E+02  0.33144948852E+02  0.00000000000E+00 0.  1.
         12    1    4    4    0    0 -0.59784369294E+02 -0.94865278231E+01 -0.35133728873E+02  0.69989598703E+02  0.00000000000E+00 0. -1.
         -5    1    5    5    0  502  0.58118760452E+02  0.15135115437E+01  0.61510123518E+03  0.61786058343E+03  0.47000000000E+01 0.  1.
         11    1    6    6    0    0  0.29352689351E+02 -0.71483448536E+00  0.92196250645E+02  0.96758668829E+02  0.00000000000E+00 0. -1.
        -12    1    6    6    0    0 -0.47131618148E+02 -0.35347561940E+02  0.14642065885E+03  0.15782854274E+03  0.00000000000E+00 0.  1.
</event>
<event>
12    1  0.8562501E-002  0.1787492E+03  0.7818608E-02  0.1169242E+00
         21   -1    0    0  503  502  0.00000000000E+00  0.00000000000E+00  0.56111136246E+02  0.56111136246E+02  0.00000000000E+00 0. -1.
         21   -1    0    0  501  503 -0.00000000000E+00 -0.00000000000E+00 -0.70056073646E+03  0.70056073646E+03  0.00000000000E+00 0. -1.
          6    2    1    2  501    0  0.42468407529E+02  0.31731879303E+01 -0.48837376142E+03  0.52005788510E+03  0.17360195346E+03 0.  0.
         24    2    3    3    0    0 -0.22697784727E+02  0.49258858995E+02 -0.21182240900E+03  0.23218071994E+03  0.78086677076E+02 0.  0.
         -6    2    1    2    0  502 -0.42468407529E+02 -0.31731879303E+01 -0.15607583879E+03  0.23661398761E+03  0.17266405798E+03 0.  0.
        -24    2    5    5    0    0 -0.86450978432E+02 -0.19713974154E+02 -0.70472050452E+02  0.13884813094E+03  0.80312397062E+02 0.  0.
          5    1    3    3  501    0  0.65166192255E+02 -0.46085671065E+02 -0.27655135243E+03  0.28787716516E+03  0.47000000000E+01 0. -1.
        -11    1    4    4    0    0  0.10030752338E+02  0.12833625903E+02 -0.16419542952E+01  0.16371131915E+02  0.00000000000E+00 0.  1.
         12    1    4    4    0    0 -0.32728537064E+02  0.36425233092E+02 -0.21018045470E+03  0.21580958802E+03  0.00000000000E+00 0. -1.
         -5    1    5    5    0  502  0.43982570904E+02  0.16540786223E+02 -0.85603788335E+02  0.97765856665E+02  0.47000000000E+01 0.  1.
         11    1    6    6    0    0 -0.57548738478E+02 -0.50929329548E+02 -0.49578954622E+02  0.91453412457E+02  0.00000000000E+00 0. -1.
        -12    1    6    6    0    0 -0.28902239954E+02  0.31215355394E+02 -0.20893095830E+02  0.47394718483E+02  0.00000000000E+00 0.  1.
</event>
<event>
12    1  0.8562501E-002  0.2043813E+03  0.7818608E-02  0.1146306E+00
         21   -1    0    0  501  502  0.00000000000E+00  0.00000000000E+00  0.36590322492E+03  0.36590322492E+03  0.00000000000E+00 0.  1.
         21   -1    0    0  502  503 -0.00000000000E+00 -0.00000000000E+00 -0.14230034100E+03  0.14230034100E+03  0.00000000000E+00 0. -1.
         -6    2    1    2    0  503 -0.59513903199E+02  0.91709462554E+02 -0.25656621242E+01  0.20336927614E+03  0.17146413520E+03 0.  0.
        -24    2    3    3    0    0 -0.71071245558E+02  0.96619057018E+01 -0.38075347700E+02  0.11310077933E+03  0.78724709047E+02 0.  0.
          6    2    1    2  501    0  0.59513903199E+02 -0.91709462554E+02  0.22616854605E+03  0.30483428978E+03  0.17268237549E+03 0.  0.
         24    2    5    5    0    0  0.42925350649E+02 -0.12383908007E+03  0.12699126169E+03  0.19916633754E+03  0.79760554032E+02 0.  0.
          5    1    5    5  501    0  0.16588552550E+02  0.32129617521E+02  0.99177284360E+02  0.10566795224E+03  0.47000000000E+01 0. -1.
        -11    1    6    6    0    0 -0.16485181365E+02 -0.42651103798E+02  0.69796174879E+02  0.83440900568E+02  0.00000000000E+00 0.  1.
         12    1    6    6    0    0  0.59410532014E+02 -0.81187976276E+02  0.57195086812E+02  0.11572543697E+03  0.00000000000E+00 0. -1.
         -5    1    3    3    0  503  0.11557342359E+02  0.82047556852E+02  0.35509685576E+02  0.90268496816E+02  0.47000000000E+01 0.  1.
         11    1    4    4    0    0 -0.38347655659E+02 -0.23883633102E+02 -0.47223663742E+02  0.65353232834E+02  0.00000000000E+00 0. -1.
        -12    1    4    4    0    0 -0.32723589899E+02  0.33545538803E+02  0.91483160421E+01  0.47747546491E+02  0.00000000000E+00 0.  1.
</event>
<event>
12    1  0.8562501E-002  0.3890822E+03  0.7818608E-02  0.1047632E+00
         21   -1    0    0  503  502  0.00000000000E+00  0.00000000000E+00  0.46089535394E+03  0.46089535394E+03  0.00000000000E+00 0.  1.
         21   -1    0    0  501  503 -0.00000000000E+00 -0.00000000000E+00 -0.33280628898E+03  0.33280628898E+03  0.00000000000E+00 0. -1.
          6    2    1    2  501    0 -0.32180663341E+03  0.13526862104E+03  0.18423023169E+02  0.38945968118E+03  0.17170418266E+03 0.  0.
         24    2    3    3    0    0 -0.32257193018E+03  0.11302253491E+03 -0.11342469163E+02  0.35199571768E+03  0.83340207117E+02 0.  0.
         -6    2    1    2    0  502  0.32180663341E+03 -0.13526862104E+03  0.10966604180E+03  0.40424196174E+03  0.17183659028E+03 0.  0.
        -24    2    5    5    0    0  0.15789128988E+03 -0.77093924159E+02 -0.81762407079E+01  0.19409575371E+03  0.82055945147E+02 0.  0.
          5    1    3    3  501    0  0.76529677294E+00  0.22246086138E+02  0.29765492332E+02  0.37463963503E+02  0.47000000000E+01 0. -1.
        -11    1    4    4    0    0 -0.24419553845E+03  0.47193446302E+02 -0.18435060465E+02  0.24939633884E+03  0.00000000000E+00 0.  1.
         12    1    4    4    0    0 -0.78376391729E+02  0.65829088603E+02  0.70925913013E+01  0.10259937884E+03  0.00000000000E+00 0. -1.
         -5    1    5    5    0  502  0.16391534353E+03 -0.58174696884E+02  0.11784228251E+03  0.21014620803E+03  0.47000000000E+01 0.  1.
         11    1    6    6    0    0  0.25275760874E+02 -0.48665334024E+02  0.14169667414E+02  0.56638840896E+02  0.00000000000E+00 0. -1.
        -12    1    6    6    0    0  0.13261552901E+03 -0.28428590135E+02 -0.22345908122E+02  0.13745691281E+03  0.00000000000E+00 0.  1.
</event>
<event>
12    1  0.8562501E-002  0.1957684E+03  0.7818608E-02  0.1153486E+00
         21   -1    0    0  501  502  0.00000000000E+00  0.00000000000E+00  0.40913885513E+02  0.40913885513E+02  0.00000000000E+00 0.  1.
         21   -1    0    0  502  503 -0.00000000000E+00 -0.00000000000E+00 -0.10242721146E+04  0.10242721146E+04  0.00000000000E+00 0.  1.
         -6    2    1    2    0  503  0.12581346285E+02 -0.90430728495E+02 -0.33284306560E+03  0.38585157507E+03  0.17251354942E+03 0.  0.
        -24    2    3    3    0    0  0.59080510244E+02 -0.72180933238E+02 -0.30470074478E+03  0.32832499429E+03  0.79083273753E+02 0.  0.
          6    2    1    2  501    0 -0.12581346285E+02  0.90430728495E+02 -0.65051516347E+03  0.67933442503E+03  0.17317412102E+03 0.  0.
         24    2    5    5    0    0 -0.20285875572E+02 -0.12056450201E+01 -0.18620349994E+03  0.20598043950E+03  0.85692635270E+02 0.  0.
          5    1    5    5  501    0  0.77045292878E+01  0.91636373516E+02 -0.46431166353E+03  0.47335398553E+03  0.47000000000E+01 0. -1.
        -13    1    6    6    0    0 -0.40300509370E+02  0.15038971104E+02 -0.17039745099E+03  0.17574297429E+03  0.00000000000E+00 0.  1.
         14    1    6    6    0    0  0.20014633798E+02 -0.16244616124E+02 -0.15806048947E+02  0.30237465211E+02  0.00000000000E+00 0. -1.
         -5    1    3    3    0  503 -0.46499163959E+02 -0.18249795258E+02 -0.28142320819E+02  0.57526580786E+02  0.47000000000E+01 0.  1.
         11    1    4    4    0    0  0.23421894396E+02  0.98414133692E+01 -0.12549141575E+03  0.12803723670E+03  0.00000000000E+00 0. -1.
        -12    1    4    4    0    0  0.35658615847E+02 -0.82022346607E+02 -0.17920932903E+03  0.20028775759E+03  0.00000000000E+00 0.  1.
</event>
<event>
12    1  0.8562501E-002  0.1935015E+03  0.7818608E-02  0.1156292E+00
         21   -1    0    0  503  502  0.00000000000E+00  0.00000000000E+00  0.11592425351E+03  0.11592425351E+03  0.00000000000E+00 0.  1.
         21   -1    0    0  501  503 -0.00000000000E+00 -0.00000000000E+00 -0.36631110583E+03  0.36631110583E+03  0.00000000000E+00 0.  1.
          6    2    1    2  501    0 -0.37775003900E+02 -0.72386174475E+02 -0.36963500824E+02  0.19700034676E+03  0.17543126020E+03 0.  0.
         24    2    3    3    0    0 -0.95094064530E+02 -0.39063366173E+02  0.59572208075E+01  0.11787915737E+03  0.57368803166E+02 0.  0.
         -6    2    1    2    0  502  0.37775003900E+02  0.72386174475E+02 -0.21342335149E+03  0.28523501258E+03  0.17071255450E+03 0.  0.
        -24    2    5    5    0    0  0.72196038616E+02  0.93457828943E+02 -0.13566590250E+03  0.19750170575E+03  0.81578507535E+02 0.  0.
          5    1    3    3  501    0  0.57319060630E+02 -0.33322808302E+02 -0.42920721631E+02  0.79121189386E+02  0.47000000000E+01 0. -1.
        -11    1    4    4    0    0 -0.79302223174E+02 -0.72883780390E+01  0.15510323485E+02  0.81132812040E+02  0.00000000000E+00 0.  1.
         12    1    4    4    0    0 -0.15791841355E+02 -0.31774988134E+02 -0.95531026773E+01  0.36746345329E+02  0.00000000000E+00 0. -1.
         -5    1    5    5    0  502 -0.34421034716E+02 -0.21071654468E+02 -0.77757448992E+02  0.87733306827E+02  0.47000000000E+01 0.  1.
         11    1    6    6    0    0  0.41992827088E+02  0.10024076863E+03 -0.84356934471E+02  0.13757798376E+03  0.00000000000E+00 0. -1.
        -12    1    6    6    0    0  0.30203211529E+02 -0.67829396847E+01 -0.51308968029E+02  0.59923721994E+02  0.00000000000E+00 0.  1.
</event>
<event>
12    1  0.8562501E-002  0.2499603E+03  0.7818608E-02  0.1113356E+00
         21   -1    0    0  501  502  0.00000000000E+00  0.00000000000E+00  0.23110752387E+03  0.23110752387E+03  0.00000000000E+00 0.  1.
         21   -1    0    0  502  503 -0.00000000000E+00 -0.00000000000E+00 -0.13275713305E+04  0.13275713305E+04  0.00000000000E+00 0.  1.
         -6    2    1    2    0  503 -0.13194106511E+03 -0.12518607401E+03 -0.12437272773E+04  0.12685638963E+04  0.17122155541E+03 0.  0.
        -24    2    3    3    0    0 -0.40625130336E+02 -0.53957503346E+02 -0.29948304700E+03  0.31723253154E+03  0.79903505829E+02 0.  0.
          6    2    1    2  501    0  0.13194106511E+03  0.12518607401E+03  0.14726347065E+03  0.29011495804E+03  0.17146475236E+03 0.  0.
         24    2    5    5    0    0  0.12963888734E+03  0.15562623208E+03  0.12955852334E+03  0.25451357597E+03  0.83462471564E+02 0.  0.
          5    1    5    5  501    0  0.23021777745E+01 -0.30440158075E+02  0.17704947307E+02  0.35601382070E+02  0.47000000000E+01 0. -1.
        -11    1    6    6    0    0  0.35055004960E+02 -0.95256827559E+00  0.30553865964E+02  0.46511283409E+02  0.00000000000E+00 0.  1.
         12    1    6    6    0    0  0.94583882378E+02  0.15657880036E+03  0.99004657375E+02  0.20800229256E+03  0.00000000000E+00 0. -1.
         -5    1    3    3    0  503 -0.91315934776E+02 -0.71228570664E+02 -0.94424423027E+03  0.95133136478E+03  0.47000000000E+01 0.  1.
         11    1    4    4    0    0 -0.14036766304E+01 -0.61907946329E+02 -0.21518128910E+03  0.22391416057E+03  0.00000000000E+00 0. -1.
        -12    1    4    4    0    0 -0.39221453706E+02  0.79504429837E+01 -0.84301757898E+02  0.93318370962E+02  0.00000000000E+00 0.  1.
</event>
<event>
12    1  0.8562501E-002  0.2202658E+03  0.7818608E-02  0.1133808E+00
         21   -1    0    0  501  502  0.00000000000E+00  0.00000000000E+00  0.52472425879E+02  0.52472425879E+02  0.00000000000E+00 0. -1.
         21   -1    0    0  502  503 -0.00000000000E+00 -0.00000000000E+00 -0.92805842268E+03  0.92805842268E+03  0.00000000000E+00 0. -1.
         -6    2    1    2    0  503  0.89570973798E+02 -0.10383782116E+03 -0.47726306050E+03  0.52536254066E+03  0.17152410257E+03 0.  0.
        -24    2    3    3    0    0  0.83304352207E+02 -0.15881287665E+02 -0.17521028925E+03  0.21066651439E+03  0.80559943098E+02 0.  0.
          6    2    1    2  501    0 -0.89570973798E+02  0.10383782116E+03 -0.39832293630E+03  0.45516830790E+03  0.17237103724E+03 0.  0.
         24    2    5    5    0    0 -0.79568288043E+01 -0.68212151751E+01 -0.18008407878E+03  0.19718268830E+03  0.79629749681E+02 0.  0.
          5    1    5    5  501    0 -0.81614144993E+02  0.11065903634E+03 -0.21823885752E+03  0.25798561959E+03  0.47000000000E+01 0. -1.
        -11    1    6    6    0    0 -0.13718110339E+02 -0.77069445853E+01  0.12227106064E+01  0.15782223143E+02  0.00000000000E+00 0.  1.
         12    1    6    6    0    0  0.57612815349E+01  0.88572941024E+00 -0.18130678939E+03  0.18140046516E+03  0.00000000000E+00 0. -1.
         -5    1    3    3    0  503  0.62666215908E+01 -0.87956533499E+02 -0.30205277125E+03  0.31469602627E+03  0.47000000000E+01 0.  1.
         11    1    4    4    0    0 -0.55020842402E+00 -0.26116537985E+02 -0.16565830497E+02  0.30932232795E+02  0.00000000000E+00 0. -1.
        -12    1    4    4    0    0  0.83854560631E+02  0.10235250320E+02 -0.15864445875E+03  0.17973428159E+03  0.00000000000E+00 0.  1.
</event>
<event>
12    1  0.8562501E-002  0.2118065E+03  0.7818608E-02  0.1140962E+00
         21   -1    0    0  501  502  0.00000000000E+00  0.00000000000E+00  0.33920362738E+03  0.33920362738E+03  0.00000000000E+00 0. -1.
         21   -1    0    0  502  503 -0.00000000000E+00 -0.00000000000E+00 -0.25421325125E+03  0.25421325125E+03  0.00000000000E+00 0. -1.
         -6    2    1    2    0  503 -0.11504540381E+03 -0.33972153115E+02 -0.16494967965E+03  0.26845925362E+03  0.17456351828E+03 0.  0.
        -24    2    3    3    0    0 -0.11790388140E+03 -0.70795290710E+02 -0.86033959494E+02  0.18120161646E+03  0.80739613480E+02 0.  0.
          6    2    1    2  501    0  0.11504540381E+03  0.33972153115E+02  0.24994005579E+03  0.32495762500E+03  0.16952248947E+03 0.  0.
         24    2    5    5    0    0  0.98851931532E+02  0.84671753798E+02  0.17139354972E+03  0.22996119523E+03  0.81027107614E+02 0.  0.
          5    1    5    5  501    0  0.16193472282E+02 -0.50699600682E+02  0.78546506062E+02  0.94996429767E+02  0.47000000000E+01 0. -1.
        -11    1    6    6    0    0  0.19316990784E+02  0.67036168552E+02  0.60390761621E+02  0.92271545540E+02  0.00000000000E+00 0.  1.
         12    1    6    6    0    0  0.79534940748E+02  0.17635585246E+02  0.11100278810E+03  0.13768964970E+03  0.00000000000E+00 0. -1.
         -5    1    3    3    0  503  0.28584775821E+01  0.36823137595E+02 -0.78915720157E+02  0.87257637169E+02  0.47000000000E+01 0.  1.
         13    1    4    4    0    0 -0.84721085994E+02 -0.90827898774E+01 -0.67555938604E+02  0.10873805371E+03  0.00000000000E+00 0. -1.
        -14    1    4    4    0    0 -0.33182795401E+02 -0.61712500832E+02 -0.18478020890E+02  0.72463562745E+02  0.00000000000E+00 0.  1.
</event>
<event>
12    1  0.8562501E-002  0.1875918E+03  0.7818608E-02  0.1161166E+00
         21   -1    0    0  503  502  0.00000000000E+00  0.00000000000E+00  0.12545112370E+04  0.12545112370E+04  0.00000000000E+00 0.  1.
         21   -1    0    0  501  503 -0.00000000000E+00 -0.00000000000E+00 -0.29516459865E+02  0.29516459865E+02  0.00000000000E+00 0.  1.
          6    2    1    2  501    0  0.46773093659E+02  0.49874784922E+02  0.45062954384E+03  0.48726412325E+03  0.17229081101E+03 0.  0.
         24    2    3    3    0    0 -0.36520589801E+02  0.11066869680E+02  0.27546551679E+03  0.28940453070E+03  0.80109315090E+02 0.  0.
         -6    2    1    2    0  502 -0.46773093659E+02 -0.49874784922E+02  0.77436523326E+03  0.79676357359E+03  0.17468675180E+03 0.  0.
        -24    2    5    5    0    0 -0.48085022403E+02  0.12610335613E+02  0.65642512444E+03  0.66320433312E+03  0.80466474595E+02 0.  0.
          5    1    3    3  501    0  0.83293683460E+02  0.38807915242E+02  0.17516402705E+03  0.19785959255E+03  0.47000000000E+01 0. -1.
        -11    1    4    4    0    0 -0.49435200802E+02  0.30671328649E+02  0.13516477191E+03  0.14715327059E+03  0.00000000000E+00 0.  1.
         12    1    4    4    0    0  0.12914611001E+02 -0.19604458969E+02  0.14030074488E+03  0.14225126011E+03  0.00000000000E+00 0. -1.
         -5    1    5    5    0  502  0.13119287440E+01 -0.62485120535E+02  0.11794010883E+03  0.13355924047E+03  0.47000000000E+01 0.  1.
         11    1    6    6    0    0 -0.77789341971E+01  0.41622502615E+02  0.22683735849E+03  0.23075556710E+03  0.00000000000E+00 0. -1.
        -12    1    6    6    0    0 -0.40306088206E+02 -0.29012167003E+02  0.42958776595E+03  0.43244876603E+03  0.00000000000E+00 0.  1.
</event>
<event>
12    1  0.8562501E-002  0.3406571E+03  0.7818608E-02  0.1066956E+00
         21   -1    0    0  503  502  0.00000000000E+00  0.00000000000E+00  0.60128007602E+02  0.60128007602E+02  0.00000000000E+00 0. -1.
         21   -1    0    0  501  503 -0.00000000000E+00 -0.00000000000E+00 -0.19527140622E+04  0.19527140622E+04  0.00000000000E+00 0. -1.
          6    2    1    2  501    0 -0.13969203572E+03 -0.25261571387E+03 -0.79758024569E+03  0.86728400160E+03  0.18088318710E+03 0.  0.
         24    2    3    3    0    0 -0.64878931776E+02 -0.11783781047E+03 -0.22968062578E+03  0.27881637117E+03  0.83008153871E+02 0.  0.
         -6    2    1    2    0  502  0.13969203572E+03  0.25261571387E+03 -0.10950058089E+04  0.11455580682E+04  0.17302312662E+03 0.  0.
        -24    2    5    5    0    0  0.10786448732E+03  0.75545999350E+02 -0.57464895230E+03  0.59495837254E+03  0.80075595801E+02 0.  0.
          5    1    3    3  501    0 -0.74813103946E+02 -0.13477790340E+03 -0.56789961991E+03  0.58846763042E+03  0.47000000000E+01 0. -1.
        -13    1    4    4    0    0  0.11685672224E+02 -0.11792773905E+02 -0.72288433191E+02  0.74170358129E+02  0.00000000000E+00 0.  1.
         14    1    4    4    0    0 -0.76564604001E+02 -0.10604503657E+03 -0.15739219259E+03  0.20464601304E+03  0.00000000000E+00 0. -1.
         -5    1    5    5    0  502  0.31827548406E+02  0.17706971452E+03 -0.52035685662E+03  0.55059969567E+03  0.47000000000E+01 0.  1.
         11    1    6    6    0    0  0.47045617859E+02  0.61809307246E+02 -0.18961376472E+03  0.20490744348E+03  0.00000000000E+00 0. -1.
        -12    1    6    6    0    0  0.60818869458E+02  0.13736692105E+02 -0.38503518758E+03  0.39005092907E+03  0.00000000000E+00 0.  1.
</event>
<event>
12    1  0.8562501E-002  0.1864373E+03  0.7818608E-02  0.1162756E+00
         21   -1    0    0  503  502  0.00000000000E+00  0.00000000000E+00  0.40277154443E+03  0.40277154443E+03  0.00000000000E+00 0.  1.
         21   -1    0    0  501  503 -0.00000000000E+00 -0.00000000000E+00 -0.86516266955E+02  0.86516266955E+02  0.00000000000E+00 0.  1.
          6    2    1    2  501    0  0.18569071007E+02 -0.55631384965E+02  0.19955867945E+03  0.27309806011E+03  0.17697237779E+03 0.  0.
         24    2    3    3    0    0 -0.48755446571E+02 -0.80858435470E+02  0.10348205448E+03  0.15300725026E+03  0.61542691489E+02 0.  0.
         -6    2    1    2    0  502 -0.18569071007E+02  0.55631384965E+02  0.11669659802E+03  0.21618975128E+03  0.17227957272E+03 0.  0.
        -24    2    5    5    0    0 -0.34912940066E+02 -0.33470975906E+02  0.60848137546E+02  0.10966513766E+03  0.77361017074E+02 0.  0.
          5    1    3    3  501    0  0.67324517578E+02  0.25227050506E+02  0.96076624971E+02  0.12009080985E+03  0.47000000000E+01 0. -1.
        -13    1    4    4    0    0 -0.58681909733E+02 -0.43302651984E+02  0.76614235143E+02  0.10577536209E+03  0.00000000000E+00 0.  1.
         14    1    4    4    0    0  0.99264631620E+01 -0.37555783486E+02  0.26867819338E+02  0.47231888170E+02  0.00000000000E+00 0. -1.
         -5    1    5    5    0  502  0.16343869059E+02  0.89102360871E+02  0.55848460477E+02  0.10652461362E+03  0.47000000000E+01 0.  1.
         13    1    6    6    0    0 -0.43506440985E+02 -0.40735254271E+02  0.72240259980E+02  0.93652690883E+02  0.00000000000E+00 0. -1.
        -14    1    6    6    0    0  0.85935009193E+01  0.72642783649E+01 -0.11392122433E+02  0.16012446776E+02  0.00000000000E+00 0.  1.
</event>
<event>
12    1  0.8562501E-002  0.2375603E+03  0.7818608E-02  0.1121703E+00
         21   -1    0    0  501  502  0.00000000000E+00  0.00000000000E+00  0.51676923116E+02  0.51676923116E+02  0.00000000000E+00 0. -1.
         21   -1    0    0  502  503 -0.00000000000E+00 -0.00000000000E+00 -0.14016000808E+04  0.14016000808E+04  0.00000000000E+00 0.  1.
         -6    2    1    2    0  503  0.14193613386E+03 -0.81650913136E+02 -0.10187169602E+04  0.10456835220E+04  0.16987361650E+03 0.  0.
        -24    2    3    3    0    0  0.30803613214E+02 -0.81644965048E+01 -0.24279707779E+03  0.25839422040E+03  0.82471998667E+02 0.  0.
          6    2    1    2  501    0 -0.14193613386E+03  0.81650913136E+02 -0.33120619753E+03  0.40759348191E+03  0.17211090466E+03 0.  0.
         24    2    5    5    0    0 -0.17122612236E+03  0.84648789909E+02 -0.29637175636E+03  0.36174133928E+03  0.80850330667E+02 0.  0.
          5    1    5    5  501    0  0.29289988503E+02 -0.29978767731E+01 -0.34834441179E+02  0.45852142632E+02  0.47000000000E+01 0. -1.
        -13    1    6    6    0    0 -0.97753857295E+02  0.62238540547E+01 -0.11643910980E+03  0.15215984774E+03  0.00000000000E+00 0.  1.
         14    1    6    6    0    0 -0.73472265064E+02  0.78424935855E+02 -0.17993264656E+03  0.20958149154E+03  0.00000000000E+00 0. -1.
         -5    1    3    3    0  503  0.11113252064E+03 -0.73486416631E+02 -0.77591988239E+03  0.78728930163E+03  0.47000000000E+01 0.  1.
         13    1    4    4    0    0 -0.14502035135E+02 -0.33496698086E+02 -0.10180128089E+03  0.10814730046E+03  0.00000000000E+00 0. -1.
        -14    1    4    4    0    0  0.45305648349E+02  0.25332201581E+02 -0.14099579690E+03  0.15024691994E+03  0.00000000000E+00 0.  1.
</event>
<event>
12    1  0.8562501E-002  0.1918493E+03  0.7818608E-02  0.1157038E+00
         21   -1    0    0  501  502  0.00000000000E+00  0.00000000000E+00  0.23020132306E+03  0.23020132306E+03  0.00000000000E+00 0. -1.
         21   -1    0    0  502  503 -0.00000000000E+00 -0.00000000000E+00 -0.20290787471E+03  0.20290787471E+03  0.00000000000E+00 0. -1.
         -6    2    1    2    0  503 -0.60815296566E+02 -0.55029142179E+02 -0.87043066958E+02  0.21067193729E+03  0.17343431861E+03 0.  0.
        -24    2    3    3    0    0 -0.76289328343E+02 -0.34663659932E+02 -0.12493972269E+03  0.16471059438E+03  0.67067239802E+02 0.  0.
          6    2    1    2  501    0  0.60815296566E+02  0.55029142179E+02  0.11433651531E+03  0.22243726049E+03  0.17227533003E+03 0.  0.
         24    2    5    5    0    0  0.10440920532E+03  0.47871345122E+02  0.85206394223E+02  0.16931177796E+03  0.90627814160E+02 0.  0.
          5    1    5    5  501    0 -0.43593908759E+02  0.71577970571E+01  0.29130121084E+02  0.53125482529E+02  0.47000000000E+01 0. -1.
        -11    1    6    6    0    0  0.24530191057E+02 -0.25941756337E+02  0.33208314857E+02  0.48759585425E+02  0.00000000000E+00 0.  1.
         12    1    6    6    0    0  0.79879014268E+02  0.73813101460E+02  0.51998079367E+02  0.12055219254E+03  0.00000000000E+00 0. -1.
         -5    1    3    3    0  503  0.15474031777E+02 -0.20365482247E+02  0.37896655733E+02  0.45961342913E+02  0.47000000000E+01 0.  1.
         11    1    4    4    0    0 -0.62099175978E+02 -0.36098534677E+02 -0.47838769939E+02  0.86301562977E+02  0.00000000000E+00 0. -1.
        -12    1    4    4    0    0 -0.14190152365E+02  0.14348747446E+01 -0.77100952752E+02  0.78409031399E+02  0.00000000000E+00 0.  1.
</event>
<event>
12    1  0.8562501E-002  0.2298418E+03  0.7818608E-02  0.1126768E+00
         21   -1    0    0  503  502  0.00000000000E+00  0.00000000000E+00  0.23554975191E+03  0.23554975191E+03  0.00000000000E+00 0.  1.
         21   -1    0    0  501  503 -0.00000000000E+00 -0.00000000000E+00 -0.23383421416E+03  0.23383421416E+03  0.00000000000E+00 0. -1.
          6    2    1    2  501    0  0.15212604300E+03 -0.52135936190E+01 -0.46831966656E+02  0.23456450423E+03  0.17221428229E+03 0.  0.
         24    2    3    3    0    0  0.94796447872E+02  0.60840167795E+02 -0.81250780366E+01  0.13880389071E+03  0.80700747440E+02 0.  0.
         -6    2    1    2    0  502 -0.15212604300E+03  0.52135936190E+01  0.48547504409E+02  0.23481946184E+03  0.17208662050E+03 0.  0.
        -24    2    5    5    0    0 -0.83819593969E+02 -0.21377817540E+02 -0.36667291774E+02  0.12231823689E+03  0.78323210949E+02 0.  0.
          5    1    3    3  501    0  0.57329595128E+02 -0.66053761414E+02 -0.38706888619E+02  0.95760613517E+02  0.47000000000E+01 0. -1.
        -11    1    4    4    0    0  0.35386410141E+02 -0.24766921990E+01  0.27570810959E+02  0.44927515442E+02  0.00000000000E+00 0.  1.
         12    1    4    4    0    0  0.59410037732E+02  0.63316859994E+02 -0.35695888995E+02  0.93876375271E+02  0.00000000000E+00 0. -1.
         -5    1    5    5    0  502 -0.68306449031E+02  0.26591411159E+02  0.85214796183E+02  0.11250122495E+03  0.47000000000E+01 0.  1.
         11    1    6    6    0    0  0.86465101743E+01 -0.22499576002E+02 -0.98152379537E+01  0.26025601905E+02  0.00000000000E+00 0. -1.
        -12    1    6    6    0    0 -0.92466104143E+02  0.11217584615E+01 -0.26852053820E+02  0.96292634983E+02  0.00000000000E+00 0.  1.
</event>
<event>
12    1  0.8562501E-002  0.2578288E+03  0.7818608E-02  0.1108490E+00
         21   -1    0    0  501  502  0.00000000000E+00  0.00000000000E+00  0.91684317199E+02  0.91684317199E+02  0.00000000000E+00 0.  1.
         21   -1    0    0  502  503 -0.00000000000E+00 -0.00000000000E+00 -0.87125955236E+03  0.87125955236E+03  0.00000000000E+00 0. -1.
         -6    2    1    2    0  503 -0.66136532092E+02  0.18062662623E+03 -0.19196959875E+03  0.32126165015E+03  0.17133797604E+03 0.  0.
        -24    2    3    3    0    0 -0.59108498303E+02  0.11634622575E+03 -0.45169284519E+02  0.16078179035E+03  0.82342340410E+02 0.  0.
          6    2    1    2  501    0  0.66136532092E+02 -0.18062662623E+03 -0.58760563641E+03  0.64168221941E+03  0.17168479195E+03 0.  0.
         24    2    5    5    0    0  0.32376720064E+01 -0.91057577671E+02 -0.16335036885E+03  0.20351158699E+03  0.80197618828E+02 0.  0.
          5    1    5    5  501    0  0.62898860086E+02 -0.89569048557E+02 -0.42425526756E+03  0.43817063242E+03  0.47000000000E+01 0. -1.
        -13    1    6    6    0    0 -0.12651191135E+02 -0.17127432345E+02 -0.10728152600E+03  0.10937425381E+03  0.00000000000E+00 0.  1.
         14    1    6    6    0    0  0.15888863141E+02 -0.73930145326E+02 -0.56068842847E+02  0.94137333179E+02  0.00000000000E+00 0. -1.
         -5    1    3    3    0  503 -0.70280337899E+01  0.64280400474E+02 -0.14680031423E+03  0.16047985980E+03  0.47000000000E+01 0.  1.
         13    1    4    4    0    0 -0.12060710286E+02 -0.93273170026E+01  0.70377286510E+01  0.16792534044E+02  0.00000000000E+00 0. -1.
        -14    1    4    4    0    0 -0.47047788016E+02  0.12567354276E+03 -0.52207013170E+02  0.14398925630E+03  0.00000000000E+00 0.  1.
</event>
<event>
12    1  0.8562501E-002  0.2338131E+03  0.7818608E-02  0.1124155E+00
         21   -1    0    0  503  502  0.00000000000E+00  0.00000000000E+00  0.97949442648E+03  0.97949442648E+03  0.00000000000E+00 0. -1.
         21   -1    0    0  501  503 -0.00000000000E+00 -0.00000000000E+00 -0.80995392915E+02  0.80995392915E+02  0.00000000000E+00 0.  1.
          6    2    1    2  501    0  0.13291950798E+03  0.84218070396E+02  0.15155488512E+03  0.27780590569E+03  0.17160116273E+03 0.  0.
         24    2    3    3    0    0  0.53237505682E+01  0.64755922819E+02  0.77831296748E+02  0.12908902709E+03  0.79903656368E+02 0.  0.
         -6    2    1    2    0  502 -0.13291950798E+03 -0.84218070396E+02  0.74694414844E+03  0.78268391370E+03  0.17294007313E+03 0.  0.
        -24    2    5    5    0    0 -0.58075842108E+02 -0.53041438129E+02  0.63184889262E+03  0.64182027527E+03  0.80709634141E+02 0.  0.
          5    1    3    3  501    0  0.12759575741E+03  0.19462147577E+02  0.73723588374E+02  0.14871687860E+03  0.47000000000E+01 0. -1.
        -13    1    4    4    0    0 -0.99551468314E+01 -0.13262125821E+02 -0.16593633142E+01  0.16665605790E+02  0.00000000000E+00 0.  1.
         14    1    4    4    0    0  0.15278897400E+02  0.78018048640E+02  0.79490660063E+02  0.11242342130E+03  0.00000000000E+00 0. -1.
         -5    1    5    5    0  502 -0.74843665874E+02 -0.31176632267E+02  0.11509525582E+03  0.14086363844E+03  0.47000000000E+01 0.  1.
         11    1    6    6    0    0 -0.74222924941E+02 -0.41293635917E+02  0.38966274488E+03  0.39881231388E+03  0.00000000000E+00 0. -1.
        -12    1    6    6    0    0  0.16147082833E+02 -0.11747802212E+02  0.24218614774E+03  0.24300796139E+03  0.00000000000E+00 0.  1.
</event>
<event>
12    1  0.8562501E-002  0.2056138E+03  0.7818608E-02  0.1145323E+00
         21   -1    0    0  501  502  0.00000000000E+00  0.00000000000E+00  0.18501560092E+03  0.18501560092E+03  0.00000000000E+00 0. -1.
         21   -1    0    0  502  503 -0.00000000000E+00 -0.00000000000E+00 -0.36837333822E+03  0.36837333822E+03  0.00000000000E+00 0. -1.
         -6    2    1    2    0  503 -0.92388505359E+02  0.62340153384E+02 -0.26311202139E+03  0.33392358752E+03  0.17278627219E+03 0.  0.
        -24    2    3    3    0    0 -0.41430712902E+01 -0.13883332012E+01 -0.17917369208E+03  0.19638701143E+03  0.80284206513E+02 0.  0.
          6    2    1    2  501    0  0.92388505359E+02 -0.62340153384E+02  0.79754284084E+02  0.21946535163E+03  0.17141284692E+03 0.  0.
         24    2    5    5    0    0  0.12704436460E+03 -0.73255004226E+02  0.70038501731E+02  0.18156219905E+03  0.80949825076E+02 0.  0.
          5    1    5    5  501    0 -0.34655859237E+02  0.10914850842E+02  0.97157823529E+01  0.37903152575E+02  0.47000000000E+01 0. -1.
        -11    1    6    6    0    0  0.23863386492E+02 -0.25947938846E+02  0.57387530457E+02  0.67350466941E+02  0.00000000000E+00 0.  1.
         12    1    6    6    0    0  0.10318097810E+03 -0.47307065381E+02  0.12650971274E+02  0.11421173211E+03  0.00000000000E+00 0. -1.
         -5    1    3    3    0  503 -0.88245434069E+02  0.63728486585E+02 -0.83938329307E+02  0.13753657609E+03  0.47000000000E+01 0.  1.
         11    1    4    4    0    0 -0.37393409712E+02  0.11836466934E+02 -0.57823295136E+02  0.69870612561E+02  0.00000000000E+00 0. -1.
        -12    1    4    4    0    0  0.33250338422E+02 -0.13224800135E+02 -0.12135039694E+03  0.12651639887E+03  0.00000000000E+00 0.  1.
</event>
<event>
12    1  0.8562501E-002  0.2190522E+03  0.7818608E-02  0.1134902E+00
         21   -1    0    0  501  502  0.00000000000E+00  0.00000000000E+00  0.33628801625E+02  0.33628801625E+02  0.00000000000E+00 0.  1.
         21   -1    0    0  502  503 -0.00000000000E+00 -0.00000000000E+00 -0.31286873029E+04  0.31286873029E+04  0.00000000000E+00 0. -1.
         -6    2    1    2    0  503  0.10469758199E+03 -0.79579083207E+02 -0.27199755999E+04  0.27287819835E+04  0.17518400374E+03 0.  0.
        -24    2    3    3    0    0  0.47850223689E+02  0.23378351103E+02 -0.14713202366E+04  0.14745913434E+04  0.82463325980E+02 0.  0.
          6    2    1    2  501    0 -0.10469758199E+03  0.79579083207E+02 -0.37508290134E+03  0.43353412100E+03  0.17311914118E+03 0.  0.
         24    2    5    5    0    0 -0.89729715893E+02  0.44317584020E+02 -0.12523847130E+03  0.18072640838E+03  0.83437939967E+02 0.  0.
          5    1    5    5  501    0 -0.14967866094E+02  0.35261499186E+02 -0.24984443004E+03  0.25280771262E+03  0.47000000000E+01 0. -1.
        -13    1    6    6    0    0 -0.69235960553E+02  0.56740033374E+02 -0.12843200670E+03  0.15654976833E+03  0.00000000000E+00 0.  1.
         14    1    6    6    0    0 -0.20493755339E+02 -0.12422449353E+02  0.31935353955E+01  0.24176640051E+02  0.00000000000E+00 0. -1.
         -5    1    3    3    0  503  0.56847358297E+02 -0.10295743431E+03 -0.12486553633E+04  0.12541906401E+04  0.47000000000E+01 0.  1.
         13    1    4    4    0    0  0.64351053966E+02  0.25849261168E+02 -0.78192547313E+03  0.78499470571E+03  0.00000000000E+00 0. -1.
        -14    1    4    4    0    0 -0.16500830277E+02 -0.24709100651E+01 -0.68939476347E+03  0.68959663768E+03  0.00000000000E+00 0.  1.
</event>
<event>
12    1  0.8562501E-002  0.1971344E+03  0.7818608E-02  0.1152186E+00
         21   -1    0    0  503  502  0.00000000000E+00  0.00000000000E+00  0.24704923030E+03  0.24704923030E+03  0.00000000000E+00 0.  1.
         21   -1    0    0  501  503 -0.00000000000E+00 -0.00000000000E+00 -0.20681955240E+03  0.20681955240E+03  0.00000000000E+00 0.  1.
          6    2    1    2  501    0  0.92946316421E+02 -0.23034556935E+02 -0.90947889361E+02  0.21710252353E+03  0.17231476604E+03 0.  0.
         24    2    3    3    0    0  0.17041785543E+02 -0.79866239289E+02 -0.50047238174E+02  0.11372800445E+03  0.61321238692E+02 0.  0.
         -6    2    1    2    0  502 -0.92946316421E+02  0.23034556935E+02  0.13117756725E+03  0.23676625918E+03  0.17228203268E+03 0.  0.
        -24    2    5    5    0    0 -0.38501421323E+02  0.53674628807E+01  0.15178262791E+03  0.17574961113E+03  0.79616521990E+02 0.  0.
          5    1    3    3  501    0  0.75904530878E+02  0.56831682354E+02 -0.40900651187E+02  0.10337451908E+03  0.47000000000E+01 0. -1.
        -11    1    4    4    0    0  0.35008505137E+02 -0.47934273795E+02 -0.49170410180E+02  0.77078007716E+02  0.00000000000E+00 0.  1.
         12    1    4    4    0    0 -0.17966719594E+02 -0.31931965495E+02 -0.87682799307E+00  0.36649996735E+02  0.00000000000E+00 0. -1.
         -5    1    5    5    0  502 -0.54444895098E+02  0.17667094054E+02 -0.20605060656E+02  0.61016648050E+02  0.47000000000E+01 0.  1.
         13    1    6    6    0    0  0.86765427124E+01  0.17459725622E+02  0.36753379344E+01  0.19840174424E+02  0.00000000000E+00 0. -1.
        -14    1    6    6    0    0 -0.47177964035E+02 -0.12092262741E+02  0.14810728998E+03  0.15590943670E+03  0.00000000000E+00 0.  1.
</event>
<event>
12    1  0.8562501E-002  0.1754766E+03  0.7818608E-02  0.1172274E+00
         21   -1    0    0  501  502  0.00000000000E+00  0.00000000000E+00  0.36158342857E+03  0.36158342857E+03  0.00000000000E+00 0. -1.
         21   -1    0    0  502  503 -0.00000000000E+00 -0.00000000000E+00 -0.10245820260E+03  0.10245820260E+03  0.00000000000E+00 0. -1.
         -6    2    1    2    0  503 -0.29104597894E+02  0.12266393906E+02  0.34143687168E+02  0.17876749731E+03  0.17261078959E+03 0.  0.
        -24    2    3    3    0    0  0.27274877518E+02 -0.32661572431E+02  0.53148451095E+02  0.10406516496E+03  0.78702626685E+02 0.  0.
          6    2    1    2  501    0  0.29104597894E+02 -0.12266393906E+02  0.22498153880E+03  0.28527413386E+03  0.17253143659E+03 0.  0.
         24    2    5    5    0    0 -0.20059818604E+02  0.26380426878E+02  0.51197601134E+02  0.10052115392E+03  0.79906099760E+02 0.  0.
          5    1    5    5  501    0  0.49164416498E+02 -0.38646820785E+02  0.17378393766E+03  0.18475297994E+03  0.47000000000E+01 0. -1.
        -11    1    6    6    0    0 -0.33597754732E+02 -0.15938447928E+02  0.69789564936E+01  0.37835817410E+02  0.00000000000E+00 0.  1.
         12    1    6    6    0    0  0.13537936128E+02  0.42318874806E+02  0.44218644640E+02  0.62685336509E+02  0.00000000000E+00 0. -1.
         -5    1    3    3    0  503 -0.56379475412E+02  0.44927966337E+02 -0.19004763927E+02  0.74702332352E+02  0.47000000000E+01 0.  1.
         11    1    4    4    0    0  0.16334915256E+02 -0.18940838967E+02 -0.17980223042E+02  0.30803786420E+02  0.00000000000E+00 0. -1.
        -12    1    4    4    0    0  0.10939962262E+02 -0.13720733464E+02  0.71128674137E+02  0.73261378540E+02  0.00000000000E+00 0.  1.
</event>
<event>
12    1  0.8562501E-002  0.2532353E+03  0.7818608E-02  0.1111409E+00
         21   -1    0    0  503  502  0.00000000000E+00  0.00000000000E+00  0.71338483716E+03  0.71338483716E+03  0.00000000000E+00 0.  1.
         21   -1    0    0  501  503 -0.00000000000E+00 -0.00000000000E+00 -0.54935130464E+03  0.54935130464E+03  0.00000000000E+00 0. -1.
          6    2    1    2  501    0 -0.15257856430E+03  0.10498892247E+03 -0.49555476168E+03  0.55650934391E+03  0.17269984339E+03 0.  0.
         24    2    3    3    0    0 -0.25411383292E+02 -0.47434389854E+01 -0.12544487618E+03  0.15004150948E+03  0.78152408754E+02 0.  0.
         -6    2    1    2    0  502  0.15257856430E+03 -0.10498892247E+03  0.65958829420E+03  0.70622679790E+03  0.17145460068E+03 0.  0.
        -24    2    5    5    0    0  0.82766581197E+02 -0.11029716457E+03  0.29914919899E+03  0.33902069531E+03  0.80181151889E+02 0.  0.
          5    1    3    3  501    0 -0.12716718101E+03  0.10973236145E+03 -0.37010988550E+03  0.40646783443E+03  0.47000000000E+01 0. -1.
        -13    1    4    4    0    0 -0.70383064618E+01  0.16167572482E+02  0.36268706782E+01  0.18002287319E+02  0.00000000000E+00 0.  1.
         14    1    4    4    0    0 -0.18373076830E+02 -0.20911011467E+02 -0.12907174686E+03  0.13203922216E+03  0.00000000000E+00 0. -1.
         -5    1    5    5    0  502  0.69811983107E+02  0.53082421006E+01  0.36043909521E+03  0.36720610259E+03  0.47000000000E+01 0.  1.
         13    1    6    6    0    0  0.14467636323E+02 -0.33709580503E+02  0.20380368593E+02  0.41964362767E+02  0.00000000000E+00 0. -1.
        -14    1    6    6    0    0  0.68298944874E+02 -0.76587584066E+02  0.27876883040E+03  0.29705633254E+03  0.00000000000E+00 0.  1.
</event>
<event>
12    1  0.8562501E-002  0.2005069E+03  0.7818608E-02  0.1152282E+00
         21   -1    0    0  503  502  0.00000000000E+00  0.00000000000E+00  0.49323451717E+02  0.49323451717E+02  0.00000000000E+00 0.  1.
         21   -1    0    0  501  503 -0.00000000000E+00 -0.00000000000E+00 -0.89411578493E+03  0.89411578493E+03  0.00000000000E+00 0.  1.
          6    2    1    2  501    0 -0.76383287103E+02 -0.83536918947E+01 -0.22766957968E+03  0.29456056763E+03  0.17037693439E+03 0.  0.
         24    2    3    3    0    0  0.74656246465E+01  0.28326289548E+02 -0.62143450808E+02  0.10535948311E+03  0.79879271234E+02 0.  0.
         -6    2    1    2    0  502  0.76383287103E+02  0.83536918947E+01 -0.61712275353E+03  0.64887866902E+03  0.18519946941E+03 0.  0.
        -24    2    5    5    0    0  0.25985358276E+02 -0.56098034144E+02 -0.19500792309E+03  0.21888216171E+03  0.77840107714E+02 0.  0.
          5    1    3    3  501    0 -0.83848911750E+02 -0.36679981443E+02 -0.16552612888E+03  0.18920108451E+03  0.47000000000E+01 0. -1.
        -11    1    4    4    0    0 -0.32313358028E+02  0.31453938724E+02 -0.30615316739E+02  0.54505054695E+02  0.00000000000E+00 0.  1.
         12    1    4    4    0    0  0.39778982674E+02 -0.31276491762E+01 -0.31528134069E+02  0.50854428419E+02  0.00000000000E+00 0. -1.
         -5    1    5    5    0  502  0.50397928828E+02  0.64451726039E+02 -0.42211483044E+03  0.42999650731E+03  0.47000000000E+01 0.  1.
         13    1    6    6    0    0 -0.25669518386E+02 -0.25065407231E+02 -0.47395442295E+02  0.59443475371E+02  0.00000000000E+00 0. -1.
        -14    1    6    6    0    0  0.51654876662E+02 -0.31032626913E+02 -0.14761248079E+03  0.15943868634E+03  0.00000000000E+00 0.  1.
</event>
<event>
12    1  0.8562501E-002  0.2927056E+03  0.7818608E-02  0.1088976E+00
         21   -1    0    0  501  502  0.00000000000E+00  0.00000000000E+00  0.59239598820E+03  0.59239598820E+03  0.00000000000E+00 0. -1.
         21   -1    0    0  502  503 -0.00000000000E+00 -0.00000000000E+00 -0.16800787260E+03  0.16800787260E+03  0.00000000000E+00 0.  1.
         -6    2    1    2    0  503  0.23629508233E+03 -0.16802382307E+02  0.69924917740E+02  0.30070753759E+03  0.17151630550E+03 0.  0.
        -24    2    3    3    0    0  0.10257745454E+03 -0.55425806894E+02  0.77196657284E+02  0.16125453078E+03  0.80309062705E+02 0.  0.
          6    2    1    2  501    0 -0.23629508233E+03  0.16802382307E+02  0.35446319786E+03  0.45969632321E+03  0.17192691746E+03 0.  0.
         24    2    5    5    0    0 -0.24008560809E+03 -0.37434092683E+01  0.26003346931E+03  0.36286884120E+03  0.80007989776E+02 0.  0.
          5    1    5    5  501    0  0.37905257579E+01  0.20545791575E+02  0.94429728556E+02  0.96827482009E+02  0.47000000000E+01 0. -1.
        -13    1    6    6    0    0 -0.21941981642E+03 -0.13299710861E+02  0.25950378493E+03  0.34009432888E+03  0.00000000000E+00 0.  1.
         14    1    6    6    0    0 -0.20665791677E+02  0.95563015930E+01  0.52968437650E+00  0.22774512317E+02  0.00000000000E+00 0. -1.
         -5    1    3    3    0  503  0.13371762780E+03  0.38623424587E+02 -0.72717395446E+01  0.13945300680E+03  0.47000000000E+01 0.  1.
         11    1    4    4    0    0  0.85984565510E+02 -0.53973012061E+02  0.22373229512E+02  0.10395668779E+03  0.00000000000E+00 0. -1.
        -12    1    4    4    0    0  0.16592889027E+02 -0.14527948329E+01  0.54823427772E+02  0.57297842994E+02  0.00000000000E+00 0.  1.
</event>
<event>
12    1  0.8562501E-002  0.2059728E+03  0.7818608E-02  0.1144842E+00
         21   -1    0    0  501  502  0.00000000000E+00  0.00000000000E+00  0.55212951711E+03  0.55212951711E+03  0.00000000000E+00 0.  1.
         21   -1    0    0  502  503 -0.00000000000E+00 -0.00000000000E+00 -0.66545263204E+03  0.66545263204E+03  0.00000000000E+00 0.  1.
         -6    2    1    2    0  503 -0.88797782864E+02 -0.69920685535E+02 -0.62927217836E+03  0.66212404962E+03  0.17219417562E+03 0.  0.
        -24    2    3    3    0    0 -0.50635875668E+02  0.52572498413E+01 -0.15120028643E+03  0.17665224098E+03  0.75847590906E+02 0.  0.
          6    2    1    2  501    0  0.88797782864E+02  0.69920685535E+02  0.51594906343E+03  0.55545809954E+03  0.17191950378E+03 0.  0.
         24    2    5    5    0    0  0.44537397103E+02 -0.12677652407E+02  0.37454243388E+03  0.38575426323E+03  0.79874991125E+02 0.  0.
          5    1    5    5  501    0  0.44260385761E+02  0.82598337941E+02  0.14140662955E+03  0.16970383631E+03  0.47000000000E+01 0. -1.
        -11    1    6    6    0    0  0.44751895832E+02  0.16986670628E+02  0.32094503870E+03  0.32449498767E+03  0.00000000000E+00 0.  1.
         12    1    6    6    0    0 -0.21449872945E+00 -0.29664323035E+02  0.53597395186E+02  0.61259275556E+02  0.00000000000E+00 0. -1.
         -5    1    3    3    0  503 -0.38161907195E+02 -0.75177935376E+02 -0.47807189193E+03  0.48547180864E+03  0.47000000000E+01 0.  1.
         11    1    4    4    0    0  0.16079955510E+02  0.19478967088E+01 -0.68319337373E+01  0.17579379665E+02  0.00000000000E+00 0. -1.
        -12    1    4    4    0    0 -0.66715831179E+02  0.33093531326E+01 -0.14436835269E+03  0.15907286132E+03  0.00000000000E+00 0.  1.
</event>
<event>
12    1  0.8562501E-002  0.1839734E+03  0.7818608E-02  0.1164348E+00
         21   -1    0    0  503  502  0.00000000000E+00  0.00000000000E+00  0.47402841222E+02  0.47402841222E+02  0.00000000000E+00 0.  1.
         21   -1    0    0  501  503 -0.00000000000E+00 -0.00000000000E+00 -0.10687263570E+04  0.10687263570E+04  0.00000000000E+00 0.  1.
          6    2    1    2  501    0 -0.57685203941E+02 -0.22071299774E+02 -0.83597177592E+03  0.85597606958E+03  0.17329597957E+03 0.  0.
         24    2    3    3    0    0 -0.41503365682E+02 -0.47779347931E+02 -0.25745997077E+03  0.27664822257E+03  0.79013967427E+02 0.  0.
         -6    2    1    2    0  502  0.57685203941E+02  0.22071299774E+02 -0.18535173989E+03  0.26015312868E+03  0.17178375316E+03 0.  0.
        -24    2    5    5    0    0 -0.13498687223E+02  0.31686554823E+02 -0.16155549629E+03  0.18433788812E+03  0.81817029416E+02 0.  0.
          5    1    3    3  501    0 -0.16181838259E+02  0.25708048157E+02 -0.57851180515E+03  0.57932784702E+03  0.47000000000E+01 0. -1.
        -11    1    4    4    0    0 -0.23514190119E+02 -0.82082135132E+01 -0.21306649113E+03  0.21451718241E+03  0.00000000000E+00 0.  1.
         12    1    4    4    0    0 -0.17989175564E+02 -0.39571134418E+02 -0.44393479641E+02  0.62131040159E+02  0.00000000000E+00 0. -1.
         -5    1    5    5    0  502  0.71183891164E+02 -0.96152550490E+01 -0.23796243608E+02  0.75815240558E+02  0.47000000000E+01 0.  1.
         11    1    6    6    0    0  0.16609202150E+01 -0.25763251804E+02 -0.75266826913E+02  0.79571345553E+02  0.00000000000E+00 0. -1.
        -12    1    6    6    0    0 -0.15159607438E+02  0.57449806627E+02 -0.86288669372E+02  0.10476654257E+03  0.00000000000E+00 0.  1.
</event>
<event>
12    1  0.8562501E-002  0.1884562E+03  0.7818608E-02  0.1160005E+00
         21   -1    0    0  501  502  0.00000000000E+00  0.00000000000E+00  0.58328130031E+02  0.58328130031E+02  0.00000000000E+00 0. -1.
         21   -1    0    0  502  503 -0.00000000000E+00 -0.00000000000E+00 -0.63260351141E+03  0.63260351141E+03  0.00000000000E+00 0.  1.
         -6    2    1    2    0  503 -0.23358127544E+02 -0.73701507810E+02 -0.35635890325E+03  0.40282865410E+03  0.17117751680E+03 0.  0.
        -24    2    3    3    0    0 -0.71491661164E+02 -0.52450004924E+02 -0.31270292366E+03  0.33429838350E+03  0.78167960919E+02 0.  0.
          6    2    1    2  501    0  0.23358127544E+02  0.73701507810E+02 -0.21791647813E+03  0.28810298735E+03  0.17186688309E+03 0.  0.
         24    2    5    5    0    0  0.57835540614E+01  0.94116698509E+02 -0.22764133101E+03  0.25908043735E+03  0.80066815853E+02 0.  0.
          5    1    5    5  501    0  0.17574573483E+02 -0.20415190699E+02  0.97248528808E+01  0.29022549990E+02  0.47000000000E+01 0. -1.
        -11    1    6    6    0    0 -0.18411460928E+02  0.12200717259E+02 -0.11823687645E+03  0.12028216139E+03  0.00000000000E+00 0.  1.
         12    1    6    6    0    0  0.24195014990E+02  0.81915981251E+02 -0.10940445456E+03  0.13879827597E+03  0.00000000000E+00 0. -1.
         -5    1    3    3    0  503  0.48133533620E+02 -0.21251502886E+02 -0.43655979592E+02  0.68530270595E+02  0.47000000000E+01 0.  1.
         11    1    4    4    0    0 -0.14771252777E+02  0.18534399902E+02 -0.36373733422E+02  0.43413849995E+02  0.00000000000E+00 0. -1.
        -12    1    4    4    0    0 -0.56720408387E+02 -0.70984404826E+02 -0.27632919024E+03  0.29088453351E+03  0.00000000000E+00 0.  1.
</event>
<event>
12    1  0.8562501E-002  0.1844788E+03  0.7818608E-02  0.1164176E+00
         21   -1    0    0  501  502  0.00000000000E+00  0.00000000000E+00  0.56117043990E+03  0.56117043990E+03  0.00000000000E+00 0. -1.
         21   -1    0    0  502  503 -0.00000000000E+00 -0.00000000000E+00 -0.10610413649E+03  0.10610413649E+03  0.00000000000E+00 0. -1.
         -6    2    1    2    0  503  0.73168597824E+01  0.57352465786E+02  0.79846568184E+01  0.18465155273E+03  0.17518447252E+03 0.  0.
        -24    2    3    3    0    0  0.62960636067E+02  0.11517943138E+02  0.33817427034E+02  0.10792831425E+03  0.80051220709E+02 0.  0.
          6    2    1    2  501    0 -0.73168597824E+01 -0.57352465786E+02  0.44708164659E+03  0.48262302367E+03  0.17233729281E+03 0.  0.
         24    2    5    5    0    0 -0.23445089568E+02 -0.12372369050E+02  0.10517451849E+03  0.13736094475E+03  0.84282869323E+02 0.  0.
          5    1    5    5  501    0  0.16128229786E+02 -0.44980096735E+02  0.34190712810E+03  0.34526207893E+03  0.47000000000E+01 0. -1.
        -11    1    6    6    0    0  0.31688666064E+02 -0.14662079750E-01  0.41850160320E+02  0.52493882413E+02  0.00000000000E+00 0.  1.
         12    1    6    6    0    0 -0.55133755632E+02 -0.12357706970E+02  0.63324358168E+02  0.84867062333E+02  0.00000000000E+00 0. -1.
         -5    1    3    3    0  503 -0.55643776285E+02  0.45834522648E+02 -0.25832770216E+02  0.76723238478E+02  0.47000000000E+01 0.  1.
         13    1    4    4    0    0  0.13139406807E+01 -0.20346387834E+02 -0.13033493214E+02  0.24198633916E+02  0.00000000000E+00 0. -1.
        -14    1    4    4    0    0  0.61646695386E+02  0.31864330972E+02  0.46850920249E+02  0.83729680332E+02  0.00000000000E+00 0.  1.
</event>
<event>
12    1  0.8562501E-002  0.2081718E+03  0.7818608E-02  0.1143133E+00
         21   -1    0    0  503  502  0.00000000000E+00  0.00000000000E+00  0.12556758854E+03  0.12556758854E+03  0.00000000000E+00 0. -1.
         21   -1    0    0  501  503 -0.00000000000E+00 -0.00000000000E+00 -0.35241099001E+03  0.35241099001E+03  0.00000000000E+00 0. -1.
          6    2    1    2  501    0  0.10345071424E+03  0.53267624698E+02 -0.15004364236E+03  0.25660983468E+03  0.17261524419E+03 0.  0.
         24    2    3    3    0    0  0.72725639768E+02  0.10264470920E+03 -0.93140282186E+02  0.17511008577E+03  0.78507801941E+02 0.  0.
         -6    2    1    2    0  502 -0.10345071424E+03 -0.53267624698E+02 -0.76799759109E+02  0.22136874387E+03  0.17194890998E+03 0.  0.
        -24    2    5    5    0    0 -0.94978662253E+02  0.26401685746E+02 -0.41739024608E+02  0.13378838194E+03  0.80244561641E+02 0.  0.
          5    1    3    3  501    0  0.30725074470E+02 -0.49377084498E+02 -0.56903360170E+02  0.81499748916E+02  0.47000000000E+01 0. -1.
        -11    1    4    4    0    0  0.74797964825E+02  0.51297594524E+02 -0.34247405105E+02  0.96948767410E+02  0.00000000000E+00 0.  1.
         12    1    4    4    0    0 -0.20723250566E+01  0.51347114672E+02 -0.58892877081E+02  0.78161318356E+02  0.00000000000E+00 0. -1.
         -5    1    5    5    0  502 -0.84720519859E+01 -0.79669310444E+02 -0.35060734501E+02  0.87580361927E+02  0.47000000000E+01 0.  1.
         11    1    6    6    0    0 -0.91675451837E+02 -0.82267485042E+01 -0.26277369619E+02  0.95721303870E+02  0.00000000000E+00 0. -1.
        -12    1    6    6    0    0 -0.33032104157E+01  0.34628434250E+02 -0.15461654989E+02  0.38067078068E+02  0.00000000000E+00 0.  1.
</event>
<event>
12    1  0.8562501E-002  0.2900542E+03  0.7818608E-02  0.1091106E+00
         21   -1    0    0  501  502  0.00000000000E+00  0.00000000000E+00  0.22075915982E+04  0.22075915982E+04  0.00000000000E+00 0. -1.
         21   -1    0    0  502  503 -0.00000000000E+00 -0.00000000000E+00 -0.39968066256E+02  0.39968066256E+02  0.00000000000E+00 0.  1.
         -6    2    1    2    0  503  0.11908922163E+03 -0.20090675850E+03  0.13619078178E+04  0.13912249038E+04  0.16176544934E+03 0.  0.
        -24    2    3    3    0    0 -0.67389323853E+00 -0.87892720386E+02  0.60636521380E+03  0.61793188504E+03  0.80221303955E+02 0.  0.
          6    2    1    2  501    0 -0.11908922163E+03  0.20090675850E+03  0.80571571417E+03  0.85633476063E+03  0.17200477285E+03 0.  0.
         24    2    5    5    0    0 -0.72492427428E+02  0.21349174718E+03  0.60273383944E+03  0.64764030781E+03  0.72910965832E+02 0.  0.
          5    1    5    5  501    0 -0.46596794198E+02 -0.12584988688E+02  0.20298187473E+03  0.20869445282E+03  0.47000000000E+01 0. -1.
        -13    1    6    6    0    0 -0.28155857784E+02  0.87764296467E+02  0.15354014898E+03  0.17908071200E+03  0.00000000000E+00 0.  1.
         14    1    6    6    0    0 -0.44336569644E+02  0.12572745072E+03  0.44919369047E+03  0.46855959581E+03  0.00000000000E+00 0. -1.
         -5    1    3    3    0  503  0.11976311486E+03 -0.11301403811E+03  0.75554260397E+03  0.77329301879E+03  0.47000000000E+01 0.  1.
         13    1    4    4    0    0  0.12462923709E+02 -0.72501258703E+02  0.58024831976E+03  0.58489304113E+03  0.00000000000E+00 0. -1.
        -14    1    4    4    0    0 -0.13136816947E+02 -0.15391461683E+02  0.26116894046E+02  0.33038843909E+02  0.00000000000E+00 0.  1.
</event>
<event>
12    1  0.8562501E-002  0.2045405E+03  0.7818608E-02  0.1146188E+00
         21   -1    0    0  501  502  0.00000000000E+00  0.00000000000E+00  0.80859756146E+03  0.80859756146E+03  0.00000000000E+00 0. -1.
         21   -1    0    0  502  503 -0.00000000000E+00 -0.00000000000E+00 -0.52096168687E+02  0.52096168687E+02  0.00000000000E+00 0. -1.
         -6    2    1    2    0  503 -0.10520498649E+03 -0.34540852150E+02  0.33184895275E+03  0.38982116160E+03  0.17197572776E+03 0.  0.
        -24    2    3    3    0    0 -0.75647296108E+01 -0.63204092136E+02  0.16006974069E+03  0.19010789517E+03  0.80415841266E+02 0.  0.
          6    2    1    2  501    0  0.10520498649E+03  0.34540852150E+02  0.42465244002E+03  0.47087256855E+03  0.17067548549E+03 0.  0.
         24    2    5    5    0    0  0.13836248656E+03  0.48243764922E+02  0.35831323729E+03  0.39530690539E+03  0.80047079234E+02 0.  0.
          5    1    5    5  501    0 -0.33157500068E+02 -0.13702912772E+02  0.66339202733E+02  0.75565663157E+02  0.47000000000E+01 0. -1.
        -11    1    6    6    0    0  0.11904187883E+02  0.25249080884E+02  0.13311455663E+03  0.13600996640E+03  0.00000000000E+00 0.  1.
         12    1    6    6    0    0  0.12645829867E+03  0.22994684037E+02  0.22519868066E+03  0.25929693899E+03  0.00000000000E+00 0. -1.
         -5    1    3    3    0  503 -0.97640256876E+02  0.28663239986E+02  0.17177921207E+03  0.19971326643E+03  0.47000000000E+01 0.  1.
         11    1    4    4    0    0 -0.41052720044E+02 -0.19458954776E+02  0.91417473705E+02  0.10208394214E+03  0.00000000000E+00 0. -1.
        -12    1    4    4    0    0  0.33487990434E+02 -0.43745137359E+02  0.68652266980E+02  0.88023953032E+02  0.00000000000E+00 0.  1.
</event>
<event>
12    1  0.8562501E-002  0.1764245E+03  0.7818608E-02  0.1171720E+00
         21   -1    0    0  501  502  0.00000000000E+00  0.00000000000E+00  0.69364312039E+02  0.69364312039E+02  0.00000000000E+00 0.  1.
         21   -1    0    0  502  503 -0.00000000000E+00 -0.00000000000E+00 -0.57660448093E+03  0.57660448093E+03  0.00000000000E+00 0. -1.
         -6    2    1    2    0  503 -0.31095122542E+02 -0.20832067409E+02 -0.40910696771E+03  0.44552679128E+03  0.17240861069E+03 0.  0.
        -24    2    3    3    0    0 -0.74654859565E+02 -0.53680228922E+02 -0.29570794236E+03  0.31959871119E+03  0.79026792846E+02 0.  0.
          6    2    1    2  501    0  0.31095122542E+02  0.20832067409E+02 -0.98133201184E+02  0.20044200169E+03  0.17072196458E+03 0.  0.
         24    2    5    5    0    0 -0.10102947062E+02 -0.22131147860E+02 -0.11157201434E+03  0.13923897477E+03  0.79670072590E+02 0.  0.
          5    1    5    5  501    0  0.41198069604E+02  0.42963215269E+02  0.13438813155E+02  0.61203026921E+02  0.47000000000E+01 0. -1.
        -11    1    6    6    0    0 -0.23839002592E+02  0.21565729289E+02 -0.23009945714E+02  0.39532724750E+02  0.00000000000E+00 0.  1.
         12    1    6    6    0    0  0.13736055530E+02 -0.43696877149E+02 -0.88562068625E+02  0.99706250021E+02  0.00000000000E+00 0. -1.
         -5    1    3    3    0  503  0.43559737023E+02  0.32848161513E+02 -0.11339902536E+03  0.12592808009E+03  0.47000000000E+01 0.  1.
         13    1    4    4    0    0 -0.28674708848E+02 -0.36657494334E+02 -0.24377380611E+03  0.24817670995E+03  0.00000000000E+00 0. -1.
        -14    1    4    4    0    0 -0.45980150716E+02 -0.17022734588E+02 -0.51934136246E+02  0.71422001235E+02  0.00000000000E+00 0.  1.
</event>
<event>
12    1  0.8562501E-002  0.2195031E+03  0.7818608E-02  0.1134493E+00
         21   -1    0    0  501  502  0.00000000000E+00  0.00000000000E+00  0.40832525669E+02  0.40832525669E+02  0.00000000000E+00 0. -1.
         21   -1    0    0  502  503 -0.00000000000E+00 -0.00000000000E+00 -0.12292786317E+04  0.12292786317E+04  0.00000000000E+00 0. -1.
         -6    2    1    2    0  503  0.54337685114E+01  0.13460653508E+03 -0.73156491340E+03  0.76378586602E+03  0.17330084098E+03 0.  0.
        -24    2    3    3    0    0  0.37308763087E+02  0.12841972750E+03 -0.38083662630E+03  0.41152642578E+03  0.80211551339E+02 0.  0.
          6    2    1    2  501    0 -0.54337685114E+01 -0.13460653508E+03 -0.45688119266E+03  0.50632529138E+03  0.17168701569E+03 0.  0.
         24    2    5    5    0    0 -0.46564369598E+02 -0.47663976300E+02 -0.33528512685E+03  0.35121749630E+03  0.80607184969E+02 0.  0.
          5    1    5    5  501    0  0.41130601086E+02 -0.86942558783E+02 -0.12159606581E+03  0.15510779508E+03  0.47000000000E+01 0. -1.
        -11    1    6    6    0    0 -0.10583764968E+02 -0.14480464705E+02 -0.69203389286E+01  0.19224750450E+02  0.00000000000E+00 0.  1.
         12    1    6    6    0    0 -0.35980604629E+02 -0.33183511595E+02 -0.32836478792E+03  0.33199274585E+03  0.00000000000E+00 0. -1.
         -5    1    3    3    0  503 -0.31874994576E+02  0.61868075874E+01 -0.35072828710E+03  0.35225944024E+03  0.47000000000E+01 0.  1.
         13    1    4    4    0    0  0.41392448520E+02  0.49100277445E+02 -0.25302026108E+03  0.26104295538E+03  0.00000000000E+00 0. -1.
        -14    1    4    4    0    0 -0.40836854322E+01  0.79319450051E+02 -0.12781636522E+03  0.15048347039E+03  0.00000000000E+00 0.  1.
</event>
<event>
12    1  0.8562501E-002  0.4926969E+03  0.7818608E-02  0.1015728E+00
         21   -1    0    0  503  502  0.00000000000E+00  0.00000000000E+00  0.89382731196E+03  0.89382731196E+03  0.00000000000E+00 0.  1.
         21   -1    0    0  501  503 -0.00000000000E+00 -0.00000000000E+00 -0.27431204160E+03  0.27431204160E+03  0.00000000000E+00 0. -1.
          6    2    1    2  501    0 -0.24334978955E+03  0.39185394291E+03  0.24919983787E+03  0.55179226729E+03  0.17206253049E+03 0.  0.
         24    2    3    3    0    0 -0.15924474159E+03  0.24911763351E+03  0.83210108004E+02  0.31722459361E+03  0.79303453074E+02 0.  0.
         -6    2    1    2    0  502  0.24334978955E+03 -0.39185394291E+03  0.37031543249E+03  0.61634708627E+03  0.17315189445E+03 0.  0.
        -24    2    5    5    0    0  0.24800639513E+03 -0.32948608593E+03  0.35755752354E+03  0.55234483786E+03  0.84671036472E+02 0.  0.
          5    1    3    3  501    0 -0.84105047957E+02  0.14273630941E+03  0.16598972987E+03  0.23456767368E+03  0.47000000000E+01 0. -1.
        -11    1    4    4    0    0 -0.14819324720E+02  0.53426310858E+02  0.44188636973E+02  0.70898651007E+02  0.00000000000E+00 0.  1.
         12    1    4    4    0    0 -0.14442541687E+03  0.19569132265E+03  0.39021471031E+02  0.24632594261E+03  0.00000000000E+00 0. -1.
         -5    1    5    5    0  502 -0.46566055819E+01 -0.62367856984E+02  0.12757908950E+02  0.64002248406E+02  0.47000000000E+01 0.  1.
         13    1    6    6    0    0  0.12887878876E+03 -0.12532737490E+03  0.19645719060E+03  0.26629329851E+03  0.00000000000E+00 0. -1.
        -14    1    6    6    0    0  0.11912760637E+03 -0.20415871103E+03  0.16110033294E+03  0.28605153935E+03  0.00000000000E+00 0.  1.
</event>
<event>
12    1  0.8562501E-002  0.2312905E+03  0.7818608E-02  0.1125874E+00
         21   -1    0    0  501  502  0.00000000000E+00  0.00000000000E+00  0.49217709026E+03  0.49217709026E+03  0.00000000000E+00 0. -1.
         21   -1    0    0  502  503 -0.00000000000E+00 -0.00000000000E+00 -0.48527203588E+03  0.48527203588E+03  0.00000000000E+00 0.  1.
         -6    2    1    2    0  503  0.11929657949E+03 -0.99897992624E+02 -0.42728641707E+03  0.48586928258E+03  0.17112566942E+03 0.  0.
        -24    2    3    3    0    0  0.82925082942E+01 -0.67061200055E+02 -0.27678131370E+03  0.29593762406E+03  0.80032565079E+02 0.  0.
          6    2    1    2  501    0 -0.11929657949E+03  0.99897992624E+02  0.43419147145E+03  0.49157984356E+03  0.17005065688E+03 0.  0.
         24    2    5    5    0    0 -0.14502199827E+03  0.77824523353E+02  0.28460388759E+03  0.33812766710E+03  0.79012087730E+02 0.  0.
          5    1    5    5  501    0  0.25725418777E+02  0.22073469271E+02  0.14958758385E+03  0.15345217646E+03  0.47000000000E+01 0. -1.
        -11    1    6    6    0    0 -0.87014215320E+02  0.23957772853E+01  0.12530815976E+03  0.15257571340E+03  0.00000000000E+00 0.  1.
         12    1    6    6    0    0 -0.58007782945E+02  0.75428746068E+02  0.15929572783E+03  0.18555195370E+03  0.00000000000E+00 0. -1.
         -5    1    3    3    0  503  0.11100407119E+03 -0.32836792569E+02 -0.15050510337E+03  0.18993165852E+03  0.47000000000E+01 0.  1.
         11    1    4    4    0    0  0.17763521957E+02  0.12914363840E+02 -0.37389277559E+02  0.43362213758E+02  0.00000000000E+00 0. -1.
        -12    1    4    4    0    0 -0.94710136623E+01 -0.79975563895E+02 -0.23939203615E+03  0.25257541030E+03  0.00000000000E+00 0.  1.
</event>
<event>
12    1  0.8562501E-002  0.2479070E+03  0.7818608E-02  0.1114809E+00
         21   -1    0    0  501  502  0.00000000000E+00  0.00000000000E+00  0.25337430785E+03  0.25337430785E+03  0.00000000000E+00 0. -1.
         21   -1    0    0  502  503 -0.00000000000E+00 -0.00000000000E+00 -0.24501768296E+03  0.24501768296E+03  0.00000000000E+00 0. -1.
         -6    2    1    2    0  503 -0.15717789733E+03  0.83069748489E+02 -0.25691154797E+02  0.24923464538E+03  0.17277846654E+03 0.  0.
        -24    2    3    3    0    0 -0.17090299567E+03  0.35824789561E+02 -0.42154280128E+02  0.19714252539E+03  0.81221564303E+02 0.  0.
          6    2    1    2  501    0  0.15717789733E+03 -0.83069748489E+02  0.34047779691E+02  0.24915734544E+03  0.17121523578E+03 0.  0.
         24    2    5    5    0    0  0.32837295736E+02  0.13425898038E+02 -0.79276369138E+01  0.86197164408E+02  0.78157283701E+02 0.  0.
          5    1    5    5  501    0  0.12434060159E+03 -0.96495646527E+02  0.41975416605E+02  0.16296018103E+03  0.47000000000E+01 0. -1.
        -11    1    6    6    0    0  0.42113449931E+02  0.37522990133E+02  0.62328859582E+01  0.56748271524E+02  0.00000000000E+00 0.  1.
         12    1    6    6    0    0 -0.92761541955E+01 -0.24097092094E+02 -0.14160522872E+02  0.29448892884E+02  0.00000000000E+00 0. -1.
         -5    1    3    3    0  503  0.13725098345E+02  0.47244958928E+02  0.16463125331E+02  0.52092119983E+02  0.47000000000E+01 0.  1.
         13    1    4    4    0    0 -0.13678790061E+03  0.57937177210E+02 -0.17456794597E+02  0.14957401490E+03  0.00000000000E+00 0. -1.
        -14    1    4    4    0    0 -0.34115095066E+02 -0.22112387649E+02 -0.24697485531E+02  0.47568510493E+02  0.00000000000E+00 0.  1.
</event>
<event>
12    1  0.8562501E-002  0.1929383E+03  0.7818608E-02  0.1155971E+00
         21   -1    0    0  503  502  0.00000000000E+00  0.00000000000E+00  0.33648118555E+03  0.33648118555E+03  0.00000000000E+00 0. -1.
         21   -1    0    0  501  503 -0.00000000000E+00 -0.00000000000E+00 -0.12225622562E+03  0.12225622562E+03  0.00000000000E+00 0.  1.
          6    2    1    2  501    0  0.81934032683E+02  0.23083985280E+02  0.17873155249E+03  0.26256152554E+03  0.17247472496E+03 0.  0.
         24    2    3    3    0    0  0.61344569410E+02 -0.36356824280E+02  0.48149496030E+02  0.11754118452E+03  0.80078594038E+02 0.  0.
         -6    2    1    2    0  502 -0.81934032683E+02 -0.23083985280E+02  0.35493407430E+02  0.19617588563E+03  0.17314485278E+03 0.  0.
        -24    2    5    5    0    0 -0.32841426716E+02 -0.20356056946E+02 -0.47109468668E+02  0.99932180939E+02  0.79209913432E+02 0.  0.
          5    1    3    3  501    0  0.20589463273E+02  0.59440809559E+02  0.13058205646E+03  0.14502034102E+03  0.47000000000E+01 0. -1.
        -13    1    4    4    0    0  0.85177763511E+01 -0.34577840891E+02 -0.11895704438E+02  0.37545803743E+02  0.00000000000E+00 0.  1.
         14    1    4    4    0    0  0.52826793059E+02 -0.17789833893E+01  0.60045200468E+02  0.79995380779E+02  0.00000000000E+00 0. -1.
         -5    1    5    5    0  502 -0.49092605967E+02 -0.27279283334E+01  0.82602876098E+02  0.96243704695E+02  0.47000000000E+01 0.  1.
         11    1    6    6    0    0 -0.61787323340E+01 -0.84023652336E+01  0.22302538015E+02  0.24620716413E+02  0.00000000000E+00 0. -1.
        -12    1    6    6    0    0 -0.26662694382E+02 -0.11953691713E+02 -0.69412006683E+02  0.75311464526E+02  0.00000000000E+00 0.  1.
</event>
<event>
12    1  0.8562501E-002  0.1854954E+03  0.7818608E-02  0.1163077E+00
         21   -1    0    0  501  502  0.00000000000E+00  0.00000000000E+00  0.29955936836E+03  0.29955936836E+03  0.00000000000E+00 0.  1.
         21   -1    0    0  502  503 -0.00000000000E+00 -0.00000000000E+00 -0.16960406064E+03  0.16960406064E+03  0.00000000000E+00 0.  1.
         -6    2    1    2    0  503  0.64288800331E+02 -0.10455703075E+02 -0.69605281973E+02  0.19812480797E+03  0.17368411752E+03 0.  0.
        -24    2    3    3    0    0 -0.29719371578E+02  0.15871787889E+02 -0.47331332041E+02  0.97880645987E+02  0.78773162741E+02 0.  0.
          6    2    1    2  501    0 -0.64288800331E+02  0.10455703075E+02  0.19956058969E+03  0.27103862103E+03  0.17145009057E+03 0.  0.
         24    2    5    5    0    0 -0.10499608999E+03 -0.14017439688E+02  0.12967628074E+03  0.18641046504E+03  0.81928359937E+02 0.  0.
          5    1    5    5  501    0  0.40707289659E+02  0.24473142763E+02  0.69884308955E+02  0.84628155990E+02  0.47000000000E+01 0. -1.
        -13    1    6    6    0    0 -0.67079235610E+02  0.25683117277E+02  0.10247860476E+03  0.12514435983E+03  0.00000000000E+00 0.  1.
         14    1    6    6    0    0 -0.37916854380E+02 -0.39700556966E+02  0.27197675980E+02  0.61266105214E+02  0.00000000000E+00 0. -1.
         -5    1    3    3    0  503  0.94008171909E+02 -0.26327490964E+02 -0.22273949932E+02  0.10024416198E+03  0.47000000000E+01 0.  1.
         11    1    4    4    0    0 -0.41392325512E+02  0.32121008035E+02 -0.69995805495E+01  0.52859037982E+02  0.00000000000E+00 0. -1.
        -12    1    4    4    0    0  0.11672953935E+02 -0.16249220146E+02 -0.40331751492E+02  0.45021608005E+02  0.00000000000E+00 0.  1.
</event>
<event>
12    1  0.8562501E-002  0.1744241E+03  0.7818608E-02  0.1173450E+00
         21   -1    0    0  503  502  0.00000000000E+00  0.00000000000E+00  0.80307348438E+03  0.80307348438E+03  0.00000000000E+00 0. -1.
         21   -1    0    0  501  503 -0.00000000000E+00 -0.00000000000E+00 -0.58880340071E+02  0.58880340071E+02  0.00000000000E+00 0. -1.
          6    2    1    2  501    0 -0.20122258251E+02 -0.12944297016E+02  0.11363241317E+03  0.20771335186E+03  0.17222093692E+03 0.  0.
         24    2    3    3    0    0  0.14069812528E+02  0.53490415221E+02  0.63968491952E+02  0.11787313945E+03  0.82115314626E+02 0.  0.
         -6    2    1    2    0  502  0.20122258251E+02  0.12944297016E+02  0.63056073114E+03  0.65424047260E+03  0.17277528825E+03 0.  0.
        -24    2    5    5    0    0 -0.46366861922E+02  0.93997805391E+01  0.48821259010E+03  0.49701944997E+03  0.80240630352E+02 0.  0.
          5    1    3    3  501    0 -0.34192070778E+02 -0.66434712237E+02  0.49663921222E+02  0.89840212407E+02  0.47000000000E+01 0. -1.
        -11    1    4    4    0    0  0.83153558936E+01 -0.77405054904E+01  0.54471395701E+02  0.55643449916E+02  0.00000000000E+00 0.  1.
         12    1    4    4    0    0  0.57544566339E+01  0.61230920712E+02  0.94970962509E+01  0.62229689534E+02  0.00000000000E+00 0. -1.
         -5    1    5    5    0  502  0.66489120173E+02  0.35445164768E+01  0.14234814104E+03  0.15722102263E+03  0.47000000000E+01 0.  1.
         11    1    6    6    0    0 -0.11095500062E+02  0.42938987131E+02  0.24581098477E+03  0.24977971689E+03  0.00000000000E+00 0. -1.
        -12    1    6    6    0    0 -0.35271361861E+02 -0.33539206592E+02  0.24240160533E+03  0.24723973308E+03  0.00000000000E+00 0.  1.
</event>
<event>
12    1  0.8562501E-002  0.3087720E+03  0.7818608E-02  0.1081001E+00
         21   -1    0    0  503  502  0.00000000000E+00  0.00000000000E+00  0.40105925987E+03  0.40105925987E+03  0.00000000000E+00 0.  1.
         21   -1    0    0  501  503 -0.00000000000E+00 -0.00000000000E+00 -0.46319398477E+03  0.46319398477E+03  0.00000000000E+00 0.  1.
          6    2    1    2  501    0  0.68669121243E-01 -0.25610266826E+03 -0.33285134464E+03  0.45401559396E+03  0.17248640677E+03 0.  0.
         24    2    3    3    0    0  0.33120146285E+02 -0.53989382496E+02 -0.12894325091E+03  0.16497791282E+03  0.81114439232E+02 0.  0.
         -6    2    1    2    0  502 -0.68669121243E-01  0.25610266826E+03  0.27071661975E+03  0.41023765068E+03  0.17151927129E+03 0.  0.
        -24    2    5    5    0    0 -0.24747748287E+02  0.40811753695E+02  0.11260567570E+03  0.14194602675E+03  0.72045721776E+02 0.  0.
          5    1    3    3  501    0 -0.33051477163E+02 -0.20211328576E+03 -0.20390809373E+03  0.28903768113E+03  0.47000000000E+01 0. -1.
        -13    1    4    4    0    0  0.19893739314E+02 -0.73073792155E+02 -0.11559600409E+03  0.13819542730E+03  0.00000000000E+00 0.  1.
         14    1    4    4    0    0  0.13226406970E+02  0.19084409659E+02 -0.13347246822E+02  0.26782485529E+02  0.00000000000E+00 0. -1.
         -5    1    5    5    0  502  0.24679079166E+02  0.21529091456E+03  0.15811094405E+03  0.26829162393E+03  0.47000000000E+01 0.  1.
         11    1    6    6    0    0  0.16280958992E+02  0.21412196002E+01  0.68282112209E+02  0.70228920644E+02  0.00000000000E+00 0. -1.
        -12    1    6    6    0    0 -0.41028707278E+02  0.38670534095E+02  0.44323563487E+02  0.71717106107E+02  0.00000000000E+00 0.  1.
</event>
<event>
12    1  0.8562501E-002  0.2988142E+03  0.7818608E-02  0.1085881E+00
         21   -1    0    0  503  502  0.00000000000E+00  0.00000000000E+00  0.72666204641E+02  0.72666204641E+02  0.00000000000E+00 0. -1.
         21   -1    0    0  501  503 -0.00000000000E+00 -0.00000000000E+00 -0.17202438086E+04  0.17202438086E+04  0.00000000000E+00 0. -1.
          6    2    1    2  501    0 -0.23502536758E+03 -0.65794635040E+02 -0.13033227562E+04  0.13370577270E+04  0.17177689368E+03 0.  0.
         24    2    3    3    0    0 -0.69605442115E+02  0.49042949178E+01 -0.68449634602E+03  0.69259647423E+03  0.79282146290E+02 0.  0.
         -6    2    1    2    0  502  0.23502536758E+03  0.65794635040E+02 -0.34425484774E+03  0.45585228618E+03  0.17240663914E+03 0.  0.
        -24    2    5    5    0    0  0.19242533057E+03  0.92996301673E+02 -0.20183137988E+03  0.30465298718E+03  0.80010728807E+02 0.  0.
          5    1    3    3  501    0 -0.16541992546E+03 -0.70698929958E+02 -0.61882641018E+03  0.64446125281E+03  0.47000000000E+01 0. -1.
        -13    1    4    4    0    0  0.16835627293E+02 -0.50241264294E+01 -0.82964791055E+02  0.84804697674E+02  0.00000000000E+00 0.  1.
         14    1    4    4    0    0 -0.86441069408E+02  0.99284213471E+01 -0.60153155497E+03  0.60779177656E+03  0.00000000000E+00 0. -1.
         -5    1    5    5    0  502  0.42600037008E+02 -0.27201666634E+02 -0.14242346786E+03  0.15119929900E+03  0.47000000000E+01 0.  1.
         11    1    6    6    0    0  0.17782927857E+03  0.64217694913E+02 -0.14122224571E+03  0.23598916785E+03  0.00000000000E+00 0. -1.
        -12    1    6    6    0    0  0.14596052000E+02  0.28778606760E+02 -0.60609134169E+02  0.68663819336E+02  0.00000000000E+00 0.  1.
</event>
<event>
12    1  0.8562501E-002  0.1741231E+03  0.7818608E-02  0.1173800E+00
         21   -1    0    0  501  502  0.00000000000E+00  0.00000000000E+00  0.29748874102E+03  0.29748874102E+03  0.00000000000E+00 0. -1.
         21   -1    0    0  502  503 -0.00000000000E+00 -0.00000000000E+00 -0.13910606167E+03  0.13910606167E+03  0.00000000000E+00 0. -1.
         -6    2    1    2    0  503  0.11742559058E+02  0.27875633583E+01 -0.34450437387E+02  0.17678050483E+03  0.17297067974E+03 0.  0.
        -24    2    3    3    0    0  0.20072841311E+02  0.67103609816E+02 -0.58180586531E+01  0.10573227792E+03  0.78991463969E+02 0.  0.
          6    2    1    2  501    0 -0.11742559058E+02 -0.27875633583E+01  0.19283311673E+03  0.25981429787E+03  0.17370434728E+03 0.  0.
         24    2    5    5    0    0  0.28961103734E+00  0.62862453130E+02  0.14725549434E+03  0.17885685568E+03  0.79710867029E+02 0.  0.
          5    1    5    5  501    0 -0.12032170096E+02 -0.65650016489E+02  0.45577622391E+02  0.80957442184E+02  0.47000000000E+01 0. -1.
        -13    1    6    6    0    0 -0.29457259662E+02  0.39474744219E+02  0.35076535073E+02  0.60467750832E+02  0.00000000000E+00 0.  1.
         14    1    6    6    0    0  0.29746870699E+02  0.23387708911E+02  0.11217895927E+03  0.11838910485E+03  0.00000000000E+00 0. -1.
         -5    1    3    3    0  503 -0.83302822527E+01 -0.64316046458E+02 -0.28632378734E+02  0.71048226905E+02  0.47000000000E+01 0.  1.
         13    1    4    4    0    0  0.22286521733E+02 -0.10466257355E+02 -0.12921458957E+02  0.27806396666E+02  0.00000000000E+00 0. -1.
        -14    1    4    4    0    0 -0.22136804217E+01  0.77569867171E+02  0.71034003042E+01  0.77925881258E+02  0.00000000000E+00 0.  1.
</event>
<event>
12    1  0.8562501E-002  0.3177289E+03  0.7818608E-02  0.1076988E+00
         21   -1    0    0  501  502  0.00000000000E+00  0.00000000000E+00  0.10150221584E+04  0.10150221584E+04  0.00000000000E+00 0.  1.
         21   -1    0    0  502  503 -0.00000000000E+00 -0.00000000000E+00 -0.10419097603E+03  0.10419097603E+03  0.00000000000E+00 0. -1.
         -6    2    1    2    0  503  0.24449676075E+03  0.10071642864E+03  0.32844137760E+03  0.45697413592E+03  0.17615095051E+03 0.  0.
        -24    2    3    3    0    0  0.22703093487E+03  0.27507993297E+02  0.25226973164E+03  0.34978859713E+03  0.80076901129E+02 0.  0.
          6    2    1    2  501    0 -0.24449676075E+03 -0.10071642864E+03  0.58238980472E+03  0.66223899847E+03  0.17163956839E+03 0.  0.
         24    2    5    5    0    0 -0.23602431771E+03 -0.91884742325E+02  0.40637964223E+03  0.48574126966E+03  0.81546814842E+02 0.  0.
          5    1    5    5  501    0 -0.84724430370E+01 -0.88316863133E+01  0.17601016249E+03  0.17649772881E+03  0.47000000000E+01 0. -1.
        -11    1    6    6    0    0 -0.11063380227E+03 -0.85770716520E+02  0.22987158507E+03  0.26914196931E+03  0.00000000000E+00 0.  1.
         12    1    6    6    0    0 -0.12539051544E+03 -0.61140258050E+01  0.17650805715E+03  0.21659930035E+03  0.00000000000E+00 0. -1.
         -5    1    3    3    0  503  0.17465825881E+02  0.73208435342E+02  0.76171645958E+02  0.10718553880E+03  0.47000000000E+01 0.  1.
         11    1    4    4    0    0  0.86893784834E+02 -0.82744716993E+01  0.48346646190E+02  0.99781736417E+02  0.00000000000E+00 0. -1.
        -12    1    4    4    0    0  0.14013715003E+03  0.35782464996E+02  0.20392308545E+03  0.25000686071E+03  0.00000000000E+00 0.  1.
</event>
<event>
12    1  0.8562501E-002  0.1913524E+03  0.7818608E-02  0.1157526E+00
         21   -1    0    0  501  502  0.00000000000E+00  0.00000000000E+00  0.72040318550E+02  0.72040318550E+02  0.00000000000E+00 0.  1.
         21   -1    0    0  502  503 -0.00000000000E+00 -0.00000000000E+00 -0.71800294265E+03  0.71800294265E+03  0.00000000000E+00 0.  1.
         -6    2    1    2    0  503  0.79351532273E+02  0.24325568299E+02 -0.53741103193E+03  0.57004507424E+03  0.17103324378E+03 0.  0.
        -24    2    3    3    0    0  0.68976319351E+02 -0.36254444699E+02 -0.44745635953E+03  0.46099684590E+03  0.78922625736E+02 0.  0.
          6    2    1    2  501    0 -0.79351532273E+02 -0.24325568299E+02 -0.10855159217E+03  0.21999818696E+03  0.17241622649E+03 0.  0.
         24    2    5    5    0    0 -0.27007064467E+02 -0.46940908069E+02 -0.12777396095E+03  0.15964103027E+03  0.78906546412E+02 0.  0.
          5    1    5    5  501    0 -0.52344467806E+02  0.22615339769E+02  0.19222368778E+02  0.60357156694E+02  0.47000000000E+01 0. -1.
        -13    1    6    6    0    0 -0.44695907491E+02 -0.22483844295E+02 -0.32405489621E+02  0.59610092756E+02  0.00000000000E+00 0.  1.
         14    1    6    6    0    0  0.17688843024E+02 -0.24457063773E+02 -0.95368471329E+02  0.10003093751E+03  0.00000000000E+00 0. -1.
         -5    1    3    3    0  503  0.10375212922E+02  0.60580012998E+02 -0.89954672405E+02  0.10904822835E+03  0.47000000000E+01 0.  1.
         11    1    4    4    0    0  0.49706348016E+02 -0.23448175063E+02 -0.42571364518E+03  0.42924660236E+03  0.00000000000E+00 0. -1.
        -12    1    4    4    0    0  0.19269971335E+02 -0.12806269636E+02 -0.21742714345E+02  0.31750243532E+02  0.00000000000E+00 0.  1.
</event>
<event>
12    1  0.8562501E-002  0.1864534E+03  0.7818608E-02  0.1164141E+00
         21   -1    0    0  503  502  0.00000000000E+00  0.00000000000E+00  0.17117348465E+03  0.17117348465E+03  0.00000000000E+00 0. -1.
         21   -1    0    0  501  503 -0.00000000000E+00 -0.00000000000E+00 -0.24975129912E+03  0.24975129912E+03  0.00000000000E+00 0.  1.
          6    2    1    2  501    0  0.71442755124E+02 -0.14056057931E+02 -0.13953308767E+03  0.22476048341E+03  0.16045607600E+03 0.  0.
         24    2    3    3    0    0  0.61876487916E+02 -0.50306024381E+02 -0.14743344153E+03  0.18615894035E+03  0.80988490188E+02 0.  0.
         -6    2    1    2    0  502 -0.71442755124E+02  0.14056057931E+02  0.60955273204E+02  0.19616430036E+03  0.17164861602E+03 0.  0.
        -24    2    5    5    0    0 -0.42185381491E+02  0.83802058500E+01  0.10610597868E+03  0.14186065948E+03  0.83762364668E+02 0.  0.
          5    1    3    3  501    0  0.95662672081E+01  0.36249966450E+02  0.79003538607E+01  0.38601543065E+02  0.47000000000E+01 0. -1.
        -11    1    4    4    0    0 -0.15078147215E+02 -0.25028444980E+02 -0.20917322811E+02  0.35934773899E+02  0.00000000000E+00 0.  1.
         12    1    4    4    0    0  0.76954635132E+02 -0.25277579401E+02 -0.12651611872E+03  0.15022416645E+03  0.00000000000E+00 0. -1.
         -5    1    5    5    0  502 -0.29257373633E+02  0.56758520813E+01 -0.45150705473E+02  0.54303640886E+02  0.47000000000E+01 0.  1.
         13    1    6    6    0    0 -0.66077213133E+02 -0.57358451145E+01  0.77488296471E+02  0.10199771617E+03  0.00000000000E+00 0. -1.
        -14    1    6    6    0    0  0.23891831642E+02  0.14116050964E+02  0.28617682206E+02  0.39862943304E+02  0.00000000000E+00 0.  1.
</event>
<event>
12    1  0.8562501E-002  0.2097746E+03  0.7818608E-02  0.1142814E+00
         21   -1    0    0  501  502  0.00000000000E+00  0.00000000000E+00  0.25929578640E+03  0.25929578640E+03  0.00000000000E+00 0.  1.
         21   -1    0    0  502  503 -0.00000000000E+00 -0.00000000000E+00 -0.19745581495E+03  0.19745581495E+03  0.00000000000E+00 0.  1.
         -6    2    1    2    0  503  0.44240684705E+02 -0.11429074695E+03 -0.61373478989E+02  0.21346793791E+03  0.16365281412E+03 0.  0.
        -24    2    3    3    0    0  0.27797035721E+02 -0.20451595081E+02  0.21493522217E+02  0.87114426265E+02  0.77045498441E+02 0.  0.
          6    2    1    2  501    0 -0.44240684705E+02  0.11429074695E+03  0.12321345044E+03  0.24328366343E+03  0.17025208810E+03 0.  0.
         24    2    5    5    0    0  0.74418769441E+01  0.11820461054E+03  0.12570082655E+03  0.19118104789E+03  0.81986485400E+02 0.  0.
          5    1    5    5  501    0 -0.51682561649E+02 -0.39138635883E+01 -0.24873761148E+01  0.52102615546E+02  0.47000000000E+01 0. -1.
        -13    1    6    6    0    0  0.43805431536E+02  0.80596820982E+02  0.80508276944E+02  0.12205058804E+03  0.00000000000E+00 0.  1.
         14    1    6    6    0    0 -0.36363554591E+02  0.37607789560E+02  0.45192549610E+02  0.69130459845E+02  0.00000000000E+00 0. -1.
         -5    1    3    3    0  503  0.16443648984E+02 -0.93839151872E+02 -0.82867001206E+02  0.12635351164E+03  0.47000000000E+01 0.  1.
         11    1    4    4    0    0 -0.17602366004E+02  0.14388887232E+02  0.19337290432E+02  0.29846510114E+02  0.00000000000E+00 0. -1.
        -12    1    4    4    0    0  0.45399401725E+02 -0.34840482313E+02  0.21562317848E+01  0.57267916151E+02  0.00000000000E+00 0.  1.
</event>
<event>
12    1  0.8562501E-002  0.2294720E+03  0.7818608E-02  0.1127182E+00
         21   -1    0    0  501  502  0.00000000000E+00  0.00000000000E+00  0.48166384848E+03  0.48166384848E+03  0.00000000000E+00 0. -1.
         21   -1    0    0  502  503 -0.00000000000E+00 -0.00000000000E+00 -0.11538546299E+03  0.11538546299E+03  0.00000000000E+00 0. -1.
         -6    2    1    2    0  503  0.14336090583E+03  0.44196413441E+02  0.11182566157E+03  0.25440723349E+03  0.17237282147E+03 0.  0.
        -24    2    3    3    0    0  0.13761648177E+02  0.38726344776E+02  0.80523132772E+02  0.12088634544E+03  0.80252232752E+02 0.  0.
          6    2    1    2  501    0 -0.14336090583E+03 -0.44196413441E+02  0.25445272392E+03  0.34264207798E+03  0.17364254262E+03 0.  0.
         24    2    5    5    0    0 -0.16623537790E+03 -0.25629810427E+02  0.16919297114E+03  0.25231336901E+03  0.82126041237E+02 0.  0.
          5    1    5    5  501    0  0.22874472066E+02 -0.18566603014E+02  0.85259752777E+02  0.90328708966E+02  0.47000000000E+01 0. -1.
        -13    1    6    6    0    0 -0.57525456486E+02 -0.37827008969E+02  0.29542673365E+02  0.74918824744E+02  0.00000000000E+00 0.  1.
         14    1    6    6    0    0 -0.10870992141E+03  0.12197198542E+02  0.13965029778E+03  0.17739454427E+03  0.00000000000E+00 0. -1.
         -5    1    3    3    0  503  0.12959925766E+03  0.54700686651E+01  0.31302528797E+02  0.13352088805E+03  0.47000000000E+01 0.  1.
         11    1    4    4    0    0  0.15624846305E+02  0.18652529888E+02 -0.11334414041E+02  0.26842534063E+02  0.00000000000E+00 0. -1.
        -12    1    4    4    0    0 -0.18631981271E+01  0.20073814889E+02  0.91857546814E+02  0.94043811376E+02  0.00000000000E+00 0.  1.
</event>
<event>
12    1  0.8562501E-002  0.2612871E+03  0.7818608E-02  0.1106686E+00
         21   -1    0    0  503  502  0.00000000000E+00  0.00000000000E+00  0.85376968236E+03  0.85376968236E+03  0.00000000000E+00 0.  1.
         21   -1    0    0  501  503 -0.00000000000E+00 -0.00000000000E+00 -0.12164345809E+03  0.12164345809E+03  0.00000000000E+00 0.  1.
          6    2    1    2  501    0  0.13925491409E+03  0.13604281489E+03  0.79365369436E+02  0.27307474035E+03  0.17427384592E+03 0.  0.
         24    2    3    3    0    0  0.15368678924E+03  0.15030102453E+03  0.46411736948E+02  0.23409259756E+03  0.80220120575E+02 0.  0.
         -6    2    1    2    0  502 -0.13925491409E+03 -0.13604281489E+03  0.65276085483E+03  0.70233840009E+03  0.17112251768E+03 0.  0.
        -24    2    5    5    0    0 -0.70450558300E+01 -0.18572819383E+02  0.22419298619E+03  0.23868858126E+03  0.79467989385E+02 0.  0.
          5    1    3    3  501    0 -0.14431875151E+02 -0.14258209639E+02  0.32953632488E+02  0.38982142792E+02  0.47000000000E+01 0. -1.
        -13    1    4    4    0    0  0.14125049312E+03  0.12031828774E+03  0.10734094461E+02  0.18585858322E+03  0.00000000000E+00 0.  1.
         14    1    4    4    0    0  0.12436296123E+02  0.29982736790E+02  0.35677642487E+02  0.48234014347E+02  0.00000000000E+00 0. -1.
         -5    1    5    5    0  502 -0.13220985826E+03 -0.11746999551E+03  0.42856786864E+03  0.46364981883E+03  0.47000000000E+01 0.  1.
         13    1    6    6    0    0  0.37452259786E+01  0.97210052903E+01 -0.18892154007E+01  0.10587435776E+02  0.00000000000E+00 0. -1.
        -14    1    6    6    0    0 -0.10790281809E+02 -0.28293824673E+02  0.22608220159E+03  0.22810114549E+03  0.00000000000E+00 0.  1.
</event>
<event>
12    1  0.8562501E-002  0.1796261E+03  0.7818608E-02  0.1168559E+00
         21   -1    0    0  501  502  0.00000000000E+00  0.00000000000E+00  0.47895525780E+03  0.47895525780E+03  0.00000000000E+00 0.  1.
         21   -1    0    0  502  503 -0.00000000000E+00 -0.00000000000E+00 -0.82266867362E+02  0.82266867362E+02  0.00000000000E+00 0.  1.
         -6    2    1    2    0  503  0.37739641350E+01  0.48633437516E+02  0.75794449442E+02  0.19347429339E+03  0.17119593917E+03 0.  0.
        -24    2    3    3    0    0  0.13355766418E+02 -0.14824773789E+02 -0.13341139314E+02  0.83537954089E+02  0.80015332035E+02 0.  0.
          6    2    1    2  501    0 -0.37739641350E+01 -0.48633437516E+02  0.32089394100E+03  0.36774783177E+03  0.17287594498E+03 0.  0.
         24    2    5    5    0    0 -0.20992556671E+02 -0.96518782840E+02  0.25543325705E+03  0.28470159544E+03  0.77796444399E+02 0.  0.
          5    1    5    5  501    0  0.17218592536E+02  0.47885345324E+02  0.65460683944E+02  0.83046236328E+02  0.47000000000E+01 0. -1.
        -13    1    6    6    0    0 -0.42858917759E+02 -0.82504067206E+02  0.15305222833E+03  0.17907761595E+03  0.00000000000E+00 0.  1.
         14    1    6    6    0    0  0.21866361087E+02 -0.14014715635E+02  0.10238102872E+03  0.10562397949E+03  0.00000000000E+00 0. -1.
         -5    1    3    3    0  503 -0.95818022831E+01  0.63458211305E+02  0.89135588756E+02  0.10993633931E+03  0.47000000000E+01 0.  1.
         11    1    4    4    0    0 -0.32780585291E+02 -0.10050430193E+02 -0.14290261654E+02  0.37145517862E+02  0.00000000000E+00 0. -1.
        -12    1    4    4    0    0  0.46136351709E+02 -0.47743435958E+01  0.94912234024E+00  0.46392436226E+02  0.00000000000E+00 0.  1.
</event>
<event>
12    1  0.8562501E-002  0.1978278E+03  0.7818608E-02  0.1151690E+00
         21   -1    0    0  501  502  0.00000000000E+00  0.00000000000E+00  0.45119014630E+03  0.45119014630E+03  0.00000000000E+00 0.  1.
         21   -1    0    0  502  503 -0.00000000000E+00 -0.00000000000E+00 -0.18472011906E+03  0.18472011906E+03  0.00000000000E+00 0.  1.
         -6    2    1    2    0  503 -0.51217852064E+02 -0.82187922856E+02 -0.98666163134E+02  0.22062691275E+03  0.17193923301E+03 0.  0.
        -24    2    3    3    0    0 -0.38599116695E+02 -0.63956655400E+02 -0.13733589519E+03  0.17580448786E+03  0.80409727427E+02 0.  0.
          6    2    1    2  501    0  0.51217852064E+02  0.82187922856E+02  0.36513619038E+03  0.41528335261E+03  0.17250420981E+03 0.  0.
         24    2    5    5    0    0  0.26572229813E+01  0.18096897565E+02  0.30382383494E+03  0.31405544565E+03  0.77377914996E+02 0.  0.
          5    1    5    5  501    0  0.48560629083E+02  0.64091025291E+02  0.61312355439E+02  0.10122790697E+03  0.47000000000E+01 0. -1.
        -13    1    6    6    0    0  0.26735509507E+02 -0.12757895683E+02  0.57914502785E+02  0.65051064586E+02  0.00000000000E+00 0.  1.
         14    1    6    6    0    0 -0.24078286526E+02  0.30854793248E+02  0.24590933215E+03  0.24900438106E+03  0.00000000000E+00 0. -1.
         -5    1    3    3    0  503 -0.12618735369E+02 -0.18231267456E+02  0.38669732057E+02  0.44822424886E+02  0.47000000000E+01 0.  1.
         11    1    4    4    0    0 -0.40591810084E+02 -0.37372318053E+01 -0.23619681652E+02  0.47112114247E+02  0.00000000000E+00 0. -1.
        -12    1    4    4    0    0  0.19926933888E+01 -0.60219423595E+02 -0.11371621354E+03  0.12869237361E+03  0.00000000000E+00 0.  1.
</event>
<event>
12    1  0.8562501E-002  0.1739661E+03  0.7818608E-02  0.1174081E+00
         21   -1    0    0  501  502  0.00000000000E+00  0.00000000000E+00  0.13144235793E+04  0.13144235793E+04  0.00000000000E+00 0.  1.
         21   -1    0    0  502  503 -0.00000000000E+00 -0.00000000000E+00 -0.28771909738E+02  0.28771909738E+02  0.00000000000E+00 0.  1.
         -6    2    1    2    0  503  0.21812004187E+02 -0.15442768376E+01  0.34030166398E+03  0.38219029920E+03  0.17258636672E+03 0.  0.
        -24    2    3    3    0    0 -0.33492112491E+02 -0.48943392614E+02  0.16544148165E+03  0.19270838750E+03  0.79047210456E+02 0.  0.
          6    2    1    2  501    0 -0.21812004187E+02  0.15442768376E+01  0.94535000555E+03  0.96100518981E+03  0.17136567196E+03 0.  0.
         24    2    5    5    0    0  0.22624008774E+02 -0.12075491880E+02  0.85716354401E+03  0.86121040364E+03  0.79349573900E+02 0.  0.
          5    1    5    5  501    0 -0.44436012961E+02  0.13619768717E+02  0.88186461542E+02  0.99794786172E+02  0.47000000000E+01 0. -1.
        -13    1    6    6    0    0 -0.29697971247E+02 -0.71911191612E+01  0.35025084895E+03  0.35158119814E+03  0.00000000000E+00 0.  1.
         14    1    6    6    0    0  0.52321980022E+02 -0.48843727187E+01  0.50691269505E+03  0.50962920550E+03  0.00000000000E+00 0. -1.
         -5    1    3    3    0  503  0.55304116678E+02  0.47399115776E+02  0.17486018233E+03  0.18948191170E+03  0.47000000000E+01 0.  1.
         13    1    4    4    0    0 -0.68110729363E+01 -0.65375851595E+02  0.94045744565E+02  0.11473881103E+03  0.00000000000E+00 0. -1.
        -14    1    4    4    0    0 -0.26681039555E+02  0.16432458981E+02  0.71395737086E+02  0.77969576464E+02  0.00000000000E+00 0.  1.
</event>
<event>
12    1  0.8562501E-002  0.1919976E+03  0.7818608E-02  0.1157084E+00
         21   -1    0    0  501  502  0.00000000000E+00  0.00000000000E+00  0.13648191307E+03  0.13648191307E+03  0.00000000000E+00 0. -1.
         21   -1    0    0  502  503 -0.00000000000E+00 -0.00000000000E+00 -0.80022817247E+03  0.80022817247E+03  0.00000000000E+00 0.  1.
         -6    2    1    2    0  503  0.10525744347E+02  0.82351603431E+02 -0.71347233301E+03  0.73837762999E+03  0.17107360000E+03 0.  0.
        -24    2    3    3    0    0  0.68314502690E+02  0.74593506895E+02 -0.42237439773E+03  0.44146042507E+03  0.79095590886E+02 0.  0.
          6    2    1    2  501    0 -0.10525744347E+02 -0.82351603431E+02  0.49726073608E+02  0.19833245555E+03  0.17311990829E+03 0.  0.
         24    2    5    5    0    0  0.61036883406E+02 -0.59999970748E+02  0.31671804493E+02  0.12107411096E+03  0.79563430795E+02 0.  0.
          5    1    5    5  501    0 -0.71562627754E+02 -0.22351632683E+02  0.18054269115E+02  0.77258344584E+02  0.47000000000E+01 0. -1.
        -11    1    6    6    0    0  0.16080520252E+01  0.11761777478E+02 -0.13118815245E+02  0.17692612984E+02  0.00000000000E+00 0.  1.
         12    1    6    6    0    0  0.59428831381E+02 -0.71761748226E+02  0.44790619738E+02  0.10338149798E+03  0.00000000000E+00 0. -1.
         -5    1    3    3    0  503 -0.57788758343E+02  0.77580965360E+01 -0.29109793528E+03  0.29691720492E+03  0.47000000000E+01 0.  1.
         11    1    4    4    0    0 -0.12623758335E+02 -0.61500681542E+01 -0.43126703051E+02  0.45355210603E+02  0.00000000000E+00 0. -1.
        -12    1    4    4    0    0  0.80938261026E+02  0.80743575049E+02 -0.37924769468E+03  0.39610521447E+03  0.00000000000E+00 0.  1.
</event>
<event>
12    1  0.8562501E-002  0.2071038E+03  0.7818608E-02  0.1144202E+00
         21   -1    0    0  503  502  0.00000000000E+00  0.00000000000E+00  0.18075277643E+03  0.18075277643E+03  0.00000000000E+00 0. -1.
         21   -1    0    0  501  503 -0.00000000000E+00 -0.00000000000E+00 -0.23552557681E+03  0.23552557681E+03  0.00000000000E+00 0. -1.
          6    2    1    2  501    0 -0.10873091523E+03  0.30263648740E+02 -0.30509727539E+02  0.20933902859E+03  0.17364816455E+03 0.  0.
         24    2    3    3    0    0 -0.13465270758E+03  0.87818945017E+01 -0.26023945146E+02  0.17505175212E+03  0.10843153080E+03 0.  0.
         -6    2    1    2    0  502  0.10873091523E+03 -0.30263648740E+02 -0.24263072832E+02  0.20693932465E+03  0.17174657790E+03 0.  0.
        -24    2    5    5    0    0  0.12060071745E+03 -0.67012162120E+02 -0.40713910595E+02  0.16470112508E+03  0.80210193640E+02 0.  0.
          5    1    3    3  501    0  0.25921792347E+02  0.21481754238E+02 -0.44857823936E+01  0.34287276464E+02  0.47000000000E+01 0. -1.
        -11    1    4    4    0    0 -0.31528287688E+02 -0.44363397922E+02 -0.22759241342E+02  0.58992601792E+02  0.00000000000E+00 0.  1.
         12    1    4    4    0    0 -0.10312441989E+03  0.53145292424E+02 -0.32647038042E+01  0.11605915033E+03  0.00000000000E+00 0. -1.
         -5    1    5    5    0  502 -0.11869802218E+02  0.36748513380E+02  0.16450837762E+02  0.42238199576E+02  0.47000000000E+01 0.  1.
         11    1    6    6    0    0  0.59179179904E+02  0.74201920802E+01  0.79988470561E+00  0.59647920334E+02  0.00000000000E+00 0. -1.
        -12    1    6    6    0    0  0.61421537547E+02 -0.74432354200E+02 -0.41513795300E+02  0.10505320474E+03  0.00000000000E+00 0.  1.
</event>
<event>
12    1  0.8562501E-002  0.2919204E+03  0.7818608E-02  0.1089663E+00
         21   -1    0    0  501  502  0.00000000000E+00  0.00000000000E+00  0.96419340764E+02  0.96419340764E+02  0.00000000000E+00 0. -1.
         21   -1    0    0  502  503 -0.00000000000E+00 -0.00000000000E+00 -0.87968684134E+03  0.87968684134E+03  0.00000000000E+00 0.  1.
         -6    2    1    2    0  503 -0.23027065972E+03 -0.38552196304E+02 -0.36099768006E+03  0.46275511496E+03  0.17120783523E+03 0.  0.
        -24    2    3    3    0    0 -0.95599006380E+02 -0.11443279082E+02 -0.76923944406E+02  0.14717418256E+03  0.80453888236E+02 0.  0.
          6    2    1    2  501    0  0.23027065972E+03  0.38552196304E+02 -0.42226982052E+03  0.51335106714E+03  0.17523318250E+03 0.  0.
         24    2    5    5    0    0  0.52911036916E+02 -0.28306673765E+02 -0.11607181216E+03  0.15320407683E+03  0.79987361327E+02 0.  0.
          5    1    5    5  501    0  0.17735962281E+03  0.66858870069E+02 -0.30619800835E+03  0.36014699031E+03  0.47000000000E+01 0. -1.
        -13    1    6    6    0    0  0.62404653245E+02  0.75059916328E+01 -0.76139274291E+02  0.98731300744E+02  0.00000000000E+00 0.  1.
         14    1    6    6    0    0 -0.94936163293E+01 -0.35812665398E+02 -0.39932537871E+02  0.54472776088E+02  0.00000000000E+00 0. -1.
         -5    1    3    3    0  503 -0.13467165334E+03 -0.27108917223E+02 -0.28407373565E+03  0.31558093240E+03  0.47000000000E+01 0.  1.
         11    1    4    4    0    0 -0.59976938984E+02  0.27684978149E+02 -0.65528191047E+02  0.93046413402E+02  0.00000000000E+00 0. -1.
        -12    1    4    4    0    0 -0.35622067396E+02 -0.39128257231E+02 -0.11395753359E+02  0.54127769159E+02  0.00000000000E+00 0.  1.
</event>
<event>
12    1  0.8562501E-002  0.2320616E+03  0.7818608E-02  0.1125671E+00
         21   -1    0    0  501  502  0.00000000000E+00  0.00000000000E+00  0.25759942858E+03  0.25759942858E+03  0.00000000000E+00 0.  1.
         21   -1    0    0  502  503 -0.00000000000E+00 -0.00000000000E+00 -0.25624671880E+03  0.25624671880E+03  0.00000000000E+00 0.  1.
         -6    2    1    2    0  503  0.15112531166E+03  0.19103768743E+02 -0.11238979932E+03  0.25540859688E+03  0.17145923879E+03 0.  0.
        -24    2    3    3    0    0  0.47157906084E+02  0.66554524929E+02 -0.44898375798E+02  0.12260054768E+03  0.79759997784E+02 0.  0.
          6    2    1    2  501    0 -0.15112531166E+03 -0.19103768743E+02  0.11374250910E+03  0.25843755050E+03  0.17506797345E+03 0.  0.
         24    2    5    5    0    0 -0.84902601961E+02 -0.57248453043E+02  0.11477816898E+02  0.13068536268E+03  0.80380884191E+02 0.  0.
          5    1    5    5  501    0 -0.66222709696E+02  0.38144684300E+02  0.10226469221E+03  0.12775218782E+03  0.47000000000E+01 0. -1.
        -11    1    6    6    0    0 -0.86288603437E+02 -0.50875519656E+02  0.35129139478E+02  0.10615129780E+03  0.00000000000E+00 0.  1.
         12    1    6    6    0    0  0.13860014760E+01 -0.63729333871E+01 -0.23651322581E+02  0.24534064887E+02  0.00000000000E+00 0. -1.
         -5    1    3    3    0  503  0.10396740557E+03 -0.47450756186E+02 -0.67491423519E+02  0.13280804920E+03  0.47000000000E+01 0.  1.
         11    1    4    4    0    0  0.52619431571E+02  0.68702508524E+02 -0.60726669229E+02  0.10571928685E+03  0.00000000000E+00 0. -1.
        -12    1    4    4    0    0 -0.54615254869E+01 -0.21479835947E+01  0.15828293431E+02  0.16881260827E+02  0.00000000000E+00 0.  1.
</event>
<event>
12    1  0.8562501E-002  0.2297785E+03  0.7818608E-02  0.1126860E+00
         21   -1    0    0  503  502  0.00000000000E+00  0.00000000000E+00  0.25200657815E+03  0.25200657815E+03  0.00000000000E+00 0.  1.
         21   -1    0    0  501  503 -0.00000000000E+00 -0.00000000000E+00 -0.22716888789E+03  0.22716888789E+03  0.00000000000E+00 0.  1.
          6    2    1    2  501    0 -0.13294959708E+03 -0.73741824752E+02 -0.54992582859E+02  0.23626750583E+03  0.17229247824E+03 0.  0.
         24    2    3    3    0    0 -0.38228165671E+02  0.28339657027E+02 -0.40573639441E+02  0.96186192226E+02  0.73082381916E+02 0.  0.
         -6    2    1    2    0  502  0.13294959708E+03  0.73741824752E+02  0.79830273124E+02  0.24290796022E+03  0.17180789431E+03 0.  0.
        -24    2    5    5    0    0  0.52694841239E+02 -0.26408835855E+02  0.22439081399E+02  0.10224232993E+03  0.80472409877E+02 0.  0.
          5    1    3    3  501    0 -0.94721431412E+02 -0.10208148178E+03 -0.14418943419E+02  0.14008131360E+03  0.47000000000E+01 0. -1.
        -11    1    4    4    0    0 -0.23588161649E+01 -0.20791482880E+02 -0.26468672092E+02  0.33740782095E+02  0.00000000000E+00 0.  1.
         12    1    4    4    0    0 -0.35869349506E+02  0.49131139907E+02 -0.14104967348E+02  0.62445410131E+02  0.00000000000E+00 0. -1.
         -5    1    5    5    0  502  0.80254755845E+02  0.10015066061E+03  0.57391191725E+02  0.14066563028E+03  0.47000000000E+01 0.  1.
         11    1    6    6    0    0  0.24510430175E+00 -0.43508011770E+02  0.17353581744E+02  0.46841797186E+02  0.00000000000E+00 0. -1.
        -12    1    6    6    0    0  0.52449736937E+02  0.17099175915E+02  0.50854996549E+01  0.55400532745E+02  0.00000000000E+00 0.  1.
</event>
<event>
12    1  0.8562501E-002  0.2428492E+03  0.7818608E-02  0.1118126E+00
         21   -1    0    0  501  502  0.00000000000E+00  0.00000000000E+00  0.30089206611E+03  0.30089206611E+03  0.00000000000E+00 0. -1.
         21   -1    0    0  502  503 -0.00000000000E+00 -0.00000000000E+00 -0.26731099108E+03  0.26731099108E+03  0.00000000000E+00 0. -1.
         -6    2    1    2    0  503  0.16035373199E+03 -0.57883692159E+02 -0.13106605169E+03  0.27480163803E+03  0.17109584793E+03 0.  0.
        -24    2    3    3    0    0  0.12638225315E+03 -0.23068177789E+02 -0.15810527671E+03  0.21895012861E+03  0.80232571667E+02 0.  0.
          6    2    1    2  501    0 -0.16035373199E+03  0.57883692159E+02  0.16464712672E+03  0.29340141916E+03  0.17295049942E+03 0.  0.
         24    2    5    5    0    0 -0.12087491087E+03 -0.14476909364E+02  0.75461173390E+02  0.17186599947E+03  0.94990568477E+02 0.  0.
          5    1    5    5  501    0 -0.39478821119E+02  0.72360601523E+02  0.89185953330E+02  0.12153541970E+03  0.47000000000E+01 0. -1.
        -11    1    6    6    0    0 -0.79097595687E+02 -0.32138133117E+02  0.90176401805E+02  0.12418161171E+03  0.00000000000E+00 0.  1.
         12    1    6    6    0    0 -0.41777315185E+02  0.17661223753E+02 -0.14715228415E+02  0.47684387758E+02  0.00000000000E+00 0. -1.
         -5    1    3    3    0  503  0.33971478840E+02 -0.34815514370E+02  0.27039225017E+02  0.55851509424E+02  0.47000000000E+01 0.  1.
         11    1    4    4    0    0  0.59394474708E+02 -0.51533237387E+02 -0.84816609705E+02  0.11565999941E+03  0.00000000000E+00 0. -1.
        -12    1    4    4    0    0  0.66987778444E+02  0.28465059599E+02 -0.73288667001E+02  0.10329012920E+03  0.00000000000E+00 0.  1.
</event>
<event>
12    1  0.8562501E-002  0.6228541E+03  0.7818608E-02  0.9859274E-01
         21   -1    0    0  501  502  0.00000000000E+00  0.00000000000E+00  0.75229876263E+03  0.75229876263E+03  0.00000000000E+00 0. -1.
         21   -1    0    0  502  503 -0.00000000000E+00 -0.00000000000E+00 -0.51538494824E+03  0.51538494824E+03  0.00000000000E+00 0.  1.
         -6    2    1    2    0  503 -0.51132922102E+03 -0.31075755986E+03  0.12043274781E+03  0.63439046809E+03  0.17297221158E+03 0.  0.
        -24    2    3    3    0    0 -0.11148354059E+03 -0.99037505289E+02  0.52090319591E+02  0.17679378195E+03  0.79408013868E+02 0.  0.
          6    2    1    2  501    0  0.51132922102E+03  0.31075755986E+03  0.11648106658E+03  0.63329324277E+03  0.17165272845E+03 0.  0.
         24    2    5    5    0    0  0.11420476782E+03  0.65091579627E+02  0.47479522245E+02  0.16123084404E+03  0.80383066040E+02 0.  0.
          5    1    5    5  501    0  0.39712445320E+03  0.24566598023E+03  0.69001544332E+02  0.47206239873E+03  0.47000000000E+01 0. -1.
        -13    1    6    6    0    0  0.38585922493E+02 -0.11634925351E+02 -0.63570170021E+01  0.40800203035E+02  0.00000000000E+00 0.  1.
         14    1    6    6    0    0  0.75618845330E+02  0.76726504978E+02  0.53836539247E+02  0.12043064101E+03  0.00000000000E+00 0. -1.
         -5    1    3    3    0  503 -0.39984568044E+03 -0.21172005457E+03  0.68342428220E+02  0.45759668614E+03  0.47000000000E+01 0.  1.
         13    1    4    4    0    0 -0.38236438431E+02 -0.36465666743E+02 -0.19974829158E+02  0.56486846918E+02  0.00000000000E+00 0. -1.
        -14    1    4    4    0    0 -0.73247102155E+02 -0.62571838546E+02  0.72065148749E+02  0.12030693503E+03  0.00000000000E+00 0.  1.
</event>
<event>
12    1  0.8562501E-002  0.3049905E+03  0.7818608E-02  0.1082809E+00
         21   -1    0    0  503  502  0.00000000000E+00  0.00000000000E+00  0.20583257010E+03  0.20583257010E+03  0.00000000000E+00 0.  1.
         21   -1    0    0  501  503 -0.00000000000E+00 -0.00000000000E+00 -0.47019768829E+03  0.47019768829E+03  0.00000000000E+00 0. -1.
          6    2    1    2  501    0 -0.64018249804E+02  0.24353901816E+03 -0.64783152123E+02  0.31179494927E+03  0.17207453011E+03 0.  0.
         24    2    3    3    0    0 -0.43856285847E+02  0.24646384801E+03 -0.21623377636E+02  0.26383751445E+03  0.80466523387E+02 0.  0.
         -6    2    1    2    0  502  0.64018249804E+02 -0.24353901816E+03 -0.19958196607E+03  0.36423530913E+03  0.17153661289E+03 0.  0.
        -24    2    5    5    0    0  0.27731672755E+02 -0.82091579540E+02 -0.15271669114E+03  0.19218753929E+03  0.78138271037E+02 0.  0.
          5    1    3    3  501    0 -0.20161963957E+02 -0.29248298496E+01 -0.43159774487E+02  0.47957434815E+02  0.47000000000E+01 0. -1.
        -11    1    4    4    0    0 -0.21380343262E+02  0.81368713601E+02 -0.45290579273E+02  0.95546968565E+02  0.00000000000E+00 0.  1.
         12    1    4    4    0    0 -0.22475942585E+02  0.16509513441E+03  0.23667201636E+02  0.16829054589E+03  0.00000000000E+00 0. -1.
         -5    1    5    5    0  502  0.36286577049E+02 -0.16144743862E+03 -0.46865274924E+02  0.17204776984E+03  0.47000000000E+01 0.  1.
         11    1    6    6    0    0  0.51787057305E+02 -0.69150905359E+02 -0.13261288518E+03  0.15827167887E+03  0.00000000000E+00 0. -1.
        -12    1    6    6    0    0 -0.24055384550E+02 -0.12940674181E+02 -0.20103805965E+02  0.33915860426E+02  0.00000000000E+00 0.  1.
</event>
<event>
12    1  0.8562501E-002  0.1874730E+03  0.7818608E-02  0.1162936E+00
         21   -1    0    0  503  502  0.00000000000E+00  0.00000000000E+00  0.49067453811E+02  0.49067453811E+02  0.00000000000E+00 0. -1.
         21   -1    0    0  501  503 -0.00000000000E+00 -0.00000000000E+00 -0.11083329448E+04  0.11083329448E+04  0.00000000000E+00 0. -1.
          6    2    1    2  501    0 -0.65858805665E+02  0.28351980340E+02 -0.89692500341E+03  0.91630812972E+03  0.17321925349E+03 0.  0.
         24    2    3    3    0    0 -0.62898909594E+02  0.48763766233E+02 -0.30528027242E+03  0.32428534325E+03  0.75038399474E+02 0.  0.
         -6    2    1    2    0  502  0.65858805665E+02 -0.28351980340E+02 -0.16234048760E+03  0.24109226891E+03  0.16318649191E+03 0.  0.
        -24    2    5    5    0    0  0.10092583013E+03 -0.42601283020E+02 -0.11373328869E+03  0.17930644029E+03  0.84939072701E+02 0.  0.
          5    1    3    3  501    0 -0.29598960709E+01 -0.20411785893E+02 -0.59164473099E+03  0.59202278647E+03  0.47000000000E+01 0. -1.
        -13    1    4    4    0    0  0.11095968163E+02  0.31222254574E+02 -0.83782147045E+02  0.90096602897E+02  0.00000000000E+00 0.  1.
         14    1    4    4    0    0 -0.73994877757E+02  0.17541511659E+02 -0.22149812537E+03  0.23418874036E+03  0.00000000000E+00 0. -1.
         -5    1    5    5    0  502 -0.35067024469E+02  0.14249302680E+02 -0.48607198919E+02  0.61785828624E+02  0.47000000000E+01 0.  1.
         13    1    6    6    0    0  0.24497272218E+02 -0.18792503558E+02  0.95456243820E+01  0.32317077234E+02  0.00000000000E+00 0. -1.
        -14    1    6    6    0    0  0.76428557916E+02 -0.23808779462E+02 -0.12327891307E+03  0.14698936306E+03  0.00000000000E+00 0.  1.
</event>
<event>
12    1  0.8562501E-002  0.1839246E+03  0.7818608E-02  0.1164299E+00
         21   -1    0    0  501  502  0.00000000000E+00  0.00000000000E+00  0.10207617449E+03  0.10207617449E+03  0.00000000000E+00 0.  1.
         21   -1    0    0  502  503 -0.00000000000E+00 -0.00000000000E+00 -0.68924214082E+03  0.68924214082E+03  0.00000000000E+00 0.  1.
         -6    2    1    2    0  503  0.63464363173E+02  0.64165975216E+01 -0.57901148369E+03  0.60721302685E+03  0.17141897098E+03 0.  0.
        -24    2    3    3    0    0  0.46244293140E+02  0.56396093056E+02 -0.50292609133E+03  0.51444688153E+03  0.80011790495E+02 0.  0.
          6    2    1    2  501    0 -0.63464363173E+02 -0.64165975216E+01 -0.81544826371E+01  0.18410528847E+03  0.17250902451E+03 0.  0.
         24    2    5    5    0    0 -0.38721284186E+02  0.56227664352E+02 -0.35539099590E+02  0.11124562371E+03  0.80322307652E+02 0.  0.
          5    1    5    5  501    0 -0.24743078987E+02 -0.62644261873E+02  0.27384616953E+02  0.72859664761E+02  0.47000000000E+01 0. -1.
        -13    1    6    6    0    0 -0.19076632572E+02 -0.91946804807E+00  0.21073556632E+02  0.28440431096E+02  0.00000000000E+00 0.  1.
         14    1    6    6    0    0 -0.19644651614E+02  0.57147132400E+02 -0.56612656223E+02  0.82805192610E+02  0.00000000000E+00 0. -1.
         -5    1    3    3    0  503  0.17220070033E+02 -0.49979495535E+02 -0.76085392363E+02  0.92766145317E+02  0.47000000000E+01 0.  1.
         13    1    4    4    0    0  0.40361389809E+02  0.36501683691E+02 -0.12982063562E+03  0.14076509558E+03  0.00000000000E+00 0. -1.
        -14    1    4    4    0    0  0.58829033303E+01  0.19894409365E+02 -0.37310545571E+03  0.37368178596E+03  0.00000000000E+00 0.  1.
</event>
<event>
12    1  0.8562501E-002  0.1908796E+03  0.7818608E-02  0.1157695E+00
         21   -1    0    0  503  502  0.00000000000E+00  0.00000000000E+00  0.73816258531E+03  0.73816258531E+03  0.00000000000E+00 0.  1.
         21   -1    0    0  501  503 -0.00000000000E+00 -0.00000000000E+00 -0.10769762650E+03  0.10769762650E+03  0.00000000000E+00 0.  1.
          6    2    1    2  501    0  0.19403305440E+02 -0.81618524643E+02  0.39244459623E+01  0.19091993171E+03  0.17145537968E+03 0.  0.
         24    2    3    3    0    0 -0.56502616826E+02 -0.29065713075E+02 -0.14515507577E+02  0.96656317708E+02  0.71374942437E+02 0.  0.
         -6    2    1    2    0  502 -0.19403305440E+02  0.81618524643E+02  0.62654051286E+03  0.65494028010E+03  0.17133500639E+03 0.  0.
        -24    2    5    5    0    0  0.27870984674E+02  0.36475919680E+00  0.18824137910E+03  0.20664879729E+03  0.80572847659E+02 0.  0.
          5    1    3    3  501    0  0.75905922266E+02 -0.52552811568E+02  0.18439953539E+02  0.94263614005E+02  0.47000000000E+01 0. -1.
        -13    1    4    4    0    0  0.12161405301E+02 -0.19919124815E+02  0.65742237951E+01  0.24246478730E+02  0.00000000000E+00 0.  1.
         14    1    4    4    0    0 -0.68664022128E+02 -0.91465882599E+01 -0.21089731372E+02  0.72409838978E+02  0.00000000000E+00 0. -1.
         -5    1    5    5    0  502 -0.47274290114E+02  0.81253765447E+02  0.43829913376E+03  0.44829148281E+03  0.47000000000E+01 0.  1.
         13    1    6    6    0    0  0.49290657536E+02  0.66107780614E+01  0.67382437810E+02  0.83747622248E+02  0.00000000000E+00 0. -1.
        -14    1    6    6    0    0 -0.21419672862E+02 -0.62460188646E+01  0.12085894129E+03  0.12290117504E+03  0.00000000000E+00 0.  1.
</event>
<event>
12    1  0.8562501E-002  0.4309799E+03  0.7818608E-02  0.1033571E+00
         21   -1    0    0  501  502  0.00000000000E+00  0.00000000000E+00  0.24577211723E+04  0.24577211723E+04  0.00000000000E+00 0. -1.
         21   -1    0    0  502  503 -0.00000000000E+00 -0.00000000000E+00 -0.78085164068E+02  0.78085164068E+02  0.00000000000E+00 0.  1.
         -6    2    1    2    0  503 -0.30544345932E+03 -0.25022930311E+03  0.96081352035E+03  0.10530461829E+04  0.17272299053E+03 0.  0.
        -24    2    3    3    0    0 -0.13593879274E+03 -0.42683072783E+02  0.37985338044E+03  0.41324617987E+03  0.78629603015E+02 0.  0.
          6    2    1    2  501    0  0.30544345932E+03  0.25022930311E+03  0.14188224879E+04  0.14827601535E+04  0.17207559275E+03 0.  0.
         24    2    5    5    0    0  0.23883938105E+03  0.22777394879E+03  0.13094480673E+04  0.13526632663E+04  0.78220517120E+02 0.  0.
          5    1    5    5  501    0  0.66604078265E+02  0.22455354316E+02  0.10937442060E+03  0.13009688721E+03  0.47000000000E+01 0. -1.
        -11    1    6    6    0    0  0.57239171691E+02  0.72987201959E+02  0.24937254988E+03  0.26606413336E+03  0.00000000000E+00 0.  1.
         12    1    6    6    0    0  0.18160020936E+03  0.15478674684E+03  0.10600755174E+04  0.10865991329E+04  0.00000000000E+00 0. -1.
         -5    1    3    3    0  503 -0.16950466658E+03 -0.20754623033E+03  0.58096013991E+03  0.63980000303E+03  0.47000000000E+01 0.  1.
         13    1    4    4    0    0 -0.10163378130E+03 -0.39048463000E+02  0.35334964274E+03  0.36974339479E+03  0.00000000000E+00 0. -1.
        -14    1    4    4    0    0 -0.34305011432E+02 -0.36346097829E+01  0.26503737703E+02  0.43502785082E+02  0.00000000000E+00 0.  1.
</event>
<event>
12    1  0.8562501E-002  0.1931602E+03  0.7818608E-02  0.1155755E+00
         21   -1    0    0  501  502  0.00000000000E+00  0.00000000000E+00  0.16160265691E+03  0.16160265691E+03  0.00000000000E+00 0.  1.
         21   -1    0    0  502  503 -0.00000000000E+00 -0.00000000000E+00 -0.25775719479E+03  0.25775719479E+03  0.00000000000E+00 0. -1.
         -6    2    1    2    0  503 -0.60444869344E+02 -0.58743116287E+02 -0.11660871884E+03  0.22562905431E+03  0.17380029027E+03 0.  0.
        -24    2    3    3    0    0  0.54881597751E+01 -0.78164189750E+02 -0.31983107758E+02  0.11650560827E+03  0.80067953142E+02 0.  0.
          6    2    1    2  501    0  0.60444869344E+02  0.58743116287E+02  0.20454180962E+02  0.19373079740E+03  0.17323080673E+03 0.  0.
         24    2    5    5    0    0  0.27733839273E+02  0.82484266717E+01 -0.50533529845E+02  0.10055853622E+03  0.81982798102E+02 0.  0.
          5    1    5    5  501    0  0.32711030071E+02  0.50494689615E+02  0.70987710806E+02  0.93172261179E+02  0.47000000000E+01 0. -1.
        -11    1    6    6    0    0  0.20129716002E+02 -0.27853746124E+02 -0.53454738982E+02  0.63548766778E+02  0.00000000000E+00 0.  1.
         12    1    6    6    0    0  0.76041232707E+01  0.36102172796E+02  0.29212091366E+01  0.37009769441E+02  0.00000000000E+00 0. -1.
         -5    1    3    3    0  503 -0.65933029119E+02  0.19421073462E+02 -0.84625611085E+02  0.10912344604E+03  0.47000000000E+01 0.  1.
         11    1    4    4    0    0  0.10597029916E+02 -0.30035732160E+00 -0.36828599007E+02  0.38324052009E+02  0.00000000000E+00 0. -1.
        -12    1    4    4    0    0 -0.51088701406E+01 -0.77863832428E+02  0.48454912493E+01  0.78181556264E+02  0.00000000000E+00 0.  1.
</event>
<event>
12    1  0.8562501E-002  0.1940082E+03  0.7818608E-02  0.1155077E+00
         21   -1    0    0  501  502  0.00000000000E+00  0.00000000000E+00  0.10707905845E+03  0.10707905845E+03  0.00000000000E+00 0. -1.
         21   -1    0    0  502  503 -0.00000000000E+00 -0.00000000000E+00 -0.37123341817E+03  0.37123341817E+03  0.00000000000E+00 0. -1.
         -6    2    1    2    0  503 -0.56104296940E+01 -0.89011680645E+02 -0.18899215384E+03  0.27025352855E+03  0.17136037834E+03 0.  0.
        -24    2    3    3    0    0 -0.65666217965E+02 -0.42771232485E+02 -0.81724429366E+02  0.13882548182E+03  0.80325597027E+02 0.  0.
          6    2    1    2  501    0  0.56104296940E+01  0.89011680645E+02 -0.75162205875E+02  0.20805894808E+03  0.17229222986E+03 0.  0.
         24    2    5    5    0    0 -0.52599988372E+02  0.14559994198E+02 -0.21870560133E+02  0.99460624461E+02  0.80220584702E+02 0.  0.
          5    1    5    5  501    0  0.58210418066E+02  0.74451686447E+02 -0.53291645742E+02  0.10859832362E+03  0.47000000000E+01 0. -1.
        -13    1    6    6    0    0 -0.19869386065E+02  0.57210766943E+01 -0.50828956956E+02  0.54873546326E+02  0.00000000000E+00 0.  1.
         14    1    6    6    0    0 -0.32730602307E+02  0.88389175035E+01  0.28958396824E+02  0.44587078135E+02  0.00000000000E+00 0. -1.
         -5    1    3    3    0  503  0.60055788271E+02 -0.46240448160E+02 -0.10726772448E+03  0.13142804672E+03  0.47000000000E+01 0.  1.
         13    1    4    4    0    0 -0.62754385493E+02  0.43650392668E+01 -0.33264636542E+02  0.71159697236E+02  0.00000000000E+00 0. -1.
        -14    1    4    4    0    0 -0.29118324715E+01 -0.47136271752E+02 -0.48459792824E+02  0.67665784586E+02  0.00000000000E+00 0.  1.
</event>
<event>
12    1  0.8562501E-002  0.2121365E+03  0.7818608E-02  0.1140350E+00
         21   -1    0    0  501  502  0.00000000000E+00  0.00000000000E+00  0.97990980589E+02  0.97990980589E+02  0.00000000000E+00 0. -1.
         21   -1    0    0  502  503 -0.00000000000E+00 -0.00000000000E+00 -0.46604924649E+03  0.46604924649E+03  0.00000000000E+00 0. -1.
         -6    2    1    2    0  503 -0.26480216737E+02  0.11969699711E+03 -0.13795318009E+03  0.25107016395E+03  0.17022506964E+03 0.  0.
        -24    2    3    3    0    0  0.51121602431E+02  0.74266248964E+02 -0.80987518975E+02  0.14451890041E+03  0.78726363922E+02 0.  0.
          6    2    1    2  501    0  0.26480216737E+02 -0.11969699711E+03 -0.23010508581E+03  0.31297006313E+03  0.17312809392E+03 0.  0.
         24    2    5    5    0    0 -0.17841221637E+02  0.32121387744E+00 -0.10926181588E+03  0.13691908541E+03  0.80562268910E+02 0.  0.
          5    1    5    5  501    0  0.44321438374E+02 -0.12001821099E+03 -0.12084326993E+03  0.17605097772E+03  0.47000000000E+01 0. -1.
        -11    1    6    6    0    0  0.30651119738E+02 -0.32178109867E+00 -0.24404709826E+02  0.39181431137E+02  0.00000000000E+00 0.  1.
         12    1    6    6    0    0 -0.48492341375E+02  0.64299497611E+00 -0.84857106056E+02  0.97737654273E+02  0.00000000000E+00 0. -1.
         -5    1    3    3    0  503 -0.77601819168E+02  0.45430748146E+02 -0.56965661118E+02  0.10655126354E+03  0.47000000000E+01 0.  1.
         13    1    4    4    0    0  0.14368366838E+02  0.51091559854E+02 -0.52687881081E+00  0.53076125096E+02  0.00000000000E+00 0. -1.
        -14    1    4    4    0    0  0.36753235593E+02  0.23174689110E+02 -0.80460640165E+02  0.91442775317E+02  0.00000000000E+00 0.  1.
</event>
<event>
12    1  0.8562501E-002  0.2037128E+03  0.7818608E-02  0.1146861E+00
         21   -1    0    0  501  502  0.00000000000E+00  0.00000000000E+00  0.15646259361E+04  0.15646259361E+04  0.00000000000E+00 0. -1.
         21   -1    0    0  502  503 -0.00000000000E+00 -0.00000000000E+00 -0.46432713804E+02  0.46432713804E+02  0.00000000000E+00 0. -1.
         -6    2    1    2    0  503  0.69819503664E+02 -0.82852215733E+02  0.23093444332E+03  0.30794419733E+03  0.17250988035E+03 0.  0.
        -24    2    3    3    0    0  0.78194692254E+02 -0.63656650250E+02  0.71000870018E+02  0.14657675518E+03  0.79227789307E+02 0.  0.
          6    2    1    2  501    0 -0.69819503664E+02  0.82852215733E+02  0.12872587790E+04  0.13031144526E+04  0.17126838500E+03 0.  0.
         24    2    5    5    0    0 -0.21069706548E+01 -0.10490367948E+02  0.32977743678E+03  0.33870248888E+03  0.76496607892E+02 0.  0.
          5    1    5    5  501    0 -0.67712533009E+02  0.93342583681E+02  0.95748134225E+03  0.96441196374E+03  0.47000000000E+01 0. -1.
        -13    1    6    6    0    0 -0.15530992271E+02  0.24159171576E+02  0.61642262153E+02  0.68004748184E+02  0.00000000000E+00 0.  1.
         14    1    6    6    0    0  0.13424021617E+02 -0.34649539524E+02  0.26813517462E+03  0.27069774069E+03  0.00000000000E+00 0. -1.
         -5    1    3    3    0  503 -0.83751885898E+01 -0.19195565483E+02  0.15993357330E+03  0.16136744215E+03  0.47000000000E+01 0.  1.
         13    1    4    4    0    0  0.51779450391E+02  0.72974893520E+01  0.33340787209E+02  0.62015908648E+02  0.00000000000E+00 0. -1.
        -14    1    4    4    0    0  0.26415241863E+02 -0.70954139602E+02  0.37660082808E+02  0.84560846534E+02  0.00000000000E+00 0.  1.
</event>
<event>
12    1  0.8562501E-002  0.2564652E+03  0.7818608E-02  0.1109637E+00
         21   -1    0    0  501  502  0.00000000000E+00  0.00000000000E+00  0.94558580257E+02  0.94558580257E+02  0.00000000000E+00 0.  1.
         21   -1    0    0  502  503 -0.00000000000E+00 -0.00000000000E+00 -0.73349422493E+03  0.73349422493E+03  0.00000000000E+00 0.  1.
         -6    2    1    2    0  503  0.25625936135E+02 -0.18615436607E+03 -0.21931131905E+03  0.33744901537E+03  0.17454010056E+03 0.  0.
        -24    2    3    3    0    0 -0.44899146304E+02 -0.12614563635E+03 -0.17461551024E+03  0.23451874664E+03  0.81116035416E+02 0.  0.
          6    2    1    2  501    0 -0.25625936135E+02  0.18615436607E+03 -0.41962432563E+03  0.49060378982E+03  0.17116473736E+03 0.  0.
         24    2    5    5    0    0 -0.63722828585E+02  0.86157363192E+02 -0.15482494690E+03  0.20496140016E+03  0.80961233040E+02 0.  0.
          5    1    5    5  501    0  0.38096892450E+02  0.99997002877E+02 -0.26479937873E+03  0.28564238966E+03  0.47000000000E+01 0. -1.
        -11    1    6    6    0    0 -0.49449969619E+02  0.93840413495E+02 -0.15607040487E+03  0.18870425002E+03  0.00000000000E+00 0.  1.
         12    1    6    6    0    0 -0.14272858966E+02 -0.76830503027E+01  0.12454579637E+01  0.16257150137E+02  0.00000000000E+00 0. -1.
         -5    1    3    3    0  503  0.70525082439E+02 -0.60008729717E+02 -0.44695808805E+02  0.10293026873E+03  0.47000000000E+01 0.  1.
         13    1    4    4    0    0 -0.26508905647E+01 -0.39776240040E+02 -0.11421540030E+03  0.12097245206E+03  0.00000000000E+00 0. -1.
        -14    1    4    4    0    0 -0.42248255739E+02 -0.86369396312E+02 -0.60400109942E+02  0.11354629458E+03  0.00000000000E+00 0.  1.
</event>
<event>
12    1  0.8562501E-002  0.1782343E+03  0.7818608E-02  0.1169569E+00
         21   -1    0    0  503  502  0.00000000000E+00  0.00000000000E+00  0.56489370951E+03  0.56489370951E+03  0.00000000000E+00 0. -1.
         21   -1    0    0  501  503 -0.00000000000E+00 -0.00000000000E+00 -0.56225738781E+02  0.56225738781E+02  0.00000000000E+00 0.  1.
          6    2    1    2  501    0  0.33635943138E+02 -0.31404051229E+02  0.24528380549E+03  0.30320224715E+03  0.17219136545E+03 0.  0.
         24    2    3    3    0    0 -0.38528031033E+02 -0.41455818724E+02  0.18983899128E+03  0.21152403479E+03  0.74165899200E+02 0.  0.
         -6    2    1    2    0  502 -0.33635943138E+02  0.31404051229E+02  0.26338416524E+03  0.31791720114E+03  0.17199574756E+03 0.  0.
        -24    2    5    5    0    0  0.44298757950E+02  0.37041494943E+02  0.15068077499E+03  0.18069569197E+03  0.81312882387E+02 0.  0.
          5    1    3    3  501    0  0.72163974171E+02  0.10051767494E+02  0.55444814211E+02  0.91678212356E+02  0.47000000000E+01 0. -1.
        -11    1    4    4    0    0 -0.11095692143E+02  0.21310808977E+02  0.61940968120E+02  0.66437553349E+02  0.00000000000E+00 0.  1.
         12    1    4    4    0    0 -0.27432338890E+02 -0.62766627701E+02  0.12789802316E+03  0.14508648144E+03  0.00000000000E+00 0. -1.
         -5    1    5    5    0  502 -0.77934701088E+02 -0.56374437139E+01  0.11270339025E+03  0.13722150917E+03  0.47000000000E+01 0.  1.
         11    1    6    6    0    0  0.28313251840E+02  0.45623174410E+02  0.36133664963E+02  0.64720599632E+02  0.00000000000E+00 0. -1.
        -12    1    6    6    0    0  0.15985506111E+02 -0.85816794669E+01  0.11454711002E+03  0.11597509234E+03  0.00000000000E+00 0.  1.
</event>
<event>
12    1  0.8562501E-002  0.2198008E+03  0.7818608E-02  0.1134119E+00
         21   -1    0    0  503  502  0.00000000000E+00  0.00000000000E+00  0.87952750935E+02  0.87952750935E+02  0.00000000000E+00 0.  1.
         21   -1    0    0  501  503 -0.00000000000E+00 -0.00000000000E+00 -0.12569759129E+04  0.12569759129E+04  0.00000000000E+00 0.  1.
          6    2    1    2  501    0 -0.12280068026E+03  0.54872792680E+02 -0.10892288706E+04  0.11110921074E+04  0.17324868898E+03 0.  0.
         24    2    3    3    0    0 -0.10078567645E+02  0.69548177592E+02 -0.47109353409E+03  0.48257398851E+03  0.77524254200E+02 0.  0.
         -6    2    1    2    0  502  0.12280068026E+03 -0.54872792680E+02 -0.79794291379E+02  0.23383655640E+03  0.17384296282E+03 0.  0.
        -24    2    5    5    0    0 -0.18770941215E+01 -0.32822966925E+02 -0.84800041919E+00  0.84553774078E+02  0.77895769886E+02 0.  0.
          5    1    3    3  501    0 -0.11272211262E+03 -0.14675384912E+02 -0.61813533651E+03  0.62851811894E+03  0.47000000000E+01 0. -1.
        -11    1    4    4    0    0 -0.20334660754E+02  0.62772664154E+02 -0.46339685430E+03  0.46807109542E+03  0.00000000000E+00 0.  1.
         12    1    4    4    0    0  0.10256093108E+02  0.67755134375E+01 -0.76966797995E+01  0.14502893095E+02  0.00000000000E+00 0. -1.
         -5    1    5    5    0  502  0.12467777439E+03 -0.22049825755E+02 -0.78946290960E+02  0.14928278232E+03  0.47000000000E+01 0.  1.
         11    1    6    6    0    0 -0.16455477035E+02 -0.51303656731E+02 -0.16426974485E+02  0.56326666946E+02  0.00000000000E+00 0. -1.
        -12    1    6    6    0    0  0.14578382914E+02  0.18480689807E+02  0.15578974066E+02  0.28227107132E+02  0.00000000000E+00 0.  1.
</event>
<event>
12    1  0.8562501E-002  0.2378637E+03  0.7818608E-02  0.1121291E+00
         21   -1    0    0  501  502  0.00000000000E+00  0.00000000000E+00  0.14295923201E+04  0.14295923201E+04  0.00000000000E+00 0.  1.
         21   -1    0    0  502  503 -0.00000000000E+00 -0.00000000000E+00 -0.12637845037E+03  0.12637845037E+03  0.00000000000E+00 0.  1.
         -6    2    1    2    0  503 -0.16171883198E+03  0.29066036881E+02  0.67722542327E+01  0.23796010133E+03  0.17199224192E+03 0.  0.
        -24    2    3    3    0    0 -0.92037303388E+02 -0.20815511455E+02  0.59355215530E+02  0.13730851361E+03  0.80165052038E+02 0.  0.
          6    2    1    2  501    0  0.16171883198E+03 -0.29066036881E+02  0.12964416155E+04  0.13180106691E+04  0.17144517039E+03 0.  0.
         24    2    5    5    0    0  0.72040591485E+02 -0.13232999123E+02  0.10436531527E+04  0.10492785184E+04  0.80053400943E+02 0.  0.
          5    1    5    5  501    0  0.89678240494E+02 -0.15833037758E+02  0.25278846281E+03  0.26873215072E+03  0.47000000000E+01 0. -1.
        -11    1    6    6    0    0  0.26544491910E+02  0.33807647972E+02  0.39419197803E+03  0.39652853952E+03  0.00000000000E+00 0.  1.
         12    1    6    6    0    0  0.45496099575E+02 -0.47040647095E+02  0.64946117466E+03  0.65274997890E+03  0.00000000000E+00 0. -1.
         -5    1    3    3    0  503 -0.69681528591E+02  0.49881548335E+02 -0.52582961297E+02  0.10065158772E+03  0.47000000000E+01 0.  1.
         11    1    4    4    0    0 -0.66160126763E+02  0.16547456608E+02  0.61466808767E+02  0.91810398504E+02  0.00000000000E+00 0. -1.
        -12    1    4    4    0    0 -0.25877176625E+02 -0.37362968063E+02 -0.21115932367E+01  0.45498115110E+02  0.00000000000E+00 0.  1.
</event>
<event>
12    1  0.8562501E-002  0.1970023E+03  0.7818608E-02  0.1153239E+00
         21   -1    0    0  503  502  0.00000000000E+00  0.00000000000E+00  0.71555085564E+03  0.71555085564E+03  0.00000000000E+00 0.  1.
         21   -1    0    0  501  503 -0.00000000000E+00 -0.00000000000E+00 -0.54675149061E+02  0.54675149061E+02  0.00000000000E+00 0.  1.
          6    2    1    2  501    0  0.91679337489E+02 -0.22114136583E+02  0.26757520400E+03  0.33227455845E+03  0.17296171958E+03 0.  0.
         24    2    3    3    0    0 -0.34388859656E+00 -0.27254396821E+01  0.20595740997E+03  0.21974439250E+03  0.76561067360E+02 0.  0.
         -6    2    1    2    0  502 -0.91679337489E+02  0.22114136583E+02  0.39330050258E+03  0.43795144625E+03  0.16799419033E+03 0.  0.
        -24    2    5    5    0    0 -0.85521103390E+02  0.73253457878E+02  0.31675377978E+03  0.34556830493E+03  0.80028545832E+02 0.  0.
          5    1    3    3  501    0  0.92023226086E+02 -0.19388696901E+02  0.61617794030E+02  0.11253016595E+03  0.47000000000E+01 0. -1.
        -11    1    4    4    0    0  0.80126532901E+01 -0.38489684729E+01 -0.39075616360E+01  0.97101085984E+01  0.00000000000E+00 0.  1.
         12    1    4    4    0    0 -0.83565418867E+01  0.11235287907E+01  0.20986497161E+03  0.21003428391E+03  0.00000000000E+00 0. -1.
         -5    1    5    5    0  502 -0.61582340997E+01 -0.51139321295E+02  0.76546722800E+02  0.92383141325E+02  0.47000000000E+01 0.  1.
         11    1    6    6    0    0 -0.51440522388E+02  0.10471180574E+02  0.63277412728E+02  0.82218026780E+02  0.00000000000E+00 0. -1.
        -12    1    6    6    0    0 -0.34080581002E+02  0.62782277305E+02  0.25347636705E+03  0.26335027815E+03  0.00000000000E+00 0.  1.
</event>
<event>
12    1  0.8562501E-002  0.2344700E+03  0.7818608E-02  0.1123575E+00
         21   -1    0    0  501  502  0.00000000000E+00  0.00000000000E+00  0.27498726521E+03  0.27498726521E+03  0.00000000000E+00 0.  1.
         21   -1    0    0  502  503 -0.00000000000E+00 -0.00000000000E+00 -0.20025496584E+03  0.20025496584E+03  0.00000000000E+00 0.  1.
         -6    2    1    2    0  503  0.17565832559E+02 -0.15804702038E+03  0.49729004266E+02  0.23944288795E+03  0.17196657699E+03 0.  0.
        -24    2    3    3    0    0  0.45947644356E+02 -0.17670845988E+03  0.31294358303E+02  0.20051086082E+03  0.76734624698E+02 0.  0.
          6    2    1    2  501    0 -0.17565832559E+02  0.15804702038E+03  0.25003295100E+02  0.23579934310E+03  0.17230422606E+03 0.  0.
         24    2    5    5    0    0 -0.55731002574E+02  0.16600022562E+03  0.33590371394E+02  0.19560405040E+03  0.80440113924E+02 0.  0.
          5    1    5    5  501    0  0.38165170016E+02 -0.79532052442E+01 -0.85870762937E+01  0.40195292700E+02  0.47000000000E+01 0. -1.
        -11    1    6    6    0    0  0.18793893379E+01  0.11433678365E+03  0.29587591229E+02  0.11811798235E+03  0.00000000000E+00 0.  1.
         12    1    6    6    0    0 -0.57610391912E+02  0.51663441969E+02  0.40027801646E+01  0.77486068047E+02  0.00000000000E+00 0. -1.
         -5    1    3    3    0  503 -0.28381811798E+02  0.18661439504E+02  0.18434645963E+02  0.38932027138E+02  0.47000000000E+01 0.  1.
         11    1    4    4    0    0  0.48090999420E+01  0.77051170014E+01  0.20995562090E+01  0.93222532969E+01  0.00000000000E+00 0. -1.
        -12    1    4    4    0    0  0.41138544414E+02 -0.18441357688E+03  0.29194802094E+02  0.19118860752E+03  0.00000000000E+00 0.  1.
</event>
<event>
12    1  0.8562501E-002  0.1989713E+03  0.7818608E-02  0.1150680E+00
         21   -1    0    0  503  502  0.00000000000E+00  0.00000000000E+00  0.16284169197E+03  0.16284169197E+03  0.00000000000E+00 0. -1.
         21   -1    0    0  501  503 -0.00000000000E+00 -0.00000000000E+00 -0.44368621281E+03  0.44368621281E+03  0.00000000000E+00 0.  1.
          6    2    1    2  501    0 -0.63519742085E+02 -0.76542334744E+02 -0.34459001346E+03  0.39790936356E+03  0.17232555697E+03 0.  0.
         24    2    3    3    0    0 -0.53072775553E+02 -0.40582089723E+02 -0.81696416958E+02  0.13232056218E+03  0.79817298383E+02 0.  0.
         -6    2    1    2    0  502  0.63519742085E+02  0.76542334744E+02  0.63745492615E+02  0.20861854122E+03  0.17194394805E+03 0.  0.
        -24    2    5    5    0    0  0.94544285247E+02  0.90058477408E+02  0.78270901358E+02  0.17149326829E+03  0.78958570433E+02 0.  0.
          5    1    3    3  501    0 -0.10446966531E+02 -0.35960245021E+02 -0.26289359651E+03  0.26558880137E+03  0.47000000000E+01 0. -1.
        -11    1    4    4    0    0 -0.26130742030E+02  0.14188256364E+02  0.74380715374E+00  0.29743495874E+02  0.00000000000E+00 0.  1.
         12    1    4    4    0    0 -0.26942033523E+02 -0.54770346087E+02 -0.82440224112E+02  0.10257706631E+03  0.00000000000E+00 0. -1.
         -5    1    5    5    0  502 -0.31024543162E+02 -0.13516142664E+02 -0.14525408743E+02  0.37125272930E+02  0.47000000000E+01 0.  1.
         11    1    6    6    0    0  0.77287754736E+02  0.20265164382E+02  0.49903286991E+02  0.94204097427E+02  0.00000000000E+00 0. -1.
        -12    1    6    6    0    0  0.17256530511E+02  0.69793313026E+02  0.28367614367E+02  0.77289170867E+02  0.00000000000E+00 0.  1.
</event>
<event>
12    1  0.8562501E-002  0.3033135E+03  0.7818608E-02  0.1084149E+00
         21   -1    0    0  503  502  0.00000000000E+00  0.00000000000E+00  0.11300494653E+04  0.11300494653E+04  0.00000000000E+00 0. -1.
         21   -1    0    0  501  503 -0.00000000000E+00 -0.00000000000E+00 -0.25148257253E+03  0.25148257253E+03  0.00000000000E+00 0.  1.
          6    2    1    2  501    0  0.22882641590E+03  0.87199358943E+02 -0.13178819679E+03  0.32663085931E+03  0.17133106148E+03 0.  0.
         24    2    3    3    0    0  0.21984200358E+03  0.75561413976E+02 -0.16083777075E+03  0.29373512744E+03  0.79821693596E+02 0.  0.
         -6    2    1    2    0  502 -0.22882641590E+03 -0.87199358943E+02  0.10103550895E+04  0.10549011785E+04  0.17897997828E+03 0.  0.
        -24    2    5    5    0    0 -0.11664844224E+03 -0.38281912159E+02  0.32232954988E+03  0.35606067624E+03  0.88377047708E+02 0.  0.
          5    1    3    3  501    0  0.89844123204E+01  0.11637944966E+02  0.29049573969E+02  0.32895731875E+02  0.47000000000E+01 0. -1.
        -11    1    4    4    0    0  0.50460362332E+02  0.55830393495E+02 -0.48315764736E+02  0.89429827946E+02  0.00000000000E+00 0.  1.
         12    1    4    4    0    0  0.16938164125E+03  0.19731020481E+02 -0.11252200602E+03  0.20430529949E+03  0.00000000000E+00 0. -1.
         -5    1    5    5    0  502 -0.11217797366E+03 -0.48917446783E+02  0.68802553966E+03  0.69884050226E+03  0.47000000000E+01 0.  1.
         13    1    6    6    0    0 -0.58794470933E+01 -0.35053216687E+02  0.12260468409E+03  0.12765267118E+03  0.00000000000E+00 0. -1.
        -14    1    6    6    0    0 -0.11076899515E+03 -0.32286954724E+01  0.19972486580E+03  0.22840800507E+03  0.00000000000E+00 0.  1.
</event>
<event>
12    1  0.8562501E-002  0.2517047E+03  0.7818608E-02  0.1112690E+00
         21   -1    0    0  503  502  0.00000000000E+00  0.00000000000E+00  0.42658169312E+03  0.42658169312E+03  0.00000000000E+00 0.  1.
         21   -1    0    0  501  503 -0.00000000000E+00 -0.00000000000E+00 -0.15637108902E+03  0.15637108902E+03  0.00000000000E+00 0.  1.
          6    2    1    2  501    0 -0.59879168892E+02 -0.16906706649E+03  0.63768729942E+02  0.25965689696E+03  0.17659576831E+03 0.  0.
         24    2    3    3    0    0  0.22797282933E+02 -0.10834620378E+03  0.34475194449E+02  0.15287384552E+03  0.99615549127E+02 0.  0.
         -6    2    1    2    0  502  0.59879168892E+02  0.16906706649E+03  0.20644187415E+03  0.32329588518E+03  0.17243199856E+03 0.  0.
        -24    2    5    5    0    0  0.22444377571E+02  0.84275515048E+01  0.85872411390E+02  0.11892978543E+03  0.78711175285E+02 0.  0.
          5    1    3    3  501    0 -0.82676451825E+02 -0.60720862704E+02  0.29293535494E+02  0.10678305144E+03  0.47000000000E+01 0. -1.
        -11    1    4    4    0    0 -0.22865455487E+02 -0.62086382139E+02 -0.18853106421E+02  0.68796711574E+02  0.00000000000E+00 0.  1.
         12    1    4    4    0    0  0.45662738420E+02 -0.46259821646E+02  0.53328300870E+02  0.84077133945E+02  0.00000000000E+00 0. -1.
         -5    1    5    5    0  502  0.37434791322E+02  0.16063951498E+03  0.12056946276E+03  0.20436609975E+03  0.47000000000E+01 0.  1.
         13    1    6    6    0    0 -0.38747881917E+01 -0.18284849606E+02  0.78522381070E+02  0.80716256340E+02  0.00000000000E+00 0. -1.
        -14    1    6    6    0    0  0.26319165762E+02  0.26712401111E+02  0.73500303193E+01  0.38213529086E+02  0.00000000000E+00 0.  1.
</event>
<event>
12    1  0.8562501E-002  0.1844288E+03  0.7818608E-02  0.1164164E+00
         21   -1    0    0  503  502  0.00000000000E+00  0.00000000000E+00  0.64447427736E+02  0.64447427736E+02  0.00000000000E+00 0. -1.
         21   -1    0    0  501  503 -0.00000000000E+00 -0.00000000000E+00 -0.77611025199E+03  0.77611025199E+03  0.00000000000E+00 0. -1.
          6    2    1    2  501    0 -0.18584046491E+02  0.58707446579E+02 -0.59529159179E+03  0.62248372319E+03  0.17123660625E+03 0.  0.
         24    2    3    3    0    0  0.18797373999E+02  0.98358607647E+01 -0.13530943220E+03  0.15838084706E+03  0.79534677006E+02 0.  0.
         -6    2    1    2    0  502  0.18584046491E+02 -0.58707446579E+02 -0.11637123246E+03  0.21807395653E+03  0.17384491854E+03 0.  0.
        -24    2    5    5    0    0 -0.49317430726E+02 -0.64316282352E+02 -0.91944926786E+02  0.14554255605E+03  0.78485494900E+02 0.  0.
          5    1    3    3  501    0 -0.37381420490E+02  0.48871585814E+02 -0.45998215959E+03  0.46410287614E+03  0.47000000000E+01 0. -1.
        -11    1    4    4    0    0  0.31391339862E+01 -0.30395410230E+02 -0.93169536100E+02  0.98052524610E+02  0.00000000000E+00 0.  1.
         12    1    4    4    0    0  0.15658240013E+02  0.40231270995E+02 -0.42139896101E+02  0.60328322449E+02  0.00000000000E+00 0. -1.
         -5    1    5    5    0  502  0.67901477217E+02  0.56088357737E+01 -0.24426305676E+02  0.72531400483E+02  0.47000000000E+01 0.  1.
         11    1    6    6    0    0 -0.51294242527E+02 -0.78834481875E+02 -0.63308194506E+02  0.11337505167E+03  0.00000000000E+00 0. -1.
        -12    1    6    6    0    0  0.19768118016E+01  0.14518199523E+02 -0.28636732281E+02  0.32167504379E+02  0.00000000000E+00 0.  1.
</event>
<event>
12    1  0.8562501E-002  0.1735005E+03  0.7818608E-02  0.1174404E+00
         21   -1    0    0  501  502  0.00000000000E+00  0.00000000000E+00  0.60502566434E+02  0.60502566434E+02  0.00000000000E+00 0. -1.
         21   -1    0    0  502  503 -0.00000000000E+00 -0.00000000000E+00 -0.53364266563E+03  0.53364266563E+03  0.00000000000E+00 0. -1.
         -6    2    1    2    0  503  0.19245831724E+02 -0.42235282163E+01 -0.31533171308E+03  0.35961182775E+03  0.17175079957E+03 0.  0.
        -24    2    3    3    0    0 -0.52208797390E+02 -0.28367633125E+02 -0.16588002439E+03  0.19214063896E+03  0.76624810029E+02 0.  0.
          6    2    1    2  501    0 -0.19245831724E+02  0.42235282163E+01 -0.15780838612E+03  0.23453340432E+03  0.17237804611E+03 0.  0.
         24    2    5    5    0    0  0.50104204740E+02 -0.13240892140E+02 -0.11669024787E+03  0.15190638193E+03  0.82299346081E+02 0.  0.
          5    1    5    5  501    0 -0.69350036464E+02  0.17464420356E+02 -0.41118138246E+02  0.82627022388E+02  0.47000000000E+01 0. -1.
        -11    1    6    6    0    0 -0.22795805221E+02 -0.79608263389E+01 -0.27651050447E+02  0.36709727355E+02  0.00000000000E+00 0.  1.
         12    1    6    6    0    0  0.72900009961E+02 -0.52800658009E+01 -0.89039197423E+02  0.11519665457E+03  0.00000000000E+00 0. -1.
         -5    1    3    3    0  503  0.71454629114E+02  0.24144104908E+02 -0.14945168869E+03  0.16747118880E+03  0.47000000000E+01 0.  1.
         11    1    4    4    0    0  0.72887898860E+01  0.64833929609E+01 -0.86273413816E+02  0.86823169568E+02  0.00000000000E+00 0. -1.
        -12    1    4    4    0    0 -0.59497587276E+02 -0.34851026086E+02 -0.79606610576E+02  0.10531746939E+03  0.00000000000E+00 0.  1.
</event>
<event>
12    1  0.8562501E-002  0.1812659E+03  0.7818608E-02  0.1166654E+00
         21   -1    0    0  501  502  0.00000000000E+00  0.00000000000E+00  0.37886166748E+03  0.37886166748E+03  0.00000000000E+00 0. -1.
         21   -1    0    0  502  503 -0.00000000000E+00 -0.00000000000E+00 -0.20685515582E+03  0.20685515582E+03  0.00000000000E+00 0. -1.
         -6    2    1    2    0  503 -0.42737544472E+02  0.34941308466E+02 -0.13727368407E+03  0.22737943727E+03  0.17265558610E+03 0.  0.
        -24    2    3    3    0    0 -0.54569439638E+02  0.75589561291E+02 -0.13700764872E+03  0.18478325228E+03  0.81744412649E+02 0.  0.
          6    2    1    2  501    0  0.42737544472E+02 -0.34941308466E+02  0.30928019573E+03  0.35833738603E+03  0.17234862926E+03 0.  0.
         24    2    5    5    0    0  0.22580681459E+02 -0.13269790539E+02  0.51152497390E+02  0.98475975910E+02  0.79968527098E+02 0.  0.
          5    1    5    5  501    0  0.20156863013E+02 -0.21671517928E+02  0.25812769834E+03  0.25986141012E+03  0.47000000000E+01 0. -1.
        -13    1    6    6    0    0 -0.79829250919E+01  0.14334019703E+02  0.54730701618E+02  0.57137036268E+02  0.00000000000E+00 0.  1.
         14    1    6    6    0    0  0.30563606551E+02 -0.27603810242E+02 -0.35782042280E+01  0.41338939643E+02  0.00000000000E+00 0. -1.
         -5    1    3    3    0  503  0.11831895166E+02 -0.40648252824E+02 -0.26603535621E+00  0.42596184990E+02  0.47000000000E+01 0.  1.
         11    1    4    4    0    0 -0.28686316101E+02 -0.12489847708E+02 -0.25614135848E+02  0.40434947539E+02  0.00000000000E+00 0. -1.
        -12    1    4    4    0    0 -0.25883123536E+02  0.88079408999E+02 -0.11139351287E+03  0.14434830475E+03  0.00000000000E+00 0.  1.
</event>
<event>
12    1  0.8562501E-002  0.1785958E+03  0.7818608E-02  0.1169332E+00
         21   -1    0    0  501  502  0.00000000000E+00  0.00000000000E+00  0.70571396242E+02  0.70571396242E+02  0.00000000000E+00 0.  1.
         21   -1    0    0  502  503 -0.00000000000E+00 -0.00000000000E+00 -0.51115671174E+03  0.51115671174E+03  0.00000000000E+00 0.  1.
         -6    2    1    2    0  503 -0.34811692519E+02 -0.35712464785E+02 -0.32029865303E+03  0.36640198941E+03  0.17079799950E+03 0.  0.
        -24    2    3    3    0    0 -0.60146068205E+02 -0.48656441032E+02 -0.11863878548E+03  0.16269099488E+03  0.80051231216E+02 0.  0.
          6    2    1    2  501    0  0.34811692519E+02  0.35712464785E+02 -0.12028666246E+03  0.21532611857E+03  0.17149117206E+03 0.  0.
         24    2    5    5    0    0 -0.22303423599E+02 -0.29676585675E+02 -0.62480131975E+02  0.11091563358E+03  0.83787638937E+02 0.  0.
          5    1    5    5  501    0  0.57115116118E+02  0.65389050461E+02 -0.57806530490E+02  0.10441048499E+03  0.47000000000E+01 0. -1.
        -11    1    6    6    0    0  0.17424794953E+00 -0.53782577045E+01  0.20701797577E+02  0.21389727469E+02  0.00000000000E+00 0.  1.
         12    1    6    6    0    0 -0.22477671548E+02 -0.24298327971E+02 -0.83181929552E+02  0.89525906108E+02  0.00000000000E+00 0. -1.
         -5    1    3    3    0  503  0.25334375686E+02  0.12943976247E+02 -0.20165986755E+03  0.20371099453E+03  0.47000000000E+01 0.  1.
         13    1    4    4    0    0 -0.73585404725E+02 -0.21425905245E+02 -0.62617182740E+02  0.98968645431E+02  0.00000000000E+00 0. -1.
        -14    1    4    4    0    0  0.13439336520E+02 -0.27230535786E+02 -0.56021602739E+02  0.63722349445E+02  0.00000000000E+00 0.  1.
</event>
<event>
12    1  0.8562501E-002  0.1970090E+03  0.7818608E-02  0.1152705E+00
         21   -1    0    0  503  502  0.00000000000E+00  0.00000000000E+00  0.32684548079E+03  0.32684548079E+03  0.00000000000E+00 0. -1.
         21   -1    0    0  501  503 -0.00000000000E+00 -0.00000000000E+00 -0.17260267195E+03  0.17260267195E+03  0.00000000000E+00 0. -1.
          6    2    1    2  501    0  0.14872598639E+02 -0.90748528210E+02 -0.64123892293E+02  0.20534519418E+03  0.17204152303E+03 0.  0.
         24    2    3    3    0    0  0.63098797665E+01 -0.97560729463E+02 -0.10408239804E+03  0.16364988962E+03  0.79938915910E+02 0.  0.
         -6    2    1    2    0  502 -0.14872598639E+02  0.90748528210E+02  0.21836670113E+03  0.29410295856E+03  0.17422986114E+03 0.  0.
        -24    2    5    5    0    0 -0.26509348776E+02  0.62124615700E+02  0.47117858051E+02  0.12002539374E+03  0.87314312375E+02 0.  0.
          5    1    3    3  501    0  0.85627188722E+01  0.68122012533E+01  0.39958505743E+02  0.41695304551E+02  0.47000000000E+01 0. -1.
        -11    1    4    4    0    0 -0.35614869422E+02 -0.29507554212E+02 -0.34963329316E+02  0.57978867499E+02  0.00000000000E+00 0.  1.
         12    1    4    4    0    0  0.41924749189E+02 -0.68053175251E+02 -0.69119068720E+02  0.10567102213E+03  0.00000000000E+00 0. -1.
         -5    1    5    5    0  502  0.11636750138E+02  0.28623912510E+02  0.17124884308E+03  0.17407756483E+03  0.47000000000E+01 0.  1.
         11    1    6    6    0    0 -0.56131163917E+02  0.47061940871E+02  0.46548805651E+02  0.86788969050E+02  0.00000000000E+00 0. -1.
        -12    1    6    6    0    0  0.29621815141E+02  0.15062674829E+02  0.56905240075E+00  0.33236424686E+02  0.00000000000E+00 0.  1.
</event>
<event>
12    1  0.8562501E-002  0.3599796E+03  0.7818608E-02  0.1058659E+00
         21   -1    0    0  503  502  0.00000000000E+00  0.00000000000E+00  0.54509518654E+03  0.54509518654E+03  0.00000000000E+00 0.  1.
         21   -1    0    0  501  503 -0.00000000000E+00 -0.00000000000E+00 -0.29040598574E+03  0.29040598574E+03  0.00000000000E+00 0.  1.
          6    2    1    2  501    0  0.22605192819E+03 -0.22046800209E+03 -0.51427767779E+02  0.36296235199E+03  0.17143873390E+03 0.  0.
         24    2    3    3    0    0  0.21415102183E+03 -0.22593187787E+03 -0.80134025334E+02  0.33106212106E+03  0.79213587184E+02 0.  0.
         -6    2    1    2    0  502 -0.22605192819E+03  0.22046800209E+03  0.30611696858E+03  0.47253882029E+03  0.17285752526E+03 0.  0.
        -24    2    5    5    0    0 -0.89965723192E+02  0.17496275040E+03  0.14658186201E+03  0.25791420998E+03  0.79546854498E+02 0.  0.
          5    1    3    3  501    0  0.11900906362E+02  0.54638757828E+01  0.28706257555E+02  0.31900230934E+02  0.47000000000E+01 0. -1.
        -13    1    4    4    0    0  0.93340339506E+02 -0.15548998085E+03 -0.46848931453E+02  0.18730823661E+03  0.00000000000E+00 0.  1.
         14    1    4    4    0    0  0.12081068232E+03 -0.70441897022E+02 -0.33285093880E+02  0.14375388445E+03  0.00000000000E+00 0. -1.
         -5    1    5    5    0  502 -0.13608620500E+03  0.45505251689E+02  0.15953510657E+03  0.21462461031E+03  0.47000000000E+01 0.  1.
         11    1    6    6    0    0 -0.24946540440E+02  0.10624087940E+03  0.42111521687E+02  0.11697364915E+03  0.00000000000E+00 0. -1.
        -12    1    6    6    0    0 -0.65019182752E+02  0.68721870993E+02  0.10447034033E+03  0.14094056083E+03  0.00000000000E+00 0.  1.
</event>
<event>
12    1  0.8562501E-002  0.1781245E+03  0.7818608E-02  0.1169688E+00
         21   -1    0    0  501  502  0.00000000000E+00  0.00000000000E+00  0.43918287946E+03  0.43918287946E+03  0.00000000000E+00 0. -1.
         21   -1    0    0  502  503 -0.00000000000E+00 -0.00000000000E+00 -0.72711556900E+02  0.72711556900E+02  0.00000000000E+00 0. -1.
         -6    2    1    2    0  503  0.26593251151E+02  0.30617454046E+02  0.16084523433E+03  0.23999898406E+03  0.17344651465E+03 0.  0.
        -24    2    3    3    0    0  0.84785113735E+02  0.92681623056E+01  0.10222678896E+03  0.15455720700E+03  0.78506047610E+02 0.  0.
          6    2    1    2  501    0 -0.26593251151E+02 -0.30617454046E+02  0.20562608823E+03  0.27189545230E+03  0.17320629124E+03 0.  0.
         24    2    5    5    0    0  0.51466840465E+02 -0.31813152697E+02  0.12627415788E+03  0.16047899729E+03  0.78405569124E+02 0.  0.
          5    1    5    5  501    0 -0.78060091616E+02  0.11956986507E+01  0.79351930347E+02  0.11141645501E+03  0.47000000000E+01 0. -1.
        -11    1    6    6    0    0  0.44097777752E+02 -0.49551151714E+02  0.12465281601E+03  0.14120288658E+03  0.00000000000E+00 0.  1.
         12    1    6    6    0    0  0.73690627131E+01  0.17737999018E+02  0.16213418658E+01  0.19276110704E+02  0.00000000000E+00 0. -1.
         -5    1    3    3    0  503 -0.58191862585E+02  0.21349291741E+02  0.58618445374E+02  0.85441777059E+02  0.47000000000E+01 0.  1.
         13    1    4    4    0    0  0.42853079505E+02 -0.32952054333E+02  0.64251302803E+02  0.83966982914E+02  0.00000000000E+00 0. -1.
        -14    1    4    4    0    0  0.41932034231E+02  0.42220216639E+02  0.37975486156E+02  0.70590224086E+02  0.00000000000E+00 0.  1.
</event>
<event>
12    1  0.8562501E-002  0.2762849E+03  0.7818608E-02  0.1097816E+00
         21   -1    0    0  501  502  0.00000000000E+00  0.00000000000E+00  0.76714932307E+02  0.76714932307E+02  0.00000000000E+00 0. -1.
         21   -1    0    0  502  503 -0.00000000000E+00 -0.00000000000E+00 -0.14487037528E+04  0.14487037528E+04  0.00000000000E+00 0.  1.
         -6    2    1    2    0  503  0.66608927656E+02  0.20691857043E+03 -0.11133009192E+04  0.11469312092E+04  0.16958837822E+03 0.  0.
        -24    2    3    3    0    0  0.25442614575E+02  0.32572428110E+02 -0.48837645121E+03  0.49682050839E+03  0.81306640284E+02 0.  0.
          6    2    1    2  501    0 -0.66608927656E+02 -0.20691857043E+03 -0.25868790135E+03  0.37848747591E+03  0.17053238720E+03 0.  0.
         24    2    5    5    0    0 -0.58951671137E+02 -0.67632381928E+02 -0.56566133999E+02  0.13285650327E+03  0.80010526368E+02 0.  0.
          5    1    5    5  501    0 -0.76572565193E+01 -0.13928618851E+03 -0.20212176735E+03  0.24563097264E+03  0.47000000000E+01 0. -1.
        -13    1    6    6    0    0  0.11488112876E+02 -0.42676414958E+02 -0.11798724653E+02  0.45743447995E+02  0.00000000000E+00 0.  1.
         14    1    6    6    0    0 -0.70439784013E+02 -0.24955966970E+02 -0.44767409346E+02  0.87113055271E+02  0.00000000000E+00 0. -1.
         -5    1    3    3    0  503  0.41166313082E+02  0.17434614232E+03 -0.62492446799E+03  0.65011070085E+03  0.47000000000E+01 0.  1.
         13    1    4    4    0    0  0.26842434146E+02  0.19892613117E+02 -0.63502936777E+02  0.71755524573E+02  0.00000000000E+00 0. -1.
        -14    1    4    4    0    0 -0.13998195718E+01  0.12679814993E+02 -0.42487351443E+03  0.42506498382E+03  0.00000000000E+00 0.  1.
</event>
<event>
12    1  0.8562501E-002  0.1883278E+03  0.7818608E-02  0.1160030E+00
         21   -1    0    0  503  502  0.00000000000E+00  0.00000000000E+00  0.61135788177E+03  0.61135788177E+03  0.00000000000E+00 0. -1.
         21   -1    0    0  501  503 -0.00000000000E+00 -0.00000000000E+00 -0.65720141086E+02  0.65720141086E+02  0.00000000000E+00 0. -1.
          6    2    1    2  501    0 -0.37776347959E+02  0.72256231879E+02  0.15651745706E+03  0.24487764180E+03  0.16976256825E+03 0.  0.
         24    2    3    3    0    0 -0.43822757753E+02 -0.20256779481E+02  0.10281629722E+03  0.13763436271E+03  0.77725514551E+02 0.  0.
         -6    2    1    2    0  502  0.37776347959E+02 -0.72256231879E+02  0.38912028362E+03  0.43220038105E+03  0.16951270969E+03 0.  0.
        -24    2    5    5    0    0  0.75923393571E+02 -0.72636080939E+02  0.26173354362E+03  0.29914094733E+03  0.99702038941E+02 0.  0.
          5    1    3    3  501    0  0.60464097938E+01  0.92513011360E+02  0.53701159847E+02  0.10724327910E+03  0.47000000000E+01 0. -1.
        -11    1    4    4    0    0  0.66201455864E+01 -0.37125679069E+02  0.50515371303E+02  0.63039234702E+02  0.00000000000E+00 0.  1.
         12    1    4    4    0    0 -0.50442903339E+02  0.16868899588E+02  0.52300925913E+02  0.74595128004E+02  0.00000000000E+00 0. -1.
         -5    1    5    5    0  502 -0.38147045612E+02  0.37984906024E+00  0.12738674000E+03  0.13305943372E+03  0.47000000000E+01 0.  1.
         13    1    6    6    0    0  0.47232466574E+01 -0.44330379629E+02  0.18651909305E+03  0.19177294827E+03  0.00000000000E+00 0. -1.
        -14    1    6    6    0    0  0.71200146914E+02 -0.28305701310E+02  0.75214450567E+02  0.10736799906E+03  0.00000000000E+00 0.  1.
</event>
<event>
12    1  0.8562501E-002  0.3061508E+03  0.7818608E-02  0.1082699E+00
         21   -1    0    0  501  502  0.00000000000E+00  0.00000000000E+00  0.46144122397E+03  0.46144122397E+03  0.00000000000E+00 0. -1.
         21   -1    0    0  502  503 -0.00000000000E+00 -0.00000000000E+00 -0.22906594036E+03  0.22906594036E+03  0.00000000000E+00 0.  1.
         -6    2    1    2    0  503 -0.17939879081E+03 -0.17369745257E+03 -0.64913124093E+01  0.30219601174E+03  0.17007516338E+03 0.  0.
        -24    2    3    3    0    0 -0.19508634617E+02 -0.85763468269E+02  0.68187456433E+01  0.11917553395E+03  0.80127107059E+02 0.  0.
          6    2    1    2  501    0  0.17939879081E+03  0.17369745257E+03  0.23886659602E+03  0.38831115259E+03  0.17712585738E+03 0.  0.
         24    2    5    5    0    0  0.54628464683E+02  0.57176986535E+01  0.94875623889E+02  0.13426327902E+03  0.77513114071E+02 0.  0.
          5    1    5    5  501    0  0.12477032613E+03  0.16797975392E+03  0.14399097213E+03  0.25404787357E+03  0.47000000000E+01 0. -1.
        -11    1    6    6    0    0  0.73417062582E+02  0.70183936462E+01  0.86438253141E+02  0.11362611730E+03  0.00000000000E+00 0.  1.
         12    1    6    6    0    0 -0.18788597899E+02 -0.13006949928E+01  0.84373707482E+01  0.20637161715E+02  0.00000000000E+00 0. -1.
         -5    1    3    3    0  503 -0.15989015620E+03 -0.87933984303E+02 -0.13310058053E+02  0.18302047779E+03  0.47000000000E+01 0.  1.
         11    1    4    4    0    0 -0.43643012268E+02 -0.80400095307E+02  0.15869324298E+02  0.92847850265E+02  0.00000000000E+00 0. -1.
        -12    1    4    4    0    0  0.24134377651E+02 -0.53633729617E+01 -0.90505786547E+01  0.26327683683E+02  0.00000000000E+00 0.  1.
</event>
<event>
12    1  0.8562501E-002  0.1870539E+03  0.7818608E-02  0.1161245E+00
         21   -1    0    0  503  502  0.00000000000E+00  0.00000000000E+00  0.59149350226E+03  0.59149350226E+03  0.00000000000E+00 0. -1.
         21   -1    0    0  501  503 -0.00000000000E+00 -0.00000000000E+00 -0.87836369149E+02  0.87836369149E+02  0.00000000000E+00 0. -1.
          6    2    1    2  501    0  0.40548302356E+02 -0.60165234331E+02  0.57465618028E+02  0.19568204853E+03  0.17240982169E+03 0.  0.
         24    2    3    3    0    0 -0.18252943904E+02  0.18794302482E+02  0.35013196774E+02  0.94595965238E+02  0.83881326432E+02 0.  0.
         -6    2    1    2    0  502 -0.40548302356E+02  0.60165234331E+02  0.44619151508E+03  0.48364782288E+03  0.17194280502E+03 0.  0.
        -24    2    5    5    0    0 -0.28935158640E+02  0.10804010995E+03  0.32993022784E+03  0.35729258661E+03  0.79335543332E+02 0.  0.
          5    1    3    3  501    0  0.58801246259E+02 -0.78959536813E+02  0.22452421254E+02  0.10108608329E+03  0.47000000000E+01 0. -1.
        -11    1    4    4    0    0  0.32772203357E+02  0.55624001724E+01  0.23310314049E+02  0.40599610215E+02  0.00000000000E+00 0.  1.
         12    1    4    4    0    0 -0.51025147261E+02  0.13231902309E+02  0.11702882725E+02  0.53996355023E+02  0.00000000000E+00 0. -1.
         -5    1    5    5    0  502 -0.11613143715E+02 -0.47874875620E+02  0.11626128724E+03  0.12635523627E+03  0.47000000000E+01 0.  1.
         11    1    6    6    0    0 -0.12004012078E+02  0.82926462281E+01  0.27765508395E+01  0.14851717813E+02  0.00000000000E+00 0. -1.
        -12    1    6    6    0    0 -0.16931146562E+02  0.99747463722E+02  0.32715367700E+03  0.34244086879E+03  0.00000000000E+00 0.  1.
</event>
<event>
12    1  0.8562501E-002  0.2046702E+03  0.7818608E-02  0.1149848E+00
         21   -1    0    0  503  502  0.00000000000E+00  0.00000000000E+00  0.16833957216E+03  0.16833957216E+03  0.00000000000E+00 0.  1.
         21   -1    0    0  501  503 -0.00000000000E+00 -0.00000000000E+00 -0.38990490508E+03  0.38990490508E+03  0.00000000000E+00 0.  1.
          6    2    1    2  501    0 -0.32267175705E+01 -0.72075185469E+02 -0.28812670341E+03  0.34302298682E+03  0.17158825194E+03 0.  0.
         24    2    3    3    0    0 -0.34551141995E+02 -0.89854810516E+02 -0.27805852775E+03  0.30532958165E+03  0.81498099292E+02 0.  0.
         -6    2    1    2    0  502  0.32267175705E+01  0.72075185469E+02  0.66561370492E+02  0.21522149043E+03  0.19153232060E+03 0.  0.
        -24    2    5    5    0    0  0.25153746633E+02 -0.22484562909E+02 -0.24653468493E+02  0.81937667447E+02  0.70482063669E+02 0.  0.
          5    1    3    3  501    0  0.31324424424E+02  0.17779625047E+02 -0.10068175658E+02  0.37693405172E+02  0.47000000000E+01 0. -1.
        -13    1    4    4    0    0  0.20507032056E+01 -0.29959851402E+02 -0.19172018703E+03  0.19405779602E+03  0.00000000000E+00 0.  1.
         14    1    4    4    0    0 -0.36601845201E+02 -0.59894959114E+02 -0.86338340723E+02  0.11127178563E+03  0.00000000000E+00 0. -1.
         -5    1    5    5    0  502 -0.21927029063E+02  0.94559748378E+02  0.91214838986E+02  0.13328382298E+03  0.47000000000E+01 0.  1.
         13    1    6    6    0    0  0.31430737733E+02  0.16526554001E+02 -0.27966804577E+00  0.35511920193E+02  0.00000000000E+00 0. -1.
        -14    1    6    6    0    0 -0.62769910999E+01 -0.39011116910E+02 -0.24373800447E+02  0.46425747254E+02  0.00000000000E+00 0.  1.
</event>
<event>
12    1  0.8562501E-002  0.2068161E+03  0.7818608E-02  0.1144385E+00
         21   -1    0    0  503  502  0.00000000000E+00  0.00000000000E+00  0.17895645422E+03  0.17895645422E+03  0.00000000000E+00 0.  1.
         21   -1    0    0  501  503 -0.00000000000E+00 -0.00000000000E+00 -0.55534669149E+03  0.55534669149E+03  0.00000000000E+00 0.  1.
          6    2    1    2  501    0  0.23585266459E+02  0.11213941841E+03 -0.46571112973E+03  0.50902306022E+03  0.17054649081E+03 0.  0.
         24    2    3    3    0    0  0.41565358980E+02  0.99441694918E+02 -0.46740025645E+03  0.48645186048E+03  0.80969642953E+02 0.  0.
         -6    2    1    2    0  502 -0.23585266459E+02 -0.11213941841E+03  0.89320892454E+02  0.22528008549E+03  0.17216672481E+03 0.  0.
        -24    2    5    5    0    0  0.24189079155E+01 -0.13480039218E+03  0.35858858697E+02  0.16148340947E+03  0.81326729550E+02 0.  0.
          5    1    3    3  501    0 -0.17980092521E+02  0.12697723491E+02  0.16891267155E+01  0.22571199746E+02  0.47000000000E+01 0. -1.
        -13    1    4    4    0    0 -0.22722139566E+01 -0.57565655654E-01 -0.16640703237E+03  0.16642255464E+03  0.00000000000E+00 0.  1.
         14    1    4    4    0    0  0.43837572937E+02  0.99499260574E+02 -0.30099322407E+03  0.32002930584E+03  0.00000000000E+00 0. -1.
         -5    1    5    5    0  502 -0.26004174375E+02  0.22660973773E+02  0.53462033756E+02  0.63796676015E+02  0.47000000000E+01 0.  1.
         11    1    6    6    0    0  0.16809983609E+02 -0.29397535318E+02 -0.22003167583E+02  0.40384774549E+02  0.00000000000E+00 0. -1.
        -12    1    6    6    0    0 -0.14391075693E+02 -0.10540285686E+03  0.57862026280E+02  0.12109863492E+03  0.00000000000E+00 0.  1.
</event>
<event>
12    1  0.8562501E-002  0.4175700E+03  0.7818608E-02  0.1037950E+00
         21   -1    0    0  503  502  0.00000000000E+00  0.00000000000E+00  0.13364244961E+03  0.13364244961E+03  0.00000000000E+00 0.  1.
         21   -1    0    0  501  503 -0.00000000000E+00 -0.00000000000E+00 -0.13189398596E+04  0.13189398596E+04  0.00000000000E+00 0. -1.
          6    2    1    2  501    0  0.36343947994E+03  0.11224952819E+03 -0.67586546000E+03  0.79388237178E+03  0.16960804235E+03 0.  0.
         24    2    3    3    0    0  0.82755354940E+02  0.58819029053E+02 -0.25716441552E+03  0.28695925047E+03  0.76837151617E+02 0.  0.
         -6    2    1    2    0  502 -0.36343947994E+03 -0.11224952819E+03 -0.50943194995E+03  0.65869993740E+03  0.17226863830E+03 0.  0.
        -24    2    5    5    0    0 -0.18780414552E+03 -0.22320547128E+02 -0.34844555971E+03  0.40399677650E+03  0.77656187369E+02 0.  0.
          5    1    3    3  501    0  0.28068412500E+03  0.53430499141E+02 -0.41870104449E+03  0.50692312131E+03  0.47000000000E+01 0. -1.
        -13    1    4    4    0    0  0.77790979718E+01  0.21400320389E+02 -0.80860435838E+01  0.24163447164E+02  0.00000000000E+00 0.  1.
         14    1    4    4    0    0  0.74976256968E+02  0.37418708664E+02 -0.24907837194E+03  0.26279580330E+03  0.00000000000E+00 0. -1.
         -5    1    5    5    0  502 -0.17563533442E+03 -0.89928981066E+02 -0.16098639024E+03  0.25470316090E+03  0.47000000000E+01 0.  1.
         13    1    6    6    0    0 -0.93906727536E+02 -0.38907691380E+02 -0.12538885837E+03  0.16141452143E+03  0.00000000000E+00 0. -1.
        -14    1    6    6    0    0 -0.93897417983E+02  0.16587144253E+02 -0.22305670135E+03  0.24258225507E+03  0.00000000000E+00 0.  1.
</event>
<event>
12    1  0.8562501E-002  0.1849324E+03  0.7818608E-02  0.1163429E+00
         21   -1    0    0  501  502  0.00000000000E+00  0.00000000000E+00  0.11718413084E+04  0.11718413084E+04  0.00000000000E+00 0. -1.
         21   -1    0    0  502  503 -0.00000000000E+00 -0.00000000000E+00 -0.31557666491E+02  0.31557666491E+02  0.00000000000E+00 0.  1.
         -6    2    1    2    0  503  0.69557873747E+02  0.16620194105E+02  0.74425898653E+03  0.76689074717E+03  0.17054457018E+03 0.  0.
        -24    2    3    3    0    0  0.57593251994E+02  0.50060275505E+02  0.70681938464E+03  0.71507178339E+03  0.76883021792E+02 0.  0.
          6    2    1    2  501    0 -0.69557873747E+02 -0.16620194105E+02  0.39602465535E+03  0.43650822769E+03  0.16908393342E+03 0.  0.
         24    2    5    5    0    0  0.88949778703E+01 -0.35699581809E+02  0.10961235867E+03  0.13889611998E+03  0.76965461089E+02 0.  0.
          5    1    5    5  501    0 -0.78452851618E+02  0.19079387705E+02  0.28641229668E+03  0.29761210771E+03  0.47000000000E+01 0. -1.
        -13    1    6    6    0    0  0.67840741926E+01  0.23398081767E+02  0.19946108300E+02  0.31485570177E+02  0.00000000000E+00 0.  1.
         14    1    6    6    0    0  0.21109036777E+01 -0.59097663576E+02  0.89666250367E+02  0.10741054980E+03  0.00000000000E+00 0. -1.
         -5    1    3    3    0  503  0.11964621753E+02 -0.33440081400E+02  0.37439601884E+02  0.51818963778E+02  0.47000000000E+01 0.  1.
         11    1    4    4    0    0 -0.14865299956E+02 -0.60747425567E+01  0.13518701729E+03  0.13613746466E+03  0.00000000000E+00 0. -1.
        -12    1    4    4    0    0  0.72458551951E+02  0.56135018062E+02  0.57163236735E+03  0.57893431873E+03  0.00000000000E+00 0.  1.
</event>
<event>
12    1  0.8562501E-002  0.1843891E+03  0.7818608E-02  0.1164377E+00
         21   -1    0    0  503  502  0.00000000000E+00  0.00000000000E+00  0.27937169390E+03  0.27937169390E+03  0.00000000000E+00 0.  1.
         21   -1    0    0  501  503 -0.00000000000E+00 -0.00000000000E+00 -0.12099135563E+03  0.12099135563E+03  0.00000000000E+00 0.  1.
          6    2    1    2  501    0  0.60854778315E+02  0.89255677920E+01  0.99954971326E+02  0.20693895685E+03  0.17043991834E+03 0.  0.
         24    2    3    3    0    0  0.24661319965E+02  0.20594668090E+02 -0.12797550468E+02  0.87853460250E+02  0.80759718447E+02 0.  0.
         -6    2    1    2    0  502 -0.60854778315E+02 -0.89255677920E+01  0.58425366951E+02  0.19342409269E+03  0.17382861192E+03 0.  0.
        -24    2    5    5    0    0  0.28138016507E+02 -0.25319214095E+02  0.31389910695E+02  0.98864719462E+02  0.85767684390E+02 0.  0.
          5    1    3    3  501    0  0.36193458350E+02 -0.11669100298E+02  0.11275252179E+03  0.11908549660E+03  0.47000000000E+01 0. -1.
        -11    1    4    4    0    0  0.45183065250E+01  0.27339083189E+02  0.29529706478E+02  0.40494988926E+02  0.00000000000E+00 0.  1.
         12    1    4    4    0    0  0.20143013440E+02 -0.67444150991E+01 -0.42327256946E+02  0.47358471323E+02  0.00000000000E+00 0. -1.
         -5    1    5    5    0  502 -0.88992794822E+02  0.16393646303E+02  0.27035456256E+02  0.94559373223E+02  0.47000000000E+01 0.  1.
         11    1    6    6    0    0  0.51403547852E+01  0.31653281287E+02  0.14162445539E+02  0.35056074041E+02  0.00000000000E+00 0. -1.
        -12    1    6    6    0    0  0.22997661722E+02 -0.56972495382E+02  0.17227465156E+02  0.63808645421E+02  0.00000000000E+00 0.  1.
</event>
<event>
12    1  0.8562501E-002  0.2233964E+03  0.7818608E-02  0.1133200E+00
         21   -1    0    0  501  502  0.00000000000E+00  0.00000000000E+00  0.21722516028E+03  0.21722516028E+03  0.00000000000E+00 0. -1.
         21   -1    0    0  502  503 -0.00000000000E+00 -0.00000000000E+00 -0.34597153602E+03  0.34597153602E+03  0.00000000000E+00 0. -1.
         -6    2    1    2    0  503  0.88557778335E+02 -0.93149651273E+02 -0.23347124952E+03  0.31647168133E+03  0.17066388926E+03 0.  0.
        -24    2    3    3    0    0  0.90065497228E+01 -0.30600358040E+02 -0.17768911975E+03  0.20082330020E+03  0.87972011309E+02 0.  0.
          6    2    1    2  501    0 -0.88557778335E+02  0.93149651273E+02  0.10472487377E+03  0.24672501498E+03  0.18271999396E+03 0.  0.
         24    2    5    5    0    0  0.19455359476E+02 -0.15717971039E+01  0.26920296672E+02  0.83278898657E+02  0.76352413387E+02 0.  0.
          5    1    5    5  501    0 -0.10801313781E+03  0.94721448377E+02  0.77804577102E+02  0.16344611632E+03  0.47000000000E+01 0. -1.
        -13    1    6    6    0    0  0.51019971494E+01  0.34692803260E+02 -0.13770944913E+01  0.35092981665E+02  0.00000000000E+00 0.  1.
         14    1    6    6    0    0  0.14353362326E+02 -0.36264600364E+02  0.28297391164E+02  0.48185916991E+02  0.00000000000E+00 0. -1.
         -5    1    3    3    0  503  0.79551228612E+02 -0.62549293233E+02 -0.55782129766E+02  0.11564838113E+03  0.47000000000E+01 0.  1.
         11    1    4    4    0    0  0.23861383683E+02 -0.53616058531E+02 -0.15328868833E+03  0.16413856748E+03  0.00000000000E+00 0. -1.
        -12    1    4    4    0    0 -0.14854833961E+02  0.23015700490E+02 -0.24400431418E+02  0.36684732716E+02  0.00000000000E+00 0.  1.
</event>
<event>
12    1  0.8562501E-002  0.1731217E+03  0.7818608E-02  0.1176313E+00
         21   -1    0    0  501  502  0.00000000000E+00  0.00000000000E+00  0.54068367797E+03  0.54068367797E+03  0.00000000000E+00 0.  1.
         21   -1    0    0  502  503 -0.00000000000E+00 -0.00000000000E+00 -0.12316477107E+03  0.12316477107E+03  0.00000000000E+00 0.  1.
         -6    2    1    2    0  503 -0.12034047557E+02 -0.49099892793E+00 -0.39347595438E+02  0.17753695236E+03  0.17270227794E+03 0.  0.
        -24    2    3    3    0    0  0.28046813912E+02 -0.45070600569E+02  0.13673390657E+02  0.97367561041E+02  0.80470476106E+02 0.  0.
          6    2    1    2  501    0  0.12034047557E+02  0.49099892793E+00  0.45686650234E+03  0.48631149667E+03  0.16621315068E+03 0.  0.
         24    2    5    5    0    0 -0.19807799579E+02 -0.63065914107E+02  0.30769776744E+03  0.32100334233E+03  0.63210531163E+02 0.  0.
          5    1    5    5  501    0  0.31841847136E+02  0.63556913035E+02  0.14916873490E+03  0.16530815435E+03  0.47000000000E+01 0. -1.
        -11    1    6    6    0    0 -0.11217408286E+02  0.83300683149E+01  0.10504258601E+03  0.10596775530E+03  0.00000000000E+00 0.  1.
         12    1    6    6    0    0 -0.85903912934E+01 -0.71395982421E+02  0.20265518143E+03  0.21503558703E+03  0.00000000000E+00 0. -1.
         -5    1    3    3    0  503 -0.40080861469E+02  0.44579601641E+02 -0.53020986095E+02  0.80169391323E+02  0.47000000000E+01 0.  1.
         13    1    4    4    0    0 -0.21089864401E+02 -0.10287944804E+01  0.22428318055E+02  0.30803737586E+02  0.00000000000E+00 0. -1.
        -14    1    4    4    0    0  0.49136678313E+02 -0.44041806089E+02 -0.87549273980E+01  0.66563823455E+02  0.00000000000E+00 0.  1.
</event>
<event>
12    1  0.8562501E-002  0.1898266E+03  0.7818608E-02  0.1159439E+00
         21   -1    0    0  503  502  0.00000000000E+00  0.00000000000E+00  0.56823632712E+02  0.56823632712E+02  0.00000000000E+00 0.  1.
         21   -1    0    0  501  503 -0.00000000000E+00 -0.00000000000E+00 -0.10989092115E+04  0.10989092115E+04  0.00000000000E+00 0.  1.
          6    2    1    2  501    0  0.67795332599E+02  0.47705160690E+02 -0.89882372197E+03  0.91791335708E+03  0.16675988265E+03 0.  0.
         24    2    3    3    0    0 -0.29363571500E+02  0.68630960007E+01 -0.37096584676E+03  0.37961608484E+03  0.74722091669E+02 0.  0.
         -6    2    1    2    0  502 -0.67795332599E+02 -0.47705160690E+02 -0.14326185684E+03  0.23781948714E+03  0.17076931622E+03 0.  0.
        -24    2    5    5    0    0 -0.91935492233E+02 -0.71470514120E+02 -0.14592972431E+03  0.20351574321E+03  0.81012370531E+02 0.  0.
          5    1    3    3  501    0  0.97158904099E+02  0.40842064689E+02 -0.52785787520E+03  0.53829727225E+03  0.47000000000E+01 0. -1.
        -11    1    4    4    0    0  0.12848010161E+02  0.28453267344E+02 -0.18971655572E+03  0.19226812347E+03  0.00000000000E+00 0.  1.
         12    1    4    4    0    0 -0.42211581661E+02 -0.21590171344E+02 -0.18124929104E+03  0.18734796136E+03  0.00000000000E+00 0. -1.
         -5    1    5    5    0  502  0.24140159634E+02  0.23765353430E+02  0.26678674713E+01  0.34303743930E+02  0.47000000000E+01 0.  1.
         13    1    6    6    0    0 -0.71657553028E+02 -0.76603543781E+01 -0.55310128513E+02  0.90844351785E+02  0.00000000000E+00 0. -1.
        -14    1    6    6    0    0 -0.20277939205E+02 -0.63810159742E+02 -0.90619595793E+02  0.11267139143E+03  0.00000000000E+00 0.  1.
</event>
<event>
12    1  0.8562501E-002  0.1765148E+03  0.7818608E-02  0.1171425E+00
         21   -1    0    0  503  502  0.00000000000E+00  0.00000000000E+00  0.10584215958E+04  0.10584215958E+04  0.00000000000E+00 0. -1.
         21   -1    0    0  501  503 -0.00000000000E+00 -0.00000000000E+00 -0.42016045639E+02  0.42016045639E+02  0.00000000000E+00 0. -1.
          6    2    1    2  501    0  0.16817104264E+02  0.37015725936E+02  0.20634169103E+03  0.27154073397E+03  0.17176873344E+03 0.  0.
         24    2    3    3    0    0 -0.27272964642E+02  0.46945247966E+02  0.20456822374E+03  0.22606805239E+03  0.79441395002E+02 0.  0.
         -6    2    1    2    0  502 -0.16817104264E+02 -0.37015725936E+02  0.81006385916E+03  0.82889690750E+03  0.17092000576E+03 0.  0.
        -24    2    5    5    0    0  0.39984497495E+02 -0.61603613196E+02  0.61182970714E+03  0.62117147527E+03  0.78260117285E+02 0.  0.
          5    1    3    3  501    0  0.44090068906E+02 -0.99295220304E+01  0.17734672821E+01  0.45472681580E+02  0.47000000000E+01 0. -1.
        -13    1    4    4    0    0  0.32113870170E+01 -0.19974193921E+02  0.68188702995E+02  0.71126511552E+02  0.00000000000E+00 0.  1.
         14    1    4    4    0    0 -0.30484351659E+02  0.66919441887E+02  0.13637952075E+03  0.15494154084E+03  0.00000000000E+00 0. -1.
         -5    1    5    5    0  502 -0.56801601759E+02  0.24587887261E+02  0.19823415202E+03  0.20772543222E+03  0.47000000000E+01 0.  1.
         13    1    6    6    0    0  0.43844397616E+02 -0.23596159988E+02  0.50977337996E+03  0.51219918868E+03  0.00000000000E+00 0. -1.
        -14    1    6    6    0    0 -0.38599001208E+01 -0.38007453208E+02  0.10205632718E+03  0.10897228660E+03  0.00000000000E+00 0.  1.
</event>
<event>
12    1  0.8562501E-002  0.2009176E+03  0.7818608E-02  0.1150449E+00
         21   -1    0    0  501  502  0.00000000000E+00  0.00000000000E+00  0.77077819077E+03  0.77077819077E+03  0.00000000000E+00 0.  1.
         21   -1    0    0  502  503 -0.00000000000E+00 -0.00000000000E+00 -0.57077483495E+02  0.57077483495E+02  0.00000000000E+00 0.  1.
         -6    2    1    2    0  503  0.10012105927E+03 -0.30881977738E+02  0.22276760911E+03  0.29998882437E+03  0.17143501398E+03 0.  0.
        -24    2    3    3    0    0  0.80286456285E+02  0.15390918410E+02  0.22198604451E+03  0.24941913743E+03  0.79052556738E+02 0.  0.
          6    2    1    2  501    0 -0.10012105927E+03  0.30881977738E+02  0.49093309817E+03  0.52786684990E+03  0.16324883242E+03 0.  0.
         24    2    5    5    0    0 -0.80341450472E+02  0.80925251058E+02  0.34503685304E+03  0.37229253816E+03  0.80917606833E+02 0.  0.
          5    1    5    5  501    0 -0.19779608798E+02 -0.50043273320E+02  0.14589624513E+03  0.15557431173E+03  0.47000000000E+01 0. -1.
        -13    1    6    6    0    0 -0.66486136680E+02  0.41758362629E+02  0.30370558503E+03  0.31368973461E+03  0.00000000000E+00 0.  1.
         14    1    6    6    0    0 -0.13855313791E+02  0.39166888429E+02  0.41331268007E+02  0.58602803555E+02  0.00000000000E+00 0. -1.
         -5    1    3    3    0  503  0.19834602985E+02 -0.46272896147E+02  0.78156459601E+00  0.50569686934E+02  0.47000000000E+01 0.  1.
         11    1    4    4    0    0 -0.59846194218E+01  0.25536744082E+02  0.41087939437E+02  0.48745868903E+02  0.00000000000E+00 0. -1.
        -12    1    4    4    0    0  0.86271075707E+02 -0.10145825673E+02  0.18089810508E+03  0.20067326853E+03  0.00000000000E+00 0.  1.
</event>
<event>
12    1  0.8562501E-002  0.2063855E+03  0.7818608E-02  0.1144564E+00
         21   -1    0    0  501  502  0.00000000000E+00  0.00000000000E+00  0.35228453400E+03  0.35228453400E+03  0.00000000000E+00 0.  1.
         21   -1    0    0  502  503 -0.00000000000E+00 -0.00000000000E+00 -0.12185906493E+03  0.12185906493E+03  0.00000000000E+00 0.  1.
         -6    2    1    2    0  503  0.93882039006E+02  0.65522657245E+02  0.91098720878E+02  0.22513175658E+03  0.17110895656E+03 0.  0.
        -24    2    3    3    0    0  0.28383530115E+02  0.80882279965E+02  0.10376940962E+03  0.15651245149E+03  0.79877963834E+02 0.  0.
          6    2    1    2  501    0 -0.93882039006E+02 -0.65522657245E+02  0.13932674820E+03  0.24901184235E+03  0.17172040941E+03 0.  0.
         24    2    5    5    0    0 -0.67698409570E+02 -0.11213640216E+03  0.94373883043E+02  0.17900274472E+03  0.77316915791E+02 0.  0.
          5    1    5    5  501    0 -0.26183629436E+02  0.46613744918E+02  0.44952865153E+02  0.70009097632E+02  0.47000000000E+01 0. -1.
        -11    1    6    6    0    0 -0.75915111236E+02 -0.82522775947E+02  0.44952009310E+02  0.12080478387E+03  0.00000000000E+00 0.  1.
         12    1    6    6    0    0  0.82167016667E+01 -0.29613626217E+02  0.49421873733E+02  0.58197960851E+02  0.00000000000E+00 0. -1.
         -5    1    3    3    0  503  0.65498508891E+02 -0.15359622720E+02 -0.12670688739E+02  0.68619305084E+02  0.47000000000E+01 0.  1.
         11    1    4    4    0    0 -0.87377985340E+01 -0.11010944085E+02  0.29456173548E+02  0.32638262407E+02  0.00000000000E+00 0. -1.
        -12    1    4    4    0    0  0.37121328649E+02  0.91893224050E+02  0.74313236069E+02  0.12387418909E+03  0.00000000000E+00 0.  1.
</event>
<event>
12    1  0.8562501E-002  0.1843482E+03  0.7818608E-02  0.1163913E+00
         21   -1    0    0  501  502  0.00000000000E+00  0.00000000000E+00  0.16339650576E+03  0.16339650576E+03  0.00000000000E+00 0.  1.
         21   -1    0    0  502  503 -0.00000000000E+00 -0.00000000000E+00 -0.22005856874E+03  0.22005856874E+03  0.00000000000E+00 0.  1.
         -6    2    1    2    0  503  0.46104726692E+02  0.44270198978E+02  0.18855545649E+02  0.18423872068E+03  0.17176401909E+03 0.  0.
        -24    2    3    3    0    0  0.87439790137E+02  0.13865047174E+02 -0.18893470131E+02  0.12036275557E+03  0.79323850652E+02 0.  0.
          6    2    1    2  501    0 -0.46104726692E+02 -0.44270198978E+02 -0.75517608631E+02  0.19921635382E+03  0.17291255037E+03 0.  0.
         24    2    5    5    0    0 -0.40912296004E+02 -0.77780754740E+02 -0.54074039225E+01  0.12119424485E+03  0.83277507135E+02 0.  0.
          5    1    5    5  501    0 -0.51924306878E+01  0.33510555762E+02 -0.70110204709E+02  0.78022108970E+02  0.47000000000E+01 0. -1.
        -13    1    6    6    0    0 -0.61854054873E+02 -0.34218785194E+02 -0.14109689021E+02  0.72082818263E+02  0.00000000000E+00 0.  1.
         14    1    6    6    0    0  0.20941758869E+02 -0.43561969546E+02  0.87022850982E+01  0.49111426585E+02  0.00000000000E+00 0. -1.
         -5    1    3    3    0  503 -0.41335063445E+02  0.30405151804E+02  0.37749015780E+02  0.63875965109E+02  0.47000000000E+01 0.  1.
         11    1    4    4    0    0  0.48195567452E+02 -0.31062343993E+02  0.13890559962E+01  0.57355134146E+02  0.00000000000E+00 0. -1.
        -12    1    4    4    0    0  0.39244222684E+02  0.44927391167E+02 -0.20282526127E+02  0.63007621422E+02  0.00000000000E+00 0.  1.
</event>
<event>
12    1  0.8562501E-002  0.1997020E+03  0.7818608E-02  0.1150889E+00
         21   -1    0    0  503  502  0.00000000000E+00  0.00000000000E+00  0.45548324088E+03  0.45548324088E+03  0.00000000000E+00 0.  1.
         21   -1    0    0  501  503 -0.00000000000E+00 -0.00000000000E+00 -0.34282922833E+03  0.34282922833E+03  0.00000000000E+00 0.  1.
          6    2    1    2  501    0 -0.34973112571E+02  0.88080053508E+02 -0.28918610116E+03  0.35143915012E+03  0.17578299321E+03 0.  0.
         24    2    3    3    0    0 -0.54435043509E+02  0.43313140226E+02 -0.28398997519E+03  0.30212451734E+03  0.76090182643E+02 0.  0.
         -6    2    1    2    0  502  0.34973112571E+02 -0.88080053508E+02  0.40184011372E+03  0.44687331908E+03  0.17099436215E+03 0.  0.
        -24    2    5    5    0    0  0.72121631371E+02 -0.18979460902E+02  0.29221450962E+03  0.31198533808E+03  0.79898572527E+02 0.  0.
          5    1    3    3  501    0  0.19461930939E+02  0.44766913283E+02 -0.51961259760E+01  0.49314632776E+02  0.47000000000E+01 0. -1.
        -11    1    4    4    0    0  0.18335546460E+02  0.23599201563E+00 -0.43838197455E+02  0.47518791149E+02  0.00000000000E+00 0.  1.
         12    1    4    4    0    0 -0.72770589969E+02  0.43077148210E+02 -0.24015177773E+03  0.25460572619E+03  0.00000000000E+00 0. -1.
         -5    1    5    5    0  502 -0.37148518801E+02 -0.69100592606E+02  0.10962560409E+03  0.13488798101E+03  0.47000000000E+01 0.  1.
         13    1    6    6    0    0 -0.17173159348E+02 -0.81196229489E+01  0.60998867266E+02  0.63888242162E+02  0.00000000000E+00 0. -1.
        -14    1    6    6    0    0  0.89294790719E+02 -0.10859837953E+02  0.23121564236E+03  0.24809709591E+03  0.00000000000E+00 0.  1.
</event>
<event>
12    1  0.8562501E-002  0.1910070E+03  0.7818608E-02  0.1158268E+00
         21   -1    0    0  503  502  0.00000000000E+00  0.00000000000E+00  0.91024966697E+03  0.91024966697E+03  0.00000000000E+00 0. -1.
         21   -1    0    0  501  503 -0.00000000000E+00 -0.00000000000E+00 -0.39439646504E+02  0.39439646504E+02  0.00000000000E+00 0.  1.
          6    2    1    2  501    0 -0.58712149887E+02 -0.57918771901E+02  0.42185963172E+03  0.46179574219E+03  0.16878405715E+03 0.  0.
         24    2    3    3    0    0 -0.66820496918E+02 -0.25304478115E+02  0.41353275101E+03  0.42685487224E+03  0.78041337571E+02 0.  0.
         -6    2    1    2    0  502  0.58712149887E+02  0.57918771901E+02  0.44895038874E+03  0.48789357128E+03  0.17228460367E+03 0.  0.
        -24    2    5    5    0    0  0.93021522325E+01 -0.33506081117E+02  0.20875404749E+03  0.22613753225E+03  0.79691553132E+02 0.  0.
          5    1    3    3  501    0  0.81083470312E+01 -0.32614293786E+02  0.83268807046E+01  0.34940869952E+02  0.47000000000E+01 0. -1.
        -11    1    4    4    0    0 -0.19943439509E+02 -0.12576393542E+02  0.21766321514E+02  0.32088614901E+02  0.00000000000E+00 0.  1.
         12    1    4    4    0    0 -0.46877057409E+02 -0.12728084573E+02  0.39176642950E+03  0.39476625733E+03  0.00000000000E+00 0. -1.
         -5    1    5    5    0  502  0.49409997655E+02  0.91424853018E+02  0.24019634125E+03  0.26175603903E+03  0.47000000000E+01 0.  1.
         11    1    6    6    0    0  0.36472258496E+02 -0.35610397363E+02  0.17748523148E+03  0.18466004829E+03  0.00000000000E+00 0. -1.
        -12    1    6    6    0    0 -0.27170106263E+02  0.21043162464E+01  0.31268816017E+02  0.41477483968E+02  0.00000000000E+00 0.  1.
</event>
<event>
12    1  0.8562501E-002  0.2394414E+03  0.7818608E-02  0.1120424E+00
         21   -1    0    0  501  502  0.00000000000E+00  0.00000000000E+00  0.17831930244E+03  0.17831930244E+03  0.00000000000E+00 0.  1.
         21   -1    0    0  502  503 -0.00000000000E+00 -0.00000000000E+00 -0.40146369497E+03  0.40146369497E+03  0.00000000000E+00 0.  1.
         -6    2    1    2    0  503  0.15881847660E+03 -0.49536734596E+02 -0.24231540472E+03  0.33957534678E+03  0.17005135752E+03 0.  0.
        -24    2    3    3    0    0  0.86685972487E+02 -0.92847687332E+02 -0.18875727122E+03  0.23972796103E+03  0.75531695297E+02 0.  0.
          6    2    1    2  501    0 -0.15881847660E+03  0.49536734596E+02  0.19171012191E+02  0.24020765062E+03  0.17220624589E+03 0.  0.
         24    2    5    5    0    0 -0.14467173335E+03  0.95705767546E+02  0.15933981969E+02  0.19158380552E+03  0.79755616621E+02 0.  0.
          5    1    5    5  501    0 -0.14146743248E+02 -0.46169032950E+02  0.32370302215E+01  0.48623845104E+02  0.47000000000E+01 0. -1.
        -11    1    6    6    0    0 -0.11777064119E+03  0.38249540160E+02  0.28127269609E+02  0.12698068572E+03  0.00000000000E+00 0.  1.
         12    1    6    6    0    0 -0.26901092163E+02  0.57456227385E+02 -0.12193287639E+02  0.64603119804E+02  0.00000000000E+00 0. -1.
         -5    1    3    3    0  503  0.72132504116E+02  0.43310952737E+02 -0.53558133506E+02  0.99847385752E+02  0.47000000000E+01 0.  1.
         13    1    4    4    0    0  0.99175342276E+02 -0.84314347871E+02 -0.15287034559E+03  0.20078346628E+03  0.00000000000E+00 0. -1.
        -14    1    4    4    0    0 -0.12489369790E+02 -0.85333394610E+01 -0.35886925631E+02  0.38944494751E+02  0.00000000000E+00 0.  1.
</event>
<event>
12    1  0.8562501E-002  0.1781897E+03  0.7818608E-02  0.1169621E+00
         21   -1    0    0  503  502  0.00000000000E+00  0.00000000000E+00  0.17648282086E+03  0.17648282086E+03  0.00000000000E+00 0. -1.
         21   -1    0    0  501  503 -0.00000000000E+00 -0.00000000000E+00 -0.22996010750E+03  0.22996010750E+03  0.00000000000E+00 0. -1.
          6    2    1    2  501    0 -0.46073945935E+02  0.32797745734E+01 -0.12174188413E+03  0.21562465054E+03  0.17187012001E+03 0.  0.
         24    2    3    3    0    0 -0.27831857480E+02 -0.62303495642E+02 -0.46772480444E+02  0.11425187010E+03  0.78800298447E+02 0.  0.
         -6    2    1    2    0  502  0.46073945935E+02 -0.32797745734E+01  0.68264597495E+02  0.19081827783E+03  0.17209879275E+03 0.  0.
        -24    2    5    5    0    0  0.70714203018E+02 -0.35425616991E+02  0.93142964058E+00  0.11210142482E+03  0.79437957165E+02 0.  0.
          5    1    3    3  501    0 -0.18242088455E+02  0.65583270215E+02 -0.74969403689E+02  0.10137278043E+03  0.47000000000E+01 0. -1.
        -11    1    4    4    0    0 -0.52427018636E+01 -0.67467219233E+02 -0.57421797621E+02  0.88750067244E+02  0.00000000000E+00 0.  1.
         12    1    4    4    0    0 -0.22589155616E+02  0.51637235912E+01  0.10649317176E+02  0.25501802860E+02  0.00000000000E+00 0. -1.
         -5    1    5    5    0  502 -0.24640257082E+02  0.32145842418E+02  0.67333167855E+02  0.78716853006E+02  0.47000000000E+01 0.  1.
         11    1    6    6    0    0  0.59070873279E+02 -0.22185270098E+02  0.36146152850E+02  0.72719314114E+02  0.00000000000E+00 0. -1.
        -12    1    6    6    0    0  0.11643329738E+02 -0.13240346893E+02 -0.35214723209E+02  0.39382110709E+02  0.00000000000E+00 0.  1.
</event>
<event>
12    1  0.8562501E-002  0.1921148E+03  0.7818608E-02  0.1156759E+00
         21   -1    0    0  501  502  0.00000000000E+00  0.00000000000E+00  0.71912890930E+02  0.71912890930E+02  0.00000000000E+00 0.  1.
         21   -1    0    0  502  503 -0.00000000000E+00 -0.00000000000E+00 -0.55761937504E+03  0.55761937504E+03  0.00000000000E+00 0.  1.
         -6    2    1    2    0  503 -0.33187482425E+02 -0.75055055584E+02 -0.33342180522E+03  0.38438187865E+03  0.17275606525E+03 0.  0.
        -24    2    3    3    0    0  0.30762133576E+02 -0.11614606926E+01 -0.20428829871E+03  0.22237148004E+03  0.82266082283E+02 0.  0.
          6    2    1    2  501    0  0.33187482425E+02  0.75055055584E+02 -0.15228467889E+03  0.24515038732E+03  0.17370497581E+03 0.  0.
         24    2    5    5    0    0  0.11737480781E+02  0.11899500302E+03 -0.11967443648E+03  0.18618989664E+03  0.77763279689E+02 0.  0.
          5    1    5    5  501    0  0.21450001644E+02 -0.43939947431E+02 -0.32610242415E+02  0.58960490679E+02  0.47000000000E+01 0. -1.
        -11    1    6    6    0    0  0.65738478270E+01  0.49601154860E+02 -0.10318641975E+03  0.11467749238E+03  0.00000000000E+00 0.  1.
         12    1    6    6    0    0  0.51636329544E+01  0.69393848156E+02 -0.16488016725E+02  0.71512404257E+02  0.00000000000E+00 0. -1.
         -5    1    3    3    0  503 -0.63949616001E+02 -0.73893594892E+02 -0.12913350651E+03  0.16201039860E+03  0.47000000000E+01 0.  1.
         13    1    4    4    0    0  0.19199862889E+02  0.38177356227E+02 -0.13763288172E+03  0.14411438303E+03  0.00000000000E+00 0. -1.
        -14    1    4    4    0    0  0.11562270687E+02 -0.39338816920E+02 -0.66655416983E+02  0.78257097015E+02  0.00000000000E+00 0.  1.
</event>
<event>
12    1  0.8562501E-002  0.1765783E+03  0.7818608E-02  0.1171840E+00
         21   -1    0    0  503  502  0.00000000000E+00  0.00000000000E+00  0.47158592630E+02  0.47158592630E+02  0.00000000000E+00 0.  1.
         21   -1    0    0  501  503 -0.00000000000E+00 -0.00000000000E+00 -0.97041958371E+03  0.97041958371E+03  0.00000000000E+00 0.  1.
          6    2    1    2  501    0  0.24387195212E+01  0.27937755875E+02 -0.75595060391E+03  0.77629969791E+03  0.17433714422E+03 0.  0.
         24    2    3    3    0    0  0.36230259728E+02 -0.34063018443E+02 -0.56182526863E+03  0.56967757904E+03  0.80074906456E+02 0.  0.
         -6    2    1    2    0  502 -0.24387195212E+01 -0.27937755875E+02 -0.16731038716E+03  0.24127847843E+03  0.17156944059E+03 0.  0.
        -24    2    5    5    0    0 -0.44375766164E+01 -0.64430691175E+02 -0.17485602268E+03  0.20366523114E+03  0.82060292800E+02 0.  0.
          5    1    3    3  501    0 -0.33791540207E+02  0.62000774318E+02 -0.19412533529E+03  0.20662211887E+03  0.47000000000E+01 0. -1.
        -13    1    4    4    0    0 -0.15783469971E+02 -0.12632314386E+01 -0.31179270863E+03  0.31219450161E+03  0.00000000000E+00 0.  1.
         14    1    4    4    0    0  0.52013729699E+02 -0.32799787005E+02 -0.25003255999E+03  0.25748307743E+03  0.00000000000E+00 0. -1.
         -5    1    5    5    0  502  0.19988570952E+01  0.36492935299E+02  0.75456355205E+01  0.37613247292E+02  0.47000000000E+01 0.  1.
         11    1    6    6    0    0 -0.16251775671E+01  0.59290149289E+01 -0.10255936738E+03  0.10274345846E+03  0.00000000000E+00 0. -1.
        -12    1    6    6    0    0 -0.28123990493E+01 -0.70359706104E+02 -0.72296655306E+02  0.10092177267E+03  0.00000000000E+00 0.  1.
</event>
<event>
12    1  0.8562501E-002  0.1866072E+03  0.7818608E-02  0.1162011E+00
         21   -1    0    0  501  502  0.00000000000E+00  0.00000000000E+00  0.29422706467E+02  0.29422706467E+02  0.00000000000E+00 0.  1.
         21   -1    0    0  502  503 -0.00000000000E+00 -0.00000000000E+00 -0.15285662461E+04  0.15285662461E+04  0.00000000000E+00 0. -1.
         -6    2    1    2    0  503  0.20213003416E+02 -0.63838198248E+02 -0.11292689132E+04  0.11445831245E+04  0.17417913056E+03 0.  0.
        -24    2    3    3    0    0  0.18378407550E+01 -0.42271786011E+02 -0.10997252460E+04  0.11033802725E+04  0.79133605747E+02 0.  0.
          6    2    1    2  501    0 -0.20213003416E+02  0.63838198248E+02 -0.36987462640E+03  0.41340582802E+03  0.17208503226E+03 0.  0.
         24    2    5    5    0    0 -0.53427141871E+02  0.50607799810E+02 -0.35825485574E+03  0.37552005885E+03  0.85165509714E+02 0.  0.
          5    1    5    5  501    0  0.33214138455E+02  0.13230398439E+02 -0.11619770658E+02  0.37885769179E+02  0.47000000000E+01 0. -1.
        -13    1    6    6    0    0  0.15322616929E+02  0.55364342781E+01 -0.13677511465E+02  0.21272259258E+02  0.00000000000E+00 0.  1.
         14    1    6    6    0    0 -0.68749758799E+02  0.45071365532E+02 -0.34457734427E+03  0.35424779959E+03  0.00000000000E+00 0. -1.
         -5    1    3    3    0  503  0.18375162661E+02 -0.21566412237E+02 -0.29543667195E+02  0.41202851976E+02  0.47000000000E+01 0.  1.
         13    1    4    4    0    0 -0.69578864558E+01 -0.64407279966E+02 -0.87549099235E+03  0.87788449558E+03  0.00000000000E+00 0. -1.
        -14    1    4    4    0    0  0.87957272108E+01  0.22135493955E+02 -0.22423425367E+03  0.22549577696E+03  0.00000000000E+00 0.  1.
</event>
<event>
12    1  0.8562501E-002  0.1858414E+03  0.7818608E-02  0.1162271E+00
         21   -1    0    0  501  502  0.00000000000E+00  0.00000000000E+00  0.56563511717E+02  0.56563511717E+02  0.00000000000E+00 0.  1.
         21   -1    0    0  502  503 -0.00000000000E+00 -0.00000000000E+00 -0.65511408641E+03  0.65511408641E+03  0.00000000000E+00 0.  1.
         -6    2    1    2    0  503 -0.31053320782E+01  0.70690695778E+02 -0.20643166917E+03  0.27774874758E+03  0.17182408209E+03 0.  0.
        -24    2    3    3    0    0 -0.63364369244E+00  0.11391850493E+03 -0.13208113447E+03  0.19158120880E+03  0.79247121171E+02 0.  0.
          6    2    1    2  501    0  0.31053320782E+01 -0.70690695778E+02 -0.39211890552E+03  0.43392885055E+03  0.17184351520E+03 0.  0.
         24    2    5    5    0    0 -0.50297441965E+02 -0.46409856245E+02 -0.14086490621E+03  0.17587444231E+03  0.80032432367E+02 0.  0.
          5    1    5    5  501    0  0.53402774043E+02 -0.24280839533E+02 -0.25125399931E+03  0.25805440824E+03  0.47000000000E+01 0. -1.
        -11    1    6    6    0    0  0.14364883193E+01  0.20582151384E+02 -0.25985257801E+02  0.33180145829E+02  0.00000000000E+00 0.  1.
         12    1    6    6    0    0 -0.51733930284E+02 -0.66992007629E+02 -0.11487964841E+03  0.14269429648E+03  0.00000000000E+00 0. -1.
         -5    1    3    3    0  503 -0.24716883858E+01 -0.43227809152E+02 -0.74350534706E+02  0.86167538776E+02  0.47000000000E+01 0.  1.
         13    1    4    4    0    0 -0.10684587933E+02  0.60811160283E+02 -0.16381089537E+02  0.63878773694E+02  0.00000000000E+00 0. -1.
        -14    1    4    4    0    0  0.10050944240E+02  0.53107344647E+02 -0.11570004493E+03  0.12770243511E+03  0.00000000000E+00 0.  1.
</event>
<event>
12    1  0.8562501E-002  0.3269251E+03  0.7818608E-02  0.1072564E+00
         21   -1    0    0  501  502  0.00000000000E+00  0.00000000000E+00  0.57840498980E+03  0.57840498980E+03  0.00000000000E+00 0.  1.
         21   -1    0    0  502  503 -0.00000000000E+00 -0.00000000000E+00 -0.57161481929E+03  0.57161481929E+03  0.00000000000E+00 0. -1.
         -6    2    1    2    0  503  0.25975888722E+03  0.99092337420E+02 -0.46980920538E+03  0.57236415275E+03  0.17200599720E+03 0.  0.
        -24    2    3    3    0    0  0.95386514305E+02  0.92013548639E+02 -0.25335228226E+03  0.30043755274E+03  0.92251091727E+02 0.  0.
          6    2    1    2  501    0 -0.25975888722E+03 -0.99092337420E+02  0.47659937590E+03  0.57765565634E+03  0.17101205037E+03 0.  0.
         24    2    5    5    0    0 -0.11402329845E+03 -0.16179341020E+02  0.31425513000E+03  0.34422221618E+03  0.80433598200E+02 0.  0.
          5    1    5    5  501    0 -0.14573558877E+03 -0.82912996400E+02  0.16234424590E+03  0.23343344015E+03  0.47000000000E+01 0. -1.
        -13    1    6    6    0    0 -0.11858123150E+03 -0.29258537895E+02  0.24690471303E+03  0.27546235282E+03  0.00000000000E+00 0.  1.
         14    1    6    6    0    0  0.45579330462E+01  0.13079196875E+02  0.67350416965E+02  0.68759863364E+02  0.00000000000E+00 0. -1.
         -5    1    3    3    0  503  0.16437237292E+03  0.70787887805E+01 -0.21645692312E+03  0.27192660001E+03  0.47000000000E+01 0.  1.
         11    1    4    4    0    0  0.55663320910E+02  0.60957001010E+01 -0.15088630083E+03  0.16094172434E+03  0.00000000000E+00 0. -1.
        -12    1    4    4    0    0  0.39723193395E+02  0.85917848538E+02 -0.10246598143E+03  0.13949582840E+03  0.00000000000E+00 0.  1.
</event>
<event>
12    1  0.8562501E-002  0.1778445E+03  0.7818608E-02  0.1170086E+00
         21   -1    0    0  503  502  0.00000000000E+00  0.00000000000E+00  0.57194410126E+03  0.57194410126E+03  0.00000000000E+00 0. -1.
         21   -1    0    0  501  503 -0.00000000000E+00 -0.00000000000E+00 -0.10924558544E+03  0.10924558544E+03  0.00000000000E+00 0. -1.
          6    2    1    2  501    0 -0.10445577916E+02 -0.45675283195E+02 -0.87322624566E+01  0.17732896243E+03  0.17080388437E+03 0.  0.
         24    2    3    3    0    0  0.14158097279E+02  0.34788219725E+02 -0.30364388017E+02  0.90324623511E+02  0.76327384355E+02 0.  0.
         -6    2    1    2    0  502  0.10445577916E+02  0.45675283195E+02  0.47143077827E+03  0.50386072426E+03  0.17156138598E+03 0.  0.
        -24    2    5    5    0    0  0.12598368507E+02  0.69349909739E+02  0.16298472180E+03  0.19446424367E+03  0.79272906191E+02 0.  0.
          5    1    3    3  501    0 -0.24603675195E+02 -0.80463502920E+02  0.21632125561E+02  0.87004338924E+02  0.47000000000E+01 0. -1.
        -11    1    4    4    0    0 -0.29863350716E+02  0.19820468758E+01 -0.75127374970E+01  0.30857567151E+02  0.00000000000E+00 0.  1.
         12    1    4    4    0    0  0.44021447994E+02  0.32806172850E+02 -0.22851650520E+02  0.59467056359E+02  0.00000000000E+00 0. -1.
         -5    1    5    5    0  502 -0.21527905908E+01 -0.23674626544E+02  0.30844605647E+03  0.30939648059E+03  0.47000000000E+01 0.  1.
         13    1    6    6    0    0 -0.26795463001E+02  0.55760458100E+02  0.11739911984E+03  0.13270184198E+03  0.00000000000E+00 0. -1.
        -14    1    6    6    0    0  0.39393831509E+02  0.13589451639E+02  0.45585601960E+02  0.61762401693E+02  0.00000000000E+00 0.  1.
</event>
<event>
12    1  0.8562501E-002  0.2310208E+03  0.7818608E-02  0.1129308E+00
         21   -1    0    0  503  502  0.00000000000E+00  0.00000000000E+00  0.15569653845E+03  0.15569653845E+03  0.00000000000E+00 0. -1.
         21   -1    0    0  501  503 -0.00000000000E+00 -0.00000000000E+00 -0.42801041869E+03  0.42801041869E+03  0.00000000000E+00 0. -1.
          6    2    1    2  501    0 -0.91953595931E+02  0.84628940448E+02 -0.28124947007E+03  0.35251340762E+03  0.17189216612E+03 0.  0.
         24    2    3    3    0    0 -0.10342750791E+03  0.10755216126E+03 -0.17717826265E+03  0.24522859545E+03  0.80499754585E+02 0.  0.
         -6    2    1    2    0  502  0.91953595931E+02 -0.84628940448E+02  0.89355898313E+01  0.23119354952E+03  0.19430154711E+03 0.  0.
        -24    2    5    5    0    0  0.15246666400E+02 -0.10659213256E+03  0.48903443315E+02  0.14182994307E+03  0.78293310215E+02 0.  0.
          5    1    3    3  501    0  0.11473911981E+02 -0.22923220809E+02 -0.10407120742E+03  0.10728481217E+03  0.47000000000E+01 0. -1.
        -11    1    4    4    0    0 -0.10989903695E+02 -0.41763364335E+01  0.46623987437E+01  0.12647439712E+02  0.00000000000E+00 0.  1.
         12    1    4    4    0    0 -0.92437604217E+02  0.11172849769E+03 -0.18184066140E+03  0.23258115574E+03  0.00000000000E+00 0. -1.
         -5    1    5    5    0  502  0.76706929531E+02  0.21963192109E+02 -0.39967853484E+02  0.89363606450E+02  0.47000000000E+01 0.  1.
         11    1    6    6    0    0  0.35636324739E+01 -0.75611801020E+02  0.69561509074E+02  0.10280392733E+03  0.00000000000E+00 0. -1.
        -12    1    6    6    0    0  0.11683033926E+02 -0.30980331537E+02 -0.20658065758E+02  0.39026015742E+02  0.00000000000E+00 0.  1.
</event>
<event>
12    1  0.8562501E-002  0.1961851E+03  0.7818608E-02  0.1153039E+00
         21   -1    0    0  501  502  0.00000000000E+00  0.00000000000E+00  0.58299447163E+03  0.58299447163E+03  0.00000000000E+00 0. -1.
         21   -1    0    0  502  503 -0.00000000000E+00 -0.00000000000E+00 -0.66445328570E+02  0.66445328570E+02  0.00000000000E+00 0. -1.
         -6    2    1    2    0  503  0.12720325900E+01 -0.94010162572E+02  0.28630342464E+03  0.34707097481E+03  0.17218908751E+03 0.  0.
        -24    2    3    3    0    0 -0.15009127175E+02 -0.13106021179E+03  0.24099052899E+03  0.28613551040E+03  0.79969007982E+02 0.  0.
          6    2    1    2  501    0 -0.12720325900E+01  0.94010162572E+02  0.23024571842E+03  0.30236882539E+03  0.17197176218E+03 0.  0.
         24    2    5    5    0    0 -0.55697901656E+02  0.36478719869E+02  0.18277913913E+03  0.20991771252E+03  0.78894100380E+02 0.  0.
          5    1    5    5  501    0  0.54425869066E+02  0.57531442703E+02  0.47466579291E+02  0.92451112880E+02  0.47000000000E+01 0. -1.
        -13    1    6    6    0    0 -0.60596210215E+01 -0.20749478294E+02  0.16498169887E+02  0.27192820119E+02  0.00000000000E+00 0.  1.
         14    1    6    6    0    0 -0.49638280634E+02  0.57228198163E+02  0.16628096924E+03  0.18272489240E+03  0.00000000000E+00 0. -1.
         -5    1    3    3    0  503  0.16281159765E+02  0.37050049214E+02  0.45312895654E+02  0.60935464408E+02  0.47000000000E+01 0.  1.
         11    1    4    4    0    0  0.22220566225E+02 -0.16527025354E+02  0.19009570238E+02  0.33589580096E+02  0.00000000000E+00 0. -1.
        -12    1    4    4    0    0 -0.37229693400E+02 -0.11453318643E+03  0.22198095875E+03  0.25254593030E+03  0.00000000000E+00 0.  1.
</event>
<event>
12    1  0.8562501E-002  0.2047725E+03  0.7818608E-02  0.1145989E+00
         21   -1    0    0  503  502  0.00000000000E+00  0.00000000000E+00  0.27259092004E+03  0.27259092004E+03  0.00000000000E+00 0. -1.
         21   -1    0    0  501  503 -0.00000000000E+00 -0.00000000000E+00 -0.20705635597E+03  0.20705635597E+03  0.00000000000E+00 0. -1.
          6    2    1    2  501    0 -0.69103564518E+02  0.84889146705E+02  0.15519971687E+03  0.25610395200E+03  0.17181621651E+03 0.  0.
         24    2    3    3    0    0 -0.54037049022E+02 -0.16551728771E+02  0.83129733607E+02  0.13067100739E+03  0.83488904475E+02 0.  0.
         -6    2    1    2    0  502  0.69103564518E+02 -0.84889146705E+02 -0.89665152798E+02  0.22354332400E+03  0.17306157350E+03 0.  0.
        -24    2    5    5    0    0  0.11030712456E+03 -0.31104650571E+02 -0.59159806887E+02  0.14909084578E+03  0.74786606603E+02 0.  0.
          5    1    3    3  501    0 -0.15066515496E+02  0.10144087548E+03  0.72069983264E+02  0.12543294461E+03  0.47000000000E+01 0. -1.
        -13    1    4    4    0    0 -0.56535496420E+02  0.18580931060E+02  0.72672979469E+02  0.93930161819E+02  0.00000000000E+00 0.  1.
         14    1    4    4    0    0  0.24984473977E+01 -0.35132659830E+02  0.10456754138E+02  0.36740845571E+02  0.00000000000E+00 0. -1.
         -5    1    5    5    0  502 -0.41203560044E+02 -0.53784496134E+02 -0.30505345911E+02  0.74452478225E+02  0.47000000000E+01 0.  1.
         11    1    6    6    0    0  0.21041422629E+02 -0.36836471126E+02 -0.38496492524E+02  0.57285661452E+02  0.00000000000E+00 0. -1.
        -12    1    6    6    0    0  0.89265701933E+02  0.57318205549E+01 -0.20663314363E+02  0.91805184325E+02  0.00000000000E+00 0.  1.
</event>
<event>
12    1  0.8562501E-002  0.1977116E+03  0.7818608E-02  0.1153971E+00
         21   -1    0    0  501  502  0.00000000000E+00  0.00000000000E+00  0.19239569027E+04  0.19239569027E+04  0.00000000000E+00 0. -1.
         21   -1    0    0  502  503 -0.00000000000E+00 -0.00000000000E+00 -0.74425397384E+02  0.74425397384E+02  0.00000000000E+00 0. -1.
         -6    2    1    2    0  503 -0.73371435851E+02  0.19292114089E+02  0.58190696247E+02  0.19616373469E+03  0.17128485168E+03 0.  0.
        -24    2    3    3    0    0 -0.77258248132E+02  0.16569385908E+02  0.10213655056E+03  0.15171321535E+03  0.79634435375E+02 0.  0.
          6    2    1    2  501    0  0.73371435851E+02 -0.19292114089E+02  0.17913408091E+04  0.18022185654E+04  0.18257686036E+03 0.  0.
         24    2    5    5    0    0  0.30459515737E+02 -0.62989861952E+02  0.61214806758E+03  0.62142707761E+03  0.80937329623E+02 0.  0.
          5    1    5    5  501    0  0.42911920114E+02  0.43697747863E+02  0.11791927415E+04  0.11807914878E+04  0.47000000000E+01 0. -1.
        -11    1    6    6    0    0  0.50661300680E+01 -0.41337542212E+02  0.10180592479E+03  0.10999501986E+03  0.00000000000E+00 0.  1.
         12    1    6    6    0    0  0.25393385669E+02 -0.21652319740E+02  0.51034214279E+03  0.51143205775E+03  0.00000000000E+00 0. -1.
         -5    1    3    3    0  503  0.38868122807E+01  0.27227281809E+01 -0.43945854314E+02  0.44450519343E+02  0.47000000000E+01 0.  1.
         13    1    4    4    0    0 -0.36934913507E+02 -0.27949414372E+02  0.21241199253E+02  0.50956316048E+02  0.00000000000E+00 0. -1.
        -14    1    4    4    0    0 -0.40323334625E+02  0.44518800280E+02  0.80895351309E+02  0.10075689930E+03  0.00000000000E+00 0.  1.
</event>
<event>
12    1  0.8562501E-002  0.1840006E+03  0.7818608E-02  0.1164170E+00
         21   -1    0    0  501  502  0.00000000000E+00  0.00000000000E+00  0.19276490287E+03  0.19276490287E+03  0.00000000000E+00 0. -1.
         21   -1    0    0  502  503 -0.00000000000E+00 -0.00000000000E+00 -0.17701681466E+03  0.17701681466E+03  0.00000000000E+00 0.  1.
         -6    2    1    2    0  503 -0.49887709948E+01  0.66051353577E+02 -0.12373018711E+02  0.18441613528E+03  0.17166406210E+03 0.  0.
        -24    2    3    3    0    0 -0.62809207374E+02  0.80599682069E+02  0.20257522583E+02  0.11628612024E+03  0.51679679354E+02 0.  0.
          6    2    1    2  501    0  0.49887709948E+01 -0.66051353577E+02  0.28121106918E+02  0.18536558224E+03  0.17082720299E+03 0.  0.
         24    2    5    5    0    0  0.55142859260E+02 -0.70905054801E+02 -0.12563023401E+02  0.12043269808E+03  0.79233474538E+02 0.  0.
          5    1    5    5  501    0 -0.50154088265E+02  0.48537012235E+01  0.40684130319E+02  0.64932884158E+02  0.47000000000E+01 0. -1.
        -13    1    6    6    0    0  0.30499513195E+02 -0.53581123691E+01 -0.35158254548E+02  0.46851174331E+02  0.00000000000E+00 0.  1.
         14    1    6    6    0    0  0.24643346065E+02 -0.65546942431E+02  0.22595231147E+02  0.73581523754E+02  0.00000000000E+00 0. -1.
         -5    1    3    3    0  503  0.57820436379E+02 -0.14548328492E+02 -0.32630541294E+02  0.68130015046E+02  0.47000000000E+01 0.  1.
         13    1    4    4    0    0 -0.12761108030E+02  0.48119192335E+02  0.26325032014E+02  0.56314384127E+02  0.00000000000E+00 0. -1.
        -14    1    4    4    0    0 -0.50048099344E+02  0.32480489734E+02 -0.60675094310E+01  0.59971736110E+02  0.00000000000E+00 0.  1.
</event>
<event>
12    1  0.8562501E-002  0.2020867E+03  0.7818608E-02  0.1149257E+00
         21   -1    0    0  501  502  0.00000000000E+00  0.00000000000E+00  0.17339413746E+04  0.17339413746E+04  0.00000000000E+00 0. -1.
         21   -1    0    0  502  503 -0.00000000000E+00 -0.00000000000E+00 -0.25041402229E+02  0.25041402229E+02  0.00000000000E+00 0. -1.
         -6    2    1    2    0  503  0.98108686357E+02 -0.36508058607E+02  0.60662705356E+03  0.63940238779E+03  0.17286086521E+03 0.  0.
        -24    2    3    3    0    0  0.76399104701E+02 -0.20883091581E+02  0.59806687582E+03  0.61092762399E+03  0.96310160912E+02 0.  0.
          6    2    1    2  501    0 -0.98108686357E+02  0.36508058607E+02  0.11022729189E+04  0.11195803891E+04  0.16582070827E+03 0.  0.
         24    2    5    5    0    0  0.11537920421E+02  0.20473330118E+02  0.59611410024E+03  0.60141214367E+03  0.76106932599E+02 0.  0.
          5    1    5    5  501    0 -0.10964660678E+03  0.16034728489E+02  0.50615881861E+03  0.51816824541E+03  0.47000000000E+01 0. -1.
        -13    1    6    6    0    0  0.33030835266E+02 -0.58872499729E+01  0.13733342962E+03  0.14137243961E+03  0.00000000000E+00 0.  1.
         14    1    6    6    0    0 -0.21492914845E+02  0.26360580091E+02  0.45878067062E+03  0.46003970406E+03  0.00000000000E+00 0. -1.
         -5    1    3    3    0  503  0.21709581656E+02 -0.15624967026E+02  0.85601777393E+01  0.28474763795E+02  0.47000000000E+01 0.  1.
         13    1    4    4    0    0  0.17732950300E+02 -0.53209891283E+02  0.22429512419E+03  0.23120132524E+03  0.00000000000E+00 0. -1.
        -14    1    4    4    0    0  0.58666154401E+02  0.32326799702E+02  0.37377175163E+03  0.37972629876E+03  0.00000000000E+00 0.  1.
</event>
<event>
12    1  0.8562501E-002  0.2089583E+03  0.7818608E-02  0.1142680E+00
         21   -1    0    0  501  502  0.00000000000E+00  0.00000000000E+00  0.88817792320E+02  0.88817792320E+02  0.00000000000E+00 0. -1.
         21   -1    0    0  502  503 -0.00000000000E+00 -0.00000000000E+00 -0.67512312703E+03  0.67512312703E+03  0.00000000000E+00 0.  1.
         -6    2    1    2    0  503  0.91250228619E+02  0.73495352147E+02 -0.49484846015E+03  0.53715786605E+03  0.17301850635E+03 0.  0.
        -24    2    3    3    0    0  0.27355849625E+02  0.10821747749E+03 -0.33072584860E+03  0.35758493024E+03  0.77640391932E+02 0.  0.
          6    2    1    2  501    0 -0.91250228619E+02 -0.73495352147E+02 -0.91456874560E+02  0.22678305330E+03  0.17128345614E+03 0.  0.
         24    2    5    5    0    0 -0.89393567340E+02  0.10553192103E+02 -0.37107479934E+02  0.12656553149E+03  0.80865870108E+02 0.  0.
          5    1    5    5  501    0 -0.18566612794E+01 -0.84048544250E+02 -0.54349394626E+02  0.10021752181E+03  0.47000000000E+01 0. -1.
        -13    1    6    6    0    0 -0.42567862452E+02  0.11837998526E+02  0.23437638187E+02  0.50014837865E+02  0.00000000000E+00 0.  1.
         14    1    6    6    0    0 -0.46825704887E+02 -0.12848064237E+01 -0.60545118121E+02  0.76550693622E+02  0.00000000000E+00 0. -1.
         -5    1    3    3    0  503  0.63894378995E+02 -0.34722125339E+02 -0.16412261155E+03  0.17957293582E+03  0.47000000000E+01 0.  1.
         11    1    4    4    0    0 -0.18217920721E+02  0.21645525380E+01 -0.71579023296E+02  0.73892722910E+02  0.00000000000E+00 0. -1.
        -12    1    4    4    0    0  0.45573770346E+02  0.10605292495E+03 -0.25914682530E+03  0.28369220733E+03  0.00000000000E+00 0.  1.
</event>
<event>
12    1  0.8562501E-002  0.1925327E+03  0.7818608E-02  0.1156261E+00
         21   -1    0    0  503  502  0.00000000000E+00  0.00000000000E+00  0.10286410287E+03  0.10286410287E+03  0.00000000000E+00 0.  1.
         21   -1    0    0  501  503 -0.00000000000E+00 -0.00000000000E+00 -0.19628258981E+04  0.19628258981E+04  0.00000000000E+00 0.  1.
          6    2    1    2  501    0 -0.68568478394E+02  0.50228228206E+02 -0.18632384215E+04  0.18731294053E+04  0.17242923835E+03 0.  0.
         24    2    3    3    0    0 -0.82912121820E+02 -0.15379133589E+02 -0.12317072870E+04  0.12380201785E+04  0.92087913637E+02 0.  0.
         -6    2    1    2    0  502  0.68568478394E+02 -0.50228228206E+02  0.32766262808E+01  0.19256059573E+03  0.17275513194E+03 0.  0.
        -24    2    5    5    0    0 -0.12289432949E+02 -0.48113982933E+02 -0.45421706896E+02  0.98029703880E+02  0.71279070348E+02 0.  0.
          5    1    3    3  501    0  0.14343643426E+02  0.65607361795E+02 -0.63153113456E+03  0.63510922678E+03  0.47000000000E+01 0. -1.
        -11    1    4    4    0    0 -0.90595243111E+02  0.25245342380E+01 -0.11651640952E+04  0.11686835500E+04  0.00000000000E+00 0.  1.
         12    1    4    4    0    0  0.76831212913E+01 -0.17903667827E+02 -0.66543191824E+02  0.69336628506E+02  0.00000000000E+00 0. -1.
         -5    1    5    5    0  502  0.80857911343E+02 -0.21142452731E+01  0.48698333176E+02  0.94530891850E+02  0.47000000000E+01 0.  1.
         13    1    6    6    0    0  0.25089186705E+02 -0.41902082416E+02 -0.28341209996E+02  0.56466591754E+02  0.00000000000E+00 0. -1.
        -14    1    6    6    0    0 -0.37378619654E+02 -0.62119005165E+01 -0.17080496900E+02  0.41563112126E+02  0.00000000000E+00 0.  1.
</event>
<event>
12    1  0.8562501E-002  0.2389400E+03  0.7818608E-02  0.1120622E+00
         21   -1    0    0  503  502  0.00000000000E+00  0.00000000000E+00  0.12879060029E+04  0.12879060029E+04  0.00000000000E+00 0. -1.
         21   -1    0    0  501  503 -0.00000000000E+00 -0.00000000000E+00 -0.49528935586E+02  0.49528935586E+02  0.00000000000E+00 0. -1.
          6    2    1    2  501    0 -0.41221770869E+02 -0.15974657738E+03  0.83945306119E+03  0.87279652999E+03  0.17284136500E+03 0.  0.
         24    2    3    3    0    0 -0.91196063826E+01 -0.29275464063E+02  0.51582210268E+03  0.52235060310E+03  0.76403474563E+02 0.  0.
         -6    2    1    2    0  502  0.41221770869E+02  0.15974657738E+03  0.39892400613E+03  0.46463840849E+03  0.17184377965E+03 0.  0.
        -24    2    5    5    0    0  0.60952955611E+02  0.16779706419E+03  0.26685937338E+03  0.33078293714E+03  0.79575805330E+02 0.  0.
          5    1    3    3  501    0 -0.32102164486E+02 -0.13047111331E+03  0.32363095851E+03  0.35044592690E+03  0.47000000000E+01 0. -1.
        -13    1    4    4    0    0  0.18679467742E+02 -0.79472957912E+01  0.36627071493E+02  0.41876298686E+02  0.00000000000E+00 0.  1.
         14    1    4    4    0    0 -0.27799074125E+02 -0.21328168272E+02  0.47919503119E+03  0.48047430441E+03  0.00000000000E+00 0. -1.
         -5    1    5    5    0  502 -0.19731184742E+02 -0.80504868098E+01  0.13206463274E+03  0.13385547135E+03  0.47000000000E+01 0.  1.
         13    1    6    6    0    0 -0.18501712214E+02  0.42378497331E+02  0.76226279342E+02  0.89155460031E+02  0.00000000000E+00 0. -1.
        -14    1    6    6    0    0  0.79454667825E+02  0.12541856686E+03  0.19063309404E+03  0.24162747711E+03  0.00000000000E+00 0.  1.
</event>
<event>
12    1  0.8562501E-002  0.2412224E+03  0.7818608E-02  0.1119125E+00
         21   -1    0    0  503  502  0.00000000000E+00  0.00000000000E+00  0.68296676213E+03  0.68296676213E+03  0.00000000000E+00 0. -1.
         21   -1    0    0  501  503 -0.00000000000E+00 -0.00000000000E+00 -0.10068075437E+03  0.10068075437E+03  0.00000000000E+00 0.  1.
          6    2    1    2  501    0  0.16860915145E+03  0.70750514327E+01  0.13642306927E+03  0.27712725041E+03  0.17236344387E+03 0.  0.
         24    2    3    3    0    0  0.84098948108E+02  0.97473364707E+00  0.17909877588E+01  0.11798242417E+03  0.82722799746E+02 0.  0.
         -6    2    1    2    0  502 -0.16860915145E+03 -0.70750514327E+01  0.44586293849E+03  0.50652026609E+03  0.17114297453E+03 0.  0.
        -24    2    5    5    0    0 -0.74139986658E+02 -0.26245528695E+02  0.10819834294E+03  0.15533456110E+03  0.78970748133E+02 0.  0.
          5    1    3    3  501    0  0.84510203342E+02  0.61003177857E+01  0.13463208151E+03  0.15914482623E+03  0.47000000000E+01 0. -1.
        -11    1    4    4    0    0  0.98818884782E+02  0.12023093505E+02  0.22221209785E+01  0.99572408771E+02  0.00000000000E+00 0.  1.
         12    1    4    4    0    0 -0.14719936673E+02 -0.11048359858E+02 -0.43113321969E+00  0.18410015401E+02  0.00000000000E+00 0. -1.
         -5    1    5    5    0  502 -0.94469164793E+02  0.19170477262E+02  0.33766459556E+03  0.35118570499E+03  0.47000000000E+01 0.  1.
         13    1    6    6    0    0  0.16813058236E+02 -0.12327345599E+01  0.12730153377E+02  0.21124757200E+02  0.00000000000E+00 0. -1.
        -14    1    6    6    0    0 -0.90953044894E+02 -0.25012794135E+02  0.95468189560E+02  0.13420980390E+03  0.00000000000E+00 0.  1.
</event>
<event>
12    1  0.8562501E-002  0.2110956E+03  0.7818608E-02  0.1140742E+00
         21   -1    0    0  501  502  0.00000000000E+00  0.00000000000E+00  0.80407635591E+03  0.80407635591E+03  0.00000000000E+00 0.  1.
         21   -1    0    0  502  503 -0.00000000000E+00 -0.00000000000E+00 -0.68815075900E+02  0.68815075900E+02  0.00000000000E+00 0.  1.
         -6    2    1    2    0  503  0.11750500560E+03 -0.32574160133E+02  0.17453536513E+03  0.27374629867E+03  0.17206376756E+03 0.  0.
        -24    2    3    3    0    0  0.30617216375E+02  0.31662402530E+02  0.12550612023E+03  0.15499537971E+03  0.79572984388E+02 0.  0.
          6    2    1    2  501    0 -0.11750500560E+03  0.32574160133E+02  0.56072591488E+03  0.59914513314E+03  0.17231609530E+03 0.  0.
         24    2    5    5    0    0 -0.56722320284E+02  0.22710920659E+01  0.10945203930E+03  0.14276479663E+03  0.71968456795E+02 0.  0.
          5    1    5    5  501    0 -0.60782685311E+02  0.30303068067E+02  0.45127387558E+03  0.45638033651E+03  0.47000000000E+01 0. -1.
        -11    1    6    6    0    0 -0.37583859317E+02 -0.23983538331E+02  0.99097423647E+02  0.10866487917E+03  0.00000000000E+00 0.  1.
         12    1    6    6    0    0 -0.19138460968E+02  0.26254630397E+02  0.10354615649E+02  0.34099917459E+02  0.00000000000E+00 0. -1.
         -5    1    3    3    0  503  0.86887789221E+02 -0.64236562663E+02  0.49029244903E+02  0.11875091896E+03  0.47000000000E+01 0.  1.
         13    1    4    4    0    0 -0.27122511453E+02  0.14261041845E+02  0.41914668319E+02  0.51921550076E+02  0.00000000000E+00 0. -1.
        -14    1    4    4    0    0  0.57739727828E+02  0.17401360684E+02  0.83591451913E+02  0.10307382964E+03  0.00000000000E+00 0.  1.
</event>
<event>
12    1  0.8562501E-002  0.2325745E+03  0.7818608E-02  0.1125158E+00
         21   -1    0    0  503  502  0.00000000000E+00  0.00000000000E+00  0.48258707846E+03  0.48258707846E+03  0.00000000000E+00 0. -1.
         21   -1    0    0  501  503 -0.00000000000E+00 -0.00000000000E+00 -0.24686948541E+03  0.24686948541E+03  0.00000000000E+00 0. -1.
          6    2    1    2  501    0  0.13031487073E+03 -0.83594606497E+02 -0.15272290560E+03  0.27671280906E+03  0.17110134143E+03 0.  0.
         24    2    3    3    0    0  0.36793577549E+02  0.15136540333E+02 -0.40401891438E+02  0.10026969683E+03  0.82697140633E+02 0.  0.
         -6    2    1    2    0  502 -0.13031487073E+03  0.83594606497E+02  0.38844049865E+03  0.45274375480E+03  0.17355363076E+03 0.  0.
        -24    2    5    5    0    0 -0.26421932565E+02  0.79464461898E+02  0.26810583390E+03  0.29364214502E+03  0.85628569618E+02 0.  0.
          5    1    3    3  501    0  0.93521293177E+02 -0.98731146831E+02 -0.11232101416E+03  0.17644311223E+03  0.47000000000E+01 0. -1.
        -13    1    4    4    0    0  0.18991490407E+02 -0.19144876334E+02  0.16411652128E+02  0.31568106109E+02  0.00000000000E+00 0.  1.
         14    1    4    4    0    0  0.17802087142E+02  0.34281416668E+02 -0.56813543566E+02  0.68701590723E+02  0.00000000000E+00 0. -1.
         -5    1    5    5    0  502 -0.10389293816E+03  0.41301445997E+01  0.12033466475E+03  0.15910160978E+03  0.47000000000E+01 0.  1.
         13    1    6    6    0    0 -0.39940441978E+02  0.50942133050E+02  0.24778888852E+03  0.25610480882E+03  0.00000000000E+00 0. -1.
        -14    1    6    6    0    0  0.13518509413E+02  0.28522328848E+02  0.20316945382E+02  0.37537336204E+02  0.00000000000E+00 0.  1.
</event>
<event>
12    1  0.8562501E-002  0.1719156E+03  0.7818608E-02  0.1176312E+00
         21   -1    0    0  501  502  0.00000000000E+00  0.00000000000E+00  0.17548232568E+04  0.17548232568E+04  0.00000000000E+00 0.  1.
         21   -1    0    0  502  503 -0.00000000000E+00 -0.00000000000E+00 -0.47505853239E+02  0.47505853239E+02  0.00000000000E+00 0.  1.
         -6    2    1    2    0  503  0.24703711741E+01  0.35557021092E+00  0.12917604344E+03  0.21503822642E+03  0.17189752604E+03 0.  0.
        -24    2    3    3    0    0  0.64011178326E+02 -0.24139568505E+02  0.91544062308E+02  0.13871300929E+03  0.78618279581E+02 0.  0.
          6    2    1    2  501    0 -0.24703711741E+01 -0.35557021092E+00  0.15781413601E+04  0.15872908836E+04  0.17016453079E+03 0.  0.
         24    2    5    5    0    0  0.14814229976E+02  0.39987429761E+02  0.14401113715E+04  0.14423747602E+04  0.68598326759E+02 0.  0.
          5    1    5    5  501    0 -0.17284601150E+02 -0.40342999972E+02  0.13802998856E+03  0.14491612342E+03  0.47000000000E+01 0. -1.
        -13    1    6    6    0    0  0.37985185865E+02  0.42401781445E+02  0.10940928319E+04  0.10955728685E+04  0.00000000000E+00 0.  1.
         14    1    6    6    0    0 -0.23170955888E+02 -0.24143516832E+01  0.34601853958E+03  0.34680189161E+03  0.00000000000E+00 0. -1.
         -5    1    3    3    0  503 -0.61540807152E+02  0.24495138716E+02  0.37631981135E+02  0.76325217129E+02  0.47000000000E+01 0.  1.
         13    1    4    4    0    0  0.21189918847E+02 -0.44385952089E+02  0.72614816226E+02  0.87704258387E+02  0.00000000000E+00 0. -1.
        -14    1    4    4    0    0  0.42821259479E+02  0.20246383583E+02  0.18929246082E+02  0.51008750904E+02  0.00000000000E+00 0.  1.
</event>
<event>
12    1  0.8562501E-002  0.2014303E+03  0.7818608E-02  0.1149291E+00
         21   -1    0    0  501  502  0.00000000000E+00  0.00000000000E+00  0.70768544083E+03  0.70768544083E+03  0.00000000000E+00 0. -1.
         21   -1    0    0  502  503 -0.00000000000E+00 -0.00000000000E+00 -0.20426446648E+03  0.20426446648E+03  0.00000000000E+00 0. -1.
         -6    2    1    2    0  503  0.56358055887E+02  0.86525590270E+02 -0.13571783718E+03  0.24288575283E+03  0.17294868997E+03 0.  0.
        -24    2    3    3    0    0  0.10256245666E+03  0.81185084624E+02 -0.88197305036E+02  0.17622498006E+03  0.78526450953E+02 0.  0.
          6    2    1    2  501    0 -0.56358055887E+02 -0.86525590270E+02  0.63913881152E+03  0.66906415448E+03  0.16877652144E+03 0.  0.
         24    2    5    5    0    0 -0.35746455083E+02 -0.48186089768E+02  0.15433860976E+03  0.18229102353E+03  0.76222716434E+02 0.  0.
          5    1    5    5  501    0 -0.20611600804E+02 -0.38339500502E+02  0.48480020176E+03  0.48677313095E+03  0.47000000000E+01 0. -1.
        -13    1    6    6    0    0 -0.34235469807E+02  0.10906063973E+02  0.41394673247E+02  0.54813580411E+02  0.00000000000E+00 0.  1.
         14    1    6    6    0    0 -0.15109852757E+01 -0.59092153741E+02  0.11294393651E+03  0.12747744312E+03  0.00000000000E+00 0. -1.
         -5    1    3    3    0  503 -0.46204400772E+02  0.53405056462E+01 -0.47520532140E+02  0.66660772769E+02  0.47000000000E+01 0.  1.
         11    1    4    4    0    0 -0.58388398834E+01 -0.54825466013E+01 -0.20087264926E+02  0.21625183945E+02  0.00000000000E+00 0. -1.
        -12    1    4    4    0    0  0.10840129654E+03  0.86667631225E+02 -0.68110040110E+02  0.15459979611E+03  0.00000000000E+00 0.  1.
</event>
<event>
12    1  0.8562501E-002  0.1828248E+03  0.7818608E-02  0.1165329E+00
         21   -1    0    0  501  502  0.00000000000E+00  0.00000000000E+00  0.63010828190E+03  0.63010828190E+03  0.00000000000E+00 0. -1.
         21   -1    0    0  502  503 -0.00000000000E+00 -0.00000000000E+00 -0.18075726965E+03  0.18075726965E+03  0.00000000000E+00 0. -1.
         -6    2    1    2    0  503 -0.52508093181E+02 -0.27894719955E+02  0.56566577203E+03  0.59417680452E+03  0.17185195414E+03 0.  0.
        -24    2    3    3    0    0 -0.25208580913E+02 -0.84843921852E+02  0.37829223726E+03  0.39639053983E+03  0.78654177740E+02 0.  0.
          6    2    1    2  501    0  0.52508093181E+02  0.27894719955E+02 -0.11631475978E+03  0.21668874703E+03  0.17288630511E+03 0.  0.
         24    2    5    5    0    0  0.90172850184E+01 -0.25675926506E+02 -0.12300719675E+03  0.14720390502E+03  0.76142331000E+02 0.  0.
          5    1    5    5  501    0  0.43490808162E+02  0.53570646461E+02  0.66924369641E+01  0.69484842012E+02  0.47000000000E+01 0. -1.
        -13    1    6    6    0    0  0.15536174153E+02 -0.80085849999E+01  0.47128026658E+01  0.18103056371E+02  0.00000000000E+00 0.  1.
         14    1    6    6    0    0 -0.65188891347E+01 -0.17667341506E+02 -0.12771999941E+03  0.12910084865E+03  0.00000000000E+00 0. -1.
         -5    1    3    3    0  503 -0.27299512268E+02  0.56949201897E+02  0.18737353477E+03  0.19778626469E+03  0.47000000000E+01 0.  1.
         13    1    4    4    0    0  0.17342948957E+02 -0.38756010633E+02  0.25004917190E+03  0.25362845780E+03  0.00000000000E+00 0. -1.
        -14    1    4    4    0    0 -0.42551529870E+02 -0.46087911219E+02  0.12824306535E+03  0.14276208203E+03  0.00000000000E+00 0.  1.
</event>
<event>
12    1  0.8562501E-002  0.2337204E+03  0.7818608E-02  0.1124149E+00
         21   -1    0    0  503  502  0.00000000000E+00  0.00000000000E+00  0.28832805032E+03  0.28832805032E+03  0.00000000000E+00 0.  1.
         21   -1    0    0  501  503 -0.00000000000E+00 -0.00000000000E+00 -0.29831710445E+03  0.29831710445E+03  0.00000000000E+00 0. -1.
          6    2    1    2  501    0 -0.95286982586E+01  0.15589849646E+03 -0.18257486794E+03  0.29657850446E+03  0.17386802356E+03 0.  0.
         24    2    3    3    0    0 -0.51456710667E+01  0.28203137631E+01 -0.49638548476E+02  0.93733006662E+02  0.79293498741E+02 0.  0.
         -6    2    1    2    0  502  0.95286982586E+01 -0.15589849646E+03  0.17258581380E+03  0.29006665030E+03  0.17308281603E+03 0.  0.
        -24    2    5    5    0    0  0.26755249211E+02 -0.11374729151E+03  0.36102136888E+02  0.14611053824E+03  0.79941449892E+02 0.  0.
          5    1    3    3  501    0 -0.43830271919E+01  0.15307818270E+03 -0.13293631946E+03  0.20284549780E+03  0.47000000000E+01 0. -1.
        -13    1    4    4    0    0  0.30444775277E+02 -0.14044921830E+02 -0.41784655778E+02  0.53573329459E+02  0.00000000000E+00 0.  1.
         14    1    4    4    0    0 -0.35590446343E+02  0.16865235593E+02 -0.78538926986E+01  0.40159677203E+02  0.00000000000E+00 0. -1.
         -5    1    5    5    0  502 -0.17226550952E+02 -0.42151204951E+02  0.13648367691E+03  0.14395611206E+03  0.47000000000E+01 0.  1.
         11    1    6    6    0    0 -0.24290288055E+02 -0.61343225942E+02  0.36464894643E+01  0.66078032266E+02  0.00000000000E+00 0. -1.
        -12    1    6    6    0    0  0.51045537266E+02 -0.52404065568E+02  0.32455647424E+02  0.80032505974E+02  0.00000000000E+00 0.  1.
</event>
<event>
12    1  0.8562501E-002  0.1873763E+03  0.7818608E-02  0.1162466E+00
         21   -1    0    0  501  502  0.00000000000E+00  0.00000000000E+00  0.78441557477E+02  0.78441557477E+02  0.00000000000E+00 0.  1.
         21   -1    0    0  502  503 -0.00000000000E+00 -0.00000000000E+00 -0.46852825642E+03  0.46852825642E+03  0.00000000000E+00 0.  1.
         -6    2    1    2    0  503 -0.13666786616E+02 -0.53613673221E+02 -0.26879166201E+03  0.32376053453E+03  0.17178684216E+03 0.  0.
        -24    2    3    3    0    0  0.35451024130E+02  0.23333848294E+02 -0.12242693311E+03  0.15119691071E+03  0.77916033457E+02 0.  0.
          6    2    1    2  501    0  0.13666786616E+02  0.53613673221E+02 -0.12129503693E+03  0.22320927937E+03  0.17902147748E+03 0.  0.
         24    2    5    5    0    0  0.28319272456E+02 -0.53488978249E+01 -0.13625198019E+03  0.16046312190E+03  0.79707085541E+02 0.  0.
          5    1    5    5  501    0 -0.14652485841E+02  0.58962571046E+02  0.14956943250E+02  0.62746157469E+02  0.47000000000E+01 0. -1.
        -11    1    6    6    0    0  0.22534807440E+02  0.26078911790E+02 -0.19891521144E+02  0.39794469464E+02  0.00000000000E+00 0.  1.
         12    1    6    6    0    0  0.57844650163E+01 -0.31427809615E+02 -0.11636045904E+03  0.12066865244E+03  0.00000000000E+00 0. -1.
         -5    1    3    3    0  503 -0.49117810746E+02 -0.76947521516E+02 -0.14636472890E+03  0.17256362382E+03  0.47000000000E+01 0.  1.
         13    1    4    4    0    0 -0.87660635907E+01  0.30606797304E+02 -0.91149238959E+02  0.96549488216E+02  0.00000000000E+00 0. -1.
        -14    1    4    4    0    0  0.44217087721E+02 -0.72729490101E+01 -0.31277694151E+02  0.54647422494E+02  0.00000000000E+00 0.  1.
</event>
<event>
12    1  0.8562501E-002  0.1773161E+03  0.7818608E-02  0.1171369E+00
         21   -1    0    0  501  502  0.00000000000E+00  0.00000000000E+00  0.22422366317E+03  0.22422366317E+03  0.00000000000E+00 0.  1.
         21   -1    0    0  502  503 -0.00000000000E+00 -0.00000000000E+00 -0.14399365020E+03  0.14399365020E+03  0.00000000000E+00 0.  1.
         -6    2    1    2    0  503 -0.27013522648E+01 -0.25730366661E+02  0.80367199451E+02  0.19467896974E+03  0.17541854360E+03 0.  0.
        -24    2    3    3    0    0  0.41084966608E+02 -0.30831187381E+02 -0.96801547309E+01  0.94310269006E+02  0.78499585017E+02 0.  0.
          6    2    1    2  501    0  0.27013522648E+01  0.25730366661E+02 -0.13718648209E+00  0.17353834363E+03  0.17159891846E+03 0.  0.
         24    2    5    5    0    0  0.42123685930E+02  0.44920454979E+02  0.19816672295E+02  0.12513765808E+03  0.10711900288E+03 0.  0.
          5    1    5    5  501    0 -0.39422333665E+02 -0.19190088318E+02 -0.19953858777E+02  0.48400685546E+02  0.47000000000E+01 0. -1.
        -13    1    6    6    0    0 -0.24221064839E+02  0.51404799396E+02  0.11255705188E+02  0.57929304175E+02  0.00000000000E+00 0.  1.
         14    1    6    6    0    0  0.66344750769E+02 -0.64843444176E+01  0.85609671068E+01  0.67208353908E+02  0.00000000000E+00 0. -1.
         -5    1    3    3    0  503 -0.43786318873E+02  0.51008207199E+01  0.90047354182E+02  0.10036870074E+03  0.47000000000E+01 0.  1.
         11    1    4    4    0    0  0.13061645133E+02  0.25398776851E+02 -0.13035364797E+02  0.31394667931E+02  0.00000000000E+00 0. -1.
        -12    1    4    4    0    0  0.28023321475E+02 -0.56229964232E+02  0.33552100663E+01  0.62915601075E+02  0.00000000000E+00 0.  1.
</event>
<event>
12    1  0.8562501E-002  0.1731191E+03  0.7818608E-02  0.1174706E+00
         21   -1    0    0  501  502  0.00000000000E+00  0.00000000000E+00  0.29098391896E+03  0.29098391896E+03  0.00000000000E+00 0.  1.
         21   -1    0    0  502  503 -0.00000000000E+00 -0.00000000000E+00 -0.22425420202E+03  0.22425420202E+03  0.00000000000E+00 0.  1.
         -6    2    1    2    0  503 -0.40768702512E+01  0.18626973075E+02 -0.15619136645E+03  0.23316507322E+03  0.17206575319E+03 0.  0.
        -24    2    3    3    0    0 -0.16638623781E+02 -0.51329433630E+02 -0.57109584215E+02  0.11113644518E+03  0.78601846549E+02 0.  0.
          6    2    1    2  501    0  0.40768702512E+01 -0.18626973075E+02  0.22292108339E+03  0.28207304776E+03  0.17177837424E+03 0.  0.
         24    2    5    5    0    0 -0.52559242294E+02  0.22160366891E+02  0.99403510684E+02  0.14012257361E+03  0.80620852679E+02 0.  0.
          5    1    5    5  501    0  0.56636112545E+02 -0.40787339966E+02  0.12351757271E+03  0.14195047416E+03  0.47000000000E+01 0. -1.
        -13    1    6    6    0    0 -0.37286190776E+02 -0.15290390428E-01  0.10602825778E+03  0.11239329030E+03  0.00000000000E+00 0.  1.
         14    1    6    6    0    0 -0.15273051518E+02  0.22175657281E+02 -0.66247470981E+01  0.27729283306E+02  0.00000000000E+00 0. -1.
         -5    1    3    3    0  503  0.12561753530E+02  0.69956406705E+02 -0.99081782231E+02  0.12202862804E+03  0.47000000000E+01 0.  1.
         11    1    4    4    0    0 -0.18183627254E+02  0.38214818889E+01  0.12439894457E+02  0.22360657371E+02  0.00000000000E+00 0. -1.
        -12    1    4    4    0    0  0.15450034728E+01 -0.55150915519E+02 -0.69549478672E+02  0.88775787813E+02  0.00000000000E+00 0.  1.
</event>
<event>
12    1  0.8562501E-002  0.1978762E+03  0.7818608E-02  0.1151718E+00
         21   -1    0    0  503  502  0.00000000000E+00  0.00000000000E+00  0.22981835500E+02  0.22981835500E+02  0.00000000000E+00 0. -1.
         21   -1    0    0  501  503 -0.00000000000E+00 -0.00000000000E+00 -0.16968476593E+04  0.16968476593E+04  0.00000000000E+00 0. -1.
          6    2    1    2  501    0  0.61729001835E+02 -0.75550218098E+02 -0.84534857449E+03  0.86819882479E+03  0.17215307682E+03 0.  0.
         24    2    3    3    0    0  0.73241046222E+02 -0.11319295493E+03 -0.71311397584E+03  0.73014962385E+03  0.80062692715E+02 0.  0.
         -6    2    1    2    0  502 -0.61729001835E+02  0.75550218098E+02 -0.82851724931E+03  0.85163067001E+03  0.17121816659E+03 0.  0.
        -24    2    5    5    0    0 -0.46168624006E+01  0.10296063581E+03 -0.60963504445E+03  0.62371700856E+03  0.82132888656E+02 0.  0.
          5    1    3    3  501    0 -0.11512044387E+02  0.37642736835E+02 -0.13223459865E+03  0.13804920095E+03  0.47000000000E+01 0. -1.
        -13    1    4    4    0    0  0.19601544161E+02 -0.34054466901E+02 -0.42009457242E+03  0.42192816572E+03  0.00000000000E+00 0.  1.
         14    1    4    4    0    0  0.53639502061E+02 -0.79138488033E+02 -0.29301940342E+03  0.30822145813E+03  0.00000000000E+00 0. -1.
         -5    1    5    5    0  502 -0.57112139435E+02 -0.27410417714E+02 -0.21888220486E+03  0.22791366145E+03  0.47000000000E+01 0.  1.
         13    1    6    6    0    0  0.25479136993E+02  0.37635647932E+02 -0.38920180962E+03  0.39184649677E+03  0.00000000000E+00 0. -1.
        -14    1    6    6    0    0 -0.30095999394E+02  0.65324987880E+02 -0.22043323483E+03  0.23187051179E+03  0.00000000000E+00 0.  1.
</event>
<event>
12    1  0.8562501E-002  0.1752661E+03  0.7818608E-02  0.1172645E+00
         21   -1    0    0  503  502  0.00000000000E+00  0.00000000000E+00  0.42361154447E+02  0.42361154447E+02  0.00000000000E+00 0.  1.
         21   -1    0    0  501  503 -0.00000000000E+00 -0.00000000000E+00 -0.91621228051E+03  0.91621228051E+03  0.00000000000E+00 0.  1.
          6    2    1    2  501    0  0.20793584396E+02  0.23197124132E+02 -0.65819095559E+03  0.68112667245E+03  0.17247530311E+03 0.  0.
         24    2    3    3    0    0  0.31597489496E+02 -0.44532471959E+02 -0.26527513279E+03  0.28224203204E+03  0.79423712890E+02 0.  0.
         -6    2    1    2    0  502 -0.20793584396E+02 -0.23197124132E+02 -0.21566017047E+03  0.27744676250E+03  0.17174666569E+03 0.  0.
        -24    2    5    5    0    0  0.44006075185E+02 -0.37068315317E+02 -0.17138302397E+03  0.19760966881E+03  0.79792516250E+02 0.  0.
          5    1    3    3  501    0 -0.10803905101E+02  0.67729596091E+02 -0.39291582280E+03  0.39888464042E+03  0.47000000000E+01 0. -1.
        -11    1    4    4    0    0  0.16041803534E+02  0.18204854272E+02 -0.13089202254E+03  0.13312204079E+03  0.00000000000E+00 0.  1.
         12    1    4    4    0    0  0.15555685962E+02 -0.62737326231E+02 -0.13438311026E+03  0.14911999125E+03  0.00000000000E+00 0. -1.
         -5    1    5    5    0  502 -0.64799659581E+02  0.13871191185E+02 -0.44277146495E+02  0.79837093687E+02  0.47000000000E+01 0.  1.
         11    1    6    6    0    0  0.47064163560E+02  0.12419133191E+02 -0.89719567601E+02  0.10207287187E+03  0.00000000000E+00 0. -1.
        -12    1    6    6    0    0 -0.30580883744E+01 -0.49487448509E+02 -0.81663456369E+02  0.95536796946E+02  0.00000000000E+00 0.  1.
</event>
<event>
12    1  0.8562501E-002  0.2359331E+03  0.7818608E-02  0.1122766E+00
         21   -1    0    0  503  502  0.00000000000E+00  0.00000000000E+00  0.70147652968E+02  0.70147652968E+02  0.00000000000E+00 0.  1.
         21   -1    0    0  501  503 -0.00000000000E+00 -0.00000000000E+00 -0.10147326384E+04  0.10147326384E+04  0.00000000000E+00 0. -1.
          6    2    1    2  501    0 -0.40190331989E+02 -0.15335363079E+03 -0.72924221528E+03  0.76645849466E+03  0.17473355896E+03 0.  0.
         24    2    3    3    0    0  0.20962724912E+02 -0.73090213469E+02 -0.21856177497E+03  0.24588331791E+03  0.83112823378E+02 0.  0.
         -6    2    1    2    0  502  0.40190331989E+02  0.15335363079E+03 -0.21534277018E+03  0.31842179673E+03  0.17287953351E+03 0.  0.
        -24    2    5    5    0    0 -0.91070175323E+01  0.80495752409E+01 -0.64125168486E+02  0.10294012631E+03  0.79604641453E+02 0.  0.
          5    1    3    3  501    0 -0.61153056900E+02 -0.80263417321E+02 -0.51068044031E+03  0.52057517675E+03  0.47000000000E+01 0. -1.
        -11    1    4    4    0    0 -0.17962913424E+02 -0.60263914994E+02 -0.17554399139E+03  0.18646741973E+03  0.00000000000E+00 0.  1.
         12    1    4    4    0    0  0.38925638336E+02 -0.12826298475E+02 -0.43017783580E+02  0.59415898180E+02  0.00000000000E+00 0. -1.
         -5    1    5    5    0  502  0.49297349521E+02  0.14530405555E+03 -0.15121760169E+03  0.21548167043E+03  0.47000000000E+01 0.  1.
         13    1    6    6    0    0 -0.11241131285E+02  0.76900281479E+01 -0.82914951427E+02  0.84026119365E+02  0.00000000000E+00 0. -1.
        -14    1    6    6    0    0  0.21341137528E+01  0.35954709300E+00  0.18789782941E+02  0.18914006942E+02  0.00000000000E+00 0.  1.
</event>
<event>
12    1  0.8562501E-002  0.2411766E+03  0.7818608E-02  0.1119398E+00
         21   -1    0    0  501  502  0.00000000000E+00  0.00000000000E+00  0.51784410671E+03  0.51784410671E+03  0.00000000000E+00 0. -1.
         21   -1    0    0  502  503 -0.00000000000E+00 -0.00000000000E+00 -0.60021191778E+03  0.60021191778E+03  0.00000000000E+00 0. -1.
         -6    2    1    2    0  503 -0.12729758474E+03 -0.10545755015E+03 -0.54571592370E+03  0.59569827880E+03  0.17240823653E+03 0.  0.
        -24    2    3    3    0    0 -0.15872520690E+03 -0.88502972629E+02 -0.41544139278E+03  0.46053653666E+03  0.80472873013E+02 0.  0.
          6    2    1    2  501    0  0.12729758474E+03  0.10545755015E+03  0.46334811263E+03  0.52235774569E+03  0.17561369832E+03 0.  0.
         24    2    5    5    0    0  0.93648863237E+02  0.26021678292E+01  0.17002602377E+03  0.20967355366E+03  0.79229221135E+02 0.  0.
          5    1    5    5  501    0  0.33648721504E+02  0.10285538232E+03  0.29332208886E+03  0.31268419203E+03  0.47000000000E+01 0. -1.
        -11    1    6    6    0    0  0.62039504105E+02  0.27853932456E+01  0.35602531087E+02  0.71583508610E+02  0.00000000000E+00 0.  1.
         12    1    6    6    0    0  0.31609359132E+02 -0.18322541642E+00  0.13442349268E+03  0.13809004505E+03  0.00000000000E+00 0. -1.
         -5    1    3    3    0  503  0.31427622158E+02 -0.16954577524E+02 -0.13027453092E+03  0.13516174215E+03  0.47000000000E+01 0.  1.
         13    1    4    4    0    0 -0.55059018210E+02 -0.49513073212E+02 -0.88763989974E+02  0.11559448871E+03  0.00000000000E+00 0. -1.
        -14    1    4    4    0    0 -0.10366618869E+03 -0.38989899417E+02 -0.32667740281E+03  0.34494204794E+03  0.00000000000E+00 0.  1.
</event>
<event>
12    1  0.8562501E-002  0.1872322E+03  0.7818608E-02  0.1161460E+00
         21   -1    0    0  501  502  0.00000000000E+00  0.00000000000E+00  0.40414509079E+03  0.40414509079E+03  0.00000000000E+00 0.  1.
         21   -1    0    0  502  503 -0.00000000000E+00 -0.00000000000E+00 -0.12923247339E+03  0.12923247339E+03  0.00000000000E+00 0.  1.
         -6    2    1    2    0  503 -0.65196106584E+02  0.33230503801E+02 -0.16667018709E+02  0.18797251952E+03  0.17234001243E+03 0.  0.
        -24    2    3    3    0    0 -0.99624208787E+02  0.62418668992E+02 -0.18490406516E+02  0.14255602525E+03  0.78480902057E+02 0.  0.
          6    2    1    2  501    0  0.65196106584E+02 -0.33230503801E+02  0.29157963611E+03  0.34540504465E+03  0.17009162820E+03 0.  0.
         24    2    5    5    0    0  0.67005933555E+02  0.70305961938E+01  0.85104712042E+02  0.13498114887E+03  0.80236364108E+02 0.  0.
          5    1    5    5  501    0 -0.18098269714E+01 -0.40261099995E+02  0.20647492407E+03  0.21042389578E+03  0.47000000000E+01 0. -1.
        -11    1    6    6    0    0 -0.78532550098E+01 -0.69982420343E+01  0.50041722671E+02  0.51135340164E+02  0.00000000000E+00 0.  1.
         12    1    6    6    0    0  0.74859188565E+02  0.14028838228E+02  0.35062989371E+02  0.83845808710E+02  0.00000000000E+00 0. -1.
         -5    1    3    3    0  503  0.34428102203E+02 -0.29188165190E+02  0.18233878069E+01  0.45416494268E+02  0.47000000000E+01 0.  1.
         13    1    4    4    0    0 -0.94856190178E+01  0.24507624367E+02  0.24322792401E+02  0.35807804323E+02  0.00000000000E+00 0. -1.
        -14    1    4    4    0    0 -0.90138589769E+02  0.37911044625E+02 -0.42813198917E+02  0.10674822093E+03  0.00000000000E+00 0.  1.
</event>
<event>
12    1  0.8562501E-002  0.2400840E+03  0.7818608E-02  0.1119914E+00
         21   -1    0    0  503  502  0.00000000000E+00  0.00000000000E+00  0.50914795183E+03  0.50914795183E+03  0.00000000000E+00 0. -1.
         21   -1    0    0  501  503 -0.00000000000E+00 -0.00000000000E+00 -0.16963612781E+03  0.16963612781E+03  0.00000000000E+00 0. -1.
          6    2    1    2  501    0  0.14689416814E+03 -0.79880054320E+02 -0.26602092826E+02  0.24155330598E+03  0.17228351219E+03 0.  0.
         24    2    3    3    0    0  0.19650086900E+02 -0.70175027143E+01 -0.61075382962E+02  0.90853254981E+02  0.63943258263E+02 0.  0.
         -6    2    1    2    0  502 -0.14689416814E+03  0.79880054320E+02  0.36611391684E+03  0.43723077366E+03  0.17079996961E+03 0.  0.
        -24    2    5    5    0    0 -0.42761776968E+02 -0.11341355567E+00  0.76049289235E+02  0.11879382859E+03  0.80621937999E+02 0.  0.
          5    1    3    3  501    0  0.12724408124E+03 -0.72862551606E+02  0.34473290135E+02  0.15070005100E+03  0.47000000000E+01 0. -1.
        -11    1    4    4    0    0 -0.49796497261E+01  0.12527080483E+02  0.74905371309E+01  0.15421828793E+02  0.00000000000E+00 0.  1.
         12    1    4    4    0    0  0.24629736627E+02 -0.19544583197E+02 -0.68565920093E+02  0.75431426188E+02  0.00000000000E+00 0. -1.
         -5    1    5    5    0  502 -0.10413239117E+03  0.79993467876E+02  0.29006462761E+03  0.31843694507E+03  0.47000000000E+01 0.  1.
         11    1    6    6    0    0 -0.56241828943E+02  0.25318048102E+02  0.58928391533E+02  0.85303588502E+02  0.00000000000E+00 0. -1.
        -12    1    6    6    0    0  0.13480051975E+02 -0.25431461658E+02  0.17120897702E+02  0.33490240092E+02  0.00000000000E+00 0.  1.
</event>
<event>
12    1  0.8562501E-002  0.2342881E+03  0.7818608E-02  0.1123711E+00
         21   -1    0    0  503  502  0.00000000000E+00  0.00000000000E+00  0.10908888228E+03  0.10908888228E+03  0.00000000000E+00 0. -1.
         21   -1    0    0  501  503 -0.00000000000E+00 -0.00000000000E+00 -0.67778473286E+03  0.67778473286E+03  0.00000000000E+00 0. -1.
          6    2    1    2  501    0 -0.96198764921E+02 -0.12636540548E+03 -0.48428012129E+03  0.53784160926E+03  0.17182532611E+03 0.  0.
         24    2    3    3    0    0 -0.24127133969E+01 -0.30861637708E+02 -0.10731822075E+03  0.13779266528E+03  0.80692975103E+02 0.  0.
         -6    2    1    2    0  502  0.96198764921E+02  0.12636540548E+03 -0.84415729292E+02  0.24903200589E+03  0.17224548333E+03 0.  0.
        -24    2    5    5    0    0  0.98398830230E+02  0.15708103672E+03 -0.71731328739E+02  0.21539758442E+03  0.83029837793E+02 0.  0.
          5    1    3    3  501    0 -0.93786051524E+02 -0.95503767775E+02 -0.37696190054E+03  0.40004894398E+03  0.47000000000E+01 0. -1.
        -11    1    4    4    0    0 -0.20964921111E+02 -0.71493222569E+01  0.39703623605E+01  0.22503433142E+02  0.00000000000E+00 0.  1.
         12    1    4    4    0    0  0.18552207714E+02 -0.23712315451E+02 -0.11128858311E+03  0.11528923214E+03  0.00000000000E+00 0. -1.
         -5    1    5    5    0  502 -0.22000653090E+01 -0.30715631240E+02 -0.12684400553E+02  0.33634421464E+02  0.47000000000E+01 0.  1.
         13    1    6    6    0    0  0.91187357474E+02  0.76209482434E+02 -0.60744876184E+02  0.13346519905E+03  0.00000000000E+00 0. -1.
        -14    1    6    6    0    0  0.72114727553E+01  0.80871554288E+02 -0.10986452555E+02  0.81932385368E+02  0.00000000000E+00 0.  1.
</event>
<event>
12    1  0.8562501E-002  0.1942147E+03  0.7818608E-02  0.1155616E+00
         21   -1    0    0  501  502  0.00000000000E+00  0.00000000000E+00  0.96937313221E+02  0.96937313221E+02  0.00000000000E+00 0.  1.
         21   -1    0    0  502  503 -0.00000000000E+00 -0.00000000000E+00 -0.67479955341E+03  0.67479955341E+03  0.00000000000E+00 0.  1.
         -6    2    1    2    0  503  0.45904179546E+02 -0.75863144109E+02 -0.54526353905E+03  0.57881919994E+03  0.17279157639E+03 0.  0.
        -24    2    3    3    0    0  0.97639899705E+02 -0.65124223239E+02 -0.39960426388E+03  0.42380106034E+03  0.78415920380E+02 0.  0.
          6    2    1    2  501    0 -0.45904179546E+02  0.75863144109E+02 -0.32598701140E+02  0.19291766669E+03  0.16820267677E+03 0.  0.
         24    2    5    5    0    0 -0.17821472027E+02  0.11364454974E+03 -0.94137065435E+01  0.14023268736E+03  0.79648604399E+02 0.  0.
          5    1    5    5  501    0 -0.28082707519E+02 -0.37781405628E+02 -0.23184994596E+02  0.52684979332E+02  0.47000000000E+01 0. -1.
        -11    1    6    6    0    0 -0.43654826427E+02  0.69214483906E+02 -0.26591360475E+02  0.86043530289E+02  0.00000000000E+00 0.  1.
         12    1    6    6    0    0  0.25833354399E+02  0.44430065831E+02  0.17177653931E+02  0.54189157069E+02  0.00000000000E+00 0. -1.
         -5    1    3    3    0  503 -0.51735720159E+02 -0.10738920869E+02 -0.14565927517E+03  0.15501813960E+03  0.47000000000E+01 0.  1.
         11    1    4    4    0    0  0.42711182458E+02  0.14869676163E+01 -0.61799017087E+02  0.75137039418E+02  0.00000000000E+00 0. -1.
        -12    1    4    4    0    0  0.54928717247E+02 -0.66611190856E+02 -0.33780524679E+03  0.34866402092E+03  0.00000000000E+00 0.  1.
</event>
<event>
12    1  0.8562501E-002  0.2933309E+03  0.7818608E-02  0.1088676E+00
         21   -1    0    0  501  502  0.00000000000E+00  0.00000000000E+00  0.61750276807E+03  0.61750276807E+03  0.00000000000E+00 0. -1.
         21   -1    0    0  502  503 -0.00000000000E+00 -0.00000000000E+00 -0.15832141566E+03  0.15832141566E+03  0.00000000000E+00 0.  1.
         -6    2    1    2    0  503  0.23091984798E+03  0.56380768208E+02  0.94445674045E+02  0.30776955314E+03  0.17117051523E+03 0.  0.
        -24    2    3    3    0    0  0.23039849316E+03  0.82558190337E+02  0.10650993835E+03  0.27856055259E+03  0.79701280125E+02 0.  0.
          6    2    1    2  501    0 -0.23091984798E+03 -0.56380768208E+02  0.36473567836E+03  0.46805463059E+03  0.17187278706E+03 0.  0.
         24    2    5    5    0    0 -0.23441927755E+03 -0.84286985457E+02  0.34712531741E+03  0.43454018920E+03  0.79199093687E+02 0.  0.
          5    1    5    5  501    0  0.34994295749E+01  0.27906217249E+02  0.17610360955E+02  0.33514441387E+02  0.47000000000E+01 0. -1.
        -11    1    6    6    0    0 -0.58506653689E+02 -0.43463409750E+02  0.55835005803E+02  0.91813094850E+02  0.00000000000E+00 0.  1.
         12    1    6    6    0    0 -0.17591262386E+03 -0.40823575707E+02  0.29129031160E+03  0.34272709435E+03  0.00000000000E+00 0. -1.
         -5    1    3    3    0  503  0.52135481969E+00 -0.26177422129E+02 -0.12064264301E+02  0.29209000553E+02  0.47000000000E+01 0.  1.
         13    1    4    4    0    0  0.95701455750E+01  0.17034098689E+02  0.30077227574E+02  0.35866249079E+02  0.00000000000E+00 0. -1.
        -14    1    4    4    0    0  0.22082834758E+03  0.65524091648E+02  0.76432710773E+02  0.24269430351E+03  0.00000000000E+00 0.  1.
</event>
<event>
12    1  0.8562501E-002  0.4483244E+03  0.7818608E-02  0.1028233E+00
         21   -1    0    0  503  502  0.00000000000E+00  0.00000000000E+00  0.42515672456E+03  0.42515672456E+03  0.00000000000E+00 0. -1.
         21   -1    0    0  501  503 -0.00000000000E+00 -0.00000000000E+00 -0.68220229234E+03  0.68220229234E+03  0.00000000000E+00 0.  1.
          6    2    1    2  501    0  0.24817134092E+03 -0.33142686418E+03 -0.43542639099E+03  0.62497273828E+03  0.17193603711E+03 0.  0.
         24    2    3    3    0    0  0.13599636733E+03 -0.28221124840E+03 -0.28711744828E+03  0.43255903288E+03  0.80825040459E+02 0.  0.
         -6    2    1    2    0  502 -0.24817134092E+03  0.33142686418E+03  0.17838082321E+03  0.48238627863E+03  0.17159260754E+03 0.  0.
        -24    2    5    5    0    0 -0.21094976437E+03  0.19636420337E+03  0.16552607549E+03  0.34162157195E+03  0.79042477849E+02 0.  0.
          5    1    3    3  501    0  0.11217497359E+03 -0.49215615784E+02 -0.14830894271E+03  0.19241370540E+03  0.47000000000E+01 0. -1.
        -13    1    4    4    0    0  0.10243098243E+03 -0.12568342700E+03 -0.12505535360E+03  0.20476149894E+03  0.00000000000E+00 0.  1.
         14    1    4    4    0    0  0.33565384902E+02 -0.15652782140E+03 -0.16206209468E+03  0.22779753393E+03  0.00000000000E+00 0. -1.
         -5    1    5    5    0  502 -0.37221576558E+02  0.13506266082E+03  0.12854747724E+02  0.14076470668E+03  0.47000000000E+01 0.  1.
         11    1    6    6    0    0 -0.27218919285E+02  0.30592379531E+02 -0.47697877517E+01  0.41225163767E+02  0.00000000000E+00 0. -1.
        -12    1    6    6    0    0 -0.18373084508E+03  0.16577182384E+03  0.17029586324E+03  0.30039640818E+03  0.00000000000E+00 0.  1.
</event>
<event>
12    1  0.8562501E-002  0.3744132E+03  0.7818608E-02  0.1053046E+00
         21   -1    0    0  503  502  0.00000000000E+00  0.00000000000E+00  0.62069226719E+03  0.62069226719E+03  0.00000000000E+00 0. -1.
         21   -1    0    0  501  503 -0.00000000000E+00 -0.00000000000E+00 -0.23019274106E+03  0.23019274106E+03  0.00000000000E+00 0. -1.
          6    2    1    2  501    0  0.25794842299E+03 -0.20955785280E+03  0.13572833507E+03  0.39825550939E+03  0.17243371836E+03 0.  0.
         24    2    3    3    0    0  0.16257906503E+03 -0.12236990646E+03  0.15379287378E+03  0.26769720831E+03  0.81260081931E+02 0.  0.
         -6    2    1    2    0  502 -0.25794842299E+03  0.20955785280E+03  0.25477119106E+03  0.45262949886E+03  0.17179412343E+03 0.  0.
        -24    2    5    5    0    0 -0.27398816256E+03  0.17795663701E+03  0.24362021857E+03  0.41518161143E+03  0.79289858713E+02 0.  0.
          5    1    3    3  501    0  0.95369357955E+02 -0.87187946340E+02 -0.18064538706E+02  0.13055830109E+03  0.47000000000E+01 0. -1.
        -11    1    4    4    0    0 -0.65448016071E+01 -0.12314284434E+02 -0.73065417525E-01  0.13945657667E+02  0.00000000000E+00 0.  1.
         12    1    4    4    0    0  0.16912386664E+03 -0.11005562203E+03  0.15386593920E+03  0.25375155064E+03  0.00000000000E+00 0. -1.
         -5    1    5    5    0  502  0.16039739570E+02  0.31601215795E+02  0.11150972493E+02  0.37447887427E+02  0.47000000000E+01 0.  1.
         11    1    6    6    0    0 -0.24556266877E+03  0.14988864139E+03  0.17784408718E+03  0.33822499680E+03  0.00000000000E+00 0. -1.
        -12    1    6    6    0    0 -0.28425493785E+02  0.28067995616E+02  0.65776131391E+02  0.76956614632E+02  0.00000000000E+00 0.  1.
</event>
<event>
12    1  0.8562501E-002  0.2123724E+03  0.7818608E-02  0.1140185E+00
         21   -1    0    0  503  502  0.00000000000E+00  0.00000000000E+00  0.55285434585E+03  0.55285434585E+03  0.00000000000E+00 0. -1.
         21   -1    0    0  501  503 -0.00000000000E+00 -0.00000000000E+00 -0.81048898581E+02  0.81048898581E+02  0.00000000000E+00 0. -1.
          6    2    1    2  501    0  0.12298204844E+03  0.33183905567E+01  0.21466444226E+03  0.30196498744E+03  0.17310815959E+03 0.  0.
         24    2    3    3    0    0  0.31010752929E+02 -0.19578678946E+02  0.18136971602E+03  0.20139847321E+03  0.79507104431E+02 0.  0.
         -6    2    1    2    0  502 -0.12298204844E+03 -0.33183905567E+01  0.25714100501E+03  0.33193825699E+03  0.17007620070E+03 0.  0.
        -24    2    5    5    0    0 -0.70764262899E+02 -0.67175091810E+02  0.13604365986E+03  0.18534005638E+03  0.79517200944E+02 0.  0.
          5    1    3    3  501    0  0.91971295510E+02  0.22897069503E+02  0.33294726241E+02  0.10056651423E+03  0.47000000000E+01 0. -1.
        -13    1    4    4    0    0 -0.20162380448E+02 -0.27759895566E+02  0.55110258252E+02  0.64917439504E+02  0.00000000000E+00 0.  1.
         14    1    4    4    0    0  0.51173133377E+02  0.81812166198E+01  0.12625945777E+03  0.13648103371E+03  0.00000000000E+00 0. -1.
         -5    1    5    5    0  502 -0.52217785539E+02  0.63856701253E+02  0.12109734515E+03  0.14659820061E+03  0.47000000000E+01 0.  1.
         11    1    6    6    0    0 -0.62659554337E+02 -0.47884709494E+02  0.14298849919E+03  0.16329383348E+03  0.00000000000E+00 0. -1.
        -12    1    6    6    0    0 -0.81047085622E+01 -0.19290382316E+02 -0.69448393249E+01  0.22046222897E+02  0.00000000000E+00 0.  1.
</event>
<event>
12    1  0.8562501E-002  0.1750604E+03  0.7818608E-02  0.1172846E+00
         21   -1    0    0  503  502  0.00000000000E+00  0.00000000000E+00  0.13229859425E+03  0.13229859425E+03  0.00000000000E+00 0.  1.
         21   -1    0    0  501  503 -0.00000000000E+00 -0.00000000000E+00 -0.23680288728E+03  0.23680288728E+03  0.00000000000E+00 0.  1.
          6    2    1    2  501    0 -0.26838629228E+02  0.16095232030E+02 -0.22585989010E+02  0.17582254986E+03  0.17153446775E+03 0.  0.
         24    2    3    3    0    0 -0.77258423893E+02 -0.16074645143E+02 -0.39237533040E+01  0.11299400752E+03  0.80777420208E+02 0.  0.
         -6    2    1    2    0  502  0.26838629228E+02 -0.16095232030E+02 -0.81918304021E+02  0.19327893168E+03  0.17224043771E+03 0.  0.
        -24    2    5    5    0    0 -0.36763878886E+02 -0.32947616982E+02 -0.77755166513E+01  0.94039197517E+02  0.79660427785E+02 0.  0.
          5    1    3    3  501    0  0.50419794666E+02  0.32169877173E+02 -0.18662235706E+02  0.62828542344E+02  0.47000000000E+01 0. -1.
        -11    1    4    4    0    0 -0.72302538632E+02 -0.28572907459E+02  0.24531610278E+02  0.81522193519E+02  0.00000000000E+00 0.  1.
         12    1    4    4    0    0 -0.49558852614E+01  0.12498262317E+02 -0.28455363582E+02  0.31471813997E+02  0.00000000000E+00 0. -1.
         -5    1    5    5    0  502  0.63602508114E+02  0.16852384951E+02 -0.74142787369E+02  0.99239734158E+02  0.47000000000E+01 0.  1.
         11    1    6    6    0    0 -0.44746433492E+01  0.70322997354E+01  0.29434415698E+02  0.30591837149E+02  0.00000000000E+00 0. -1.
        -12    1    6    6    0    0 -0.32289235537E+02 -0.39979916717E+02 -0.37209932349E+02  0.63447360368E+02  0.00000000000E+00 0.  1.
</event>
<event>
12    1  0.8562501E-002  0.2060325E+03  0.7818608E-02  0.1144910E+00
         21   -1    0    0  503  502  0.00000000000E+00  0.00000000000E+00  0.12958011513E+03  0.12958011513E+03  0.00000000000E+00 0.  1.
         21   -1    0    0  501  503 -0.00000000000E+00 -0.00000000000E+00 -0.37010370058E+03  0.37010370058E+03  0.00000000000E+00 0.  1.
          6    2    1    2  501    0  0.98400506300E+02 -0.51706961824E+02 -0.34116771297E+02  0.20804503232E+03  0.17251814933E+03 0.  0.
         24    2    3    3    0    0  0.14327371256E+02 -0.45435758275E+02  0.34865327621E+02  0.99011826367E+02  0.79486281793E+02 0.  0.
         -6    2    1    2    0  502 -0.98400506300E+02  0.51706961824E+02 -0.20640681415E+03  0.29163878339E+03  0.17347373723E+03 0.  0.
        -24    2    5    5    0    0 -0.12350376434E+03 -0.29959831810E+00 -0.13270700710E+03  0.19789121051E+03  0.79350563297E+02 0.  0.
          5    1    3    3  501    0  0.84073135045E+02 -0.62712035489E+01 -0.68982098918E+02  0.10903320596E+03  0.47000000000E+01 0. -1.
        -13    1    4    4    0    0  0.21186095679E+02 -0.18513034023E+02  0.56950079980E+02  0.63520820906E+02  0.00000000000E+00 0.  1.
         14    1    4    4    0    0 -0.68587244232E+01 -0.26922724252E+02 -0.22084752359E+02  0.35491005461E+02  0.00000000000E+00 0. -1.
         -5    1    5    5    0  502  0.25103258044E+02  0.52006560142E+02 -0.73699807044E+02  0.93747572878E+02  0.47000000000E+01 0.  1.
         13    1    6    6    0    0  0.69584553253E+01 -0.10036237700E+02 -0.27225067471E+02  0.29838741034E+02  0.00000000000E+00 0. -1.
        -14    1    6    6    0    0 -0.13046221967E+03  0.97366393824E+01 -0.10548193963E+03  0.16805246947E+03  0.00000000000E+00 0.  1.
</event>
<event>
12    1  0.8562501E-002  0.1850304E+03  0.7818608E-02  0.1166743E+00
         21   -1    0    0  503  502  0.00000000000E+00  0.00000000000E+00  0.11594771250E+04  0.11594771250E+04  0.00000000000E+00 0.  1.
         21   -1    0    0  501  503 -0.00000000000E+00 -0.00000000000E+00 -0.41040295804E+02  0.41040295804E+02  0.00000000000E+00 0.  1.
          6    2    1    2  501    0  0.11134838425E+02 -0.53963587606E+01  0.22605898308E+03  0.29212825743E+03  0.18461622259E+03 0.  0.
         24    2    3    3    0    0 -0.51244061308E+02 -0.52796695118E+02  0.15703973828E+03  0.18761191817E+03  0.71577284159E+02 0.  0.
         -6    2    1    2    0  502 -0.11134838425E+02  0.53963587606E+01  0.89237784611E+03  0.90838916337E+03  0.16935036635E+03 0.  0.
        -24    2    5    5    0    0 -0.20192883427E+02 -0.52883940140E+02  0.42262489548E+03  0.43492473382E+03  0.85692812680E+02 0.  0.
          5    1    3    3  501    0  0.62378899733E+02  0.47400336357E+02  0.69019244806E+02  0.10451633926E+03  0.47000000000E+01 0. -1.
        -11    1    4    4    0    0 -0.68137221875E+02 -0.51119163238E+02  0.12359310739E+03  0.15010365102E+03  0.00000000000E+00 0.  1.
         12    1    4    4    0    0  0.16893160567E+02 -0.16775318796E+01  0.33446630884E+02  0.37508267150E+02  0.00000000000E+00 0. -1.
         -5    1    5    5    0  502  0.90580450018E+01  0.58280298901E+02  0.46975295063E+03  0.47346442954E+03  0.47000000000E+01 0.  1.
         13    1    6    6    0    0 -0.23319429929E+02 -0.18199332829E+01  0.25835558467E+02  0.34850883069E+02  0.00000000000E+00 0. -1.
        -14    1    6    6    0    0  0.31265465024E+01 -0.51064006858E+02  0.39678933701E+03  0.40007385075E+03  0.00000000000E+00 0.  1.
</event>
<event>
12    1  0.8562501E-002  0.2089498E+03  0.7818608E-02  0.1142727E+00
         21   -1    0    0  501  502  0.00000000000E+00  0.00000000000E+00  0.18230045391E+04  0.18230045391E+04  0.00000000000E+00 0. -1.
         21   -1    0    0  502  503 -0.00000000000E+00 -0.00000000000E+00 -0.30321251470E+02  0.30321251470E+02  0.00000000000E+00 0. -1.
         -6    2    1    2    0  503  0.49785769643E+02 -0.10798957654E+03  0.46812423209E+03  0.51264054085E+03  0.17181285152E+03 0.  0.
        -24    2    3    3    0    0  0.47638043239E+02  0.76270640852E+01  0.20625930939E+03  0.22634148731E+03  0.79749676458E+02 0.  0.
          6    2    1    2  501    0 -0.49785769643E+02  0.10798957654E+03  0.13245590555E+04  0.13406852497E+04  0.16982307180E+03 0.  0.
         24    2    5    5    0    0 -0.96402686862E+02  0.74575503574E+02  0.10905113449E+04  0.10996664578E+04  0.72085651211E+02 0.  0.
          5    1    5    5  501    0  0.46616917218E+02  0.33414072963E+02  0.23404771056E+03  0.24101879193E+03  0.47000000000E+01 0. -1.
        -13    1    6    6    0    0 -0.23125039501E+02  0.16006499827E+02  0.79797304823E+02  0.84608423609E+02  0.00000000000E+00 0.  1.
         14    1    6    6    0    0 -0.73277647360E+02  0.58569003747E+02  0.10107140401E+04  0.10150580342E+04  0.00000000000E+00 0. -1.
         -5    1    3    3    0  503  0.21477264046E+01 -0.11561664062E+03  0.26186492270E+03  0.28629905354E+03  0.47000000000E+01 0.  1.
         11    1    4    4    0    0  0.31119803715E+02 -0.24510091752E+02  0.17215929388E+03  0.17665788759E+03  0.00000000000E+00 0. -1.
        -12    1    4    4    0    0  0.16518239524E+02  0.32137155838E+02  0.34100015517E+02  0.49683599714E+02  0.00000000000E+00 0.  1.
</event>
<event>
12    1  0.8562501E-002  0.2912962E+03  0.7818608E-02  0.1089738E+00
         21   -1    0    0  501  502  0.00000000000E+00  0.00000000000E+00  0.21587498060E+03  0.21587498060E+03  0.00000000000E+00 0. -1.
         21   -1    0    0  502  503 -0.00000000000E+00 -0.00000000000E+00 -0.47964219234E+03  0.47964219234E+03  0.00000000000E+00 0.  1.
         -6    2    1    2    0  503  0.88983485747E+02  0.21762579552E+03 -0.28028764231E+03  0.40424576819E+03  0.17197218106E+03 0.  0.
        -24    2    3    3    0    0  0.20049361263E+02  0.33808865380E+02 -0.57980525163E+02  0.10762627851E+03  0.81710820962E+02 0.  0.
          6    2    1    2  501    0 -0.88983485747E+02 -0.21762579552E+03  0.16520430570E+02  0.29127140475E+03  0.17113462240E+03 0.  0.
         24    2    5    5    0    0 -0.62263069093E+02 -0.23820103541E+03  0.98451799743E+01  0.25657313198E+03  0.71529164949E+02 0.  0.
          5    1    5    5  501    0 -0.26720416654E+02  0.20575239892E+02  0.66752505954E+01  0.34698272771E+02  0.47000000000E+01 0. -1.
        -11    1    6    6    0    0 -0.63068909370E+01 -0.77556840279E+02 -0.27283939940E+02  0.82457587438E+02  0.00000000000E+00 0.  1.
         12    1    6    6    0    0 -0.55956178156E+02 -0.16064419514E+03  0.37129119915E+02  0.17411554454E+03  0.00000000000E+00 0. -1.
         -5    1    3    3    0  503  0.68934124484E+02  0.18381693014E+03 -0.22230711715E+03  0.29661948968E+03  0.47000000000E+01 0.  1.
         11    1    4    4    0    0  0.43915539578E+02  0.26052267107E+02 -0.79798985182E+01  0.51681466873E+02  0.00000000000E+00 0. -1.
        -12    1    4    4    0    0 -0.23866178315E+02  0.77565982737E+01 -0.50000626644E+02  0.55944811636E+02  0.00000000000E+00 0.  1.
</event>
<event>
12    1  0.8562501E-002  0.1995272E+03  0.7818608E-02  0.1150245E+00
         21   -1    0    0  501  502  0.00000000000E+00  0.00000000000E+00  0.74899323911E+03  0.74899323911E+03  0.00000000000E+00 0. -1.
         21   -1    0    0  502  503 -0.00000000000E+00 -0.00000000000E+00 -0.11509596589E+03  0.11509596589E+03  0.00000000000E+00 0.  1.
         -6    2    1    2    0  503  0.20720461986E+02 -0.97292479698E+02 -0.53118950717E+00  0.19902487636E+03  0.17238171335E+03 0.  0.
        -24    2    3    3    0    0  0.41767233302E+02 -0.11908721490E+03 -0.36304913717E+02  0.15190984257E+03  0.76369411269E+02 0.  0.
          6    2    1    2  501    0 -0.20720461986E+02  0.97292479698E+02  0.63442846272E+03  0.66506432864E+03  0.17296220042E+03 0.  0.
         24    2    5    5    0    0 -0.18785231403E+02  0.66465619137E+02  0.17154760042E+03  0.20113025667E+03  0.79083737227E+02 0.  0.
          5    1    5    5  501    0 -0.19352305824E+01  0.30826860561E+02  0.46288086230E+03  0.46393407197E+03  0.47000000000E+01 0. -1.
        -13    1    6    6    0    0 -0.33602034074E+02  0.58601194630E+02  0.17153370986E+03  0.18435566258E+03  0.00000000000E+00 0.  1.
         14    1    6    6    0    0  0.14816802671E+02  0.78644245078E+01  0.13890561359E-01  0.16774594098E+02  0.00000000000E+00 0. -1.
         -5    1    3    3    0  503 -0.21046771316E+02  0.21794735204E+02  0.35773724210E+02  0.47115033793E+02  0.47000000000E+01 0.  1.
         11    1    4    4    0    0  0.60027163681E+02 -0.89111418144E+02 -0.97267153193E+01  0.10788287266E+03  0.00000000000E+00 0. -1.
        -12    1    4    4    0    0 -0.18259930379E+02 -0.29975796759E+02 -0.26578198398E+02  0.44026969903E+02  0.00000000000E+00 0.  1.
</event>
<event>
12    1  0.8562501E-002  0.1771687E+03  0.7818608E-02  0.1170679E+00
         21   -1    0    0  501  502  0.00000000000E+00  0.00000000000E+00  0.16492274980E+03  0.16492274980E+03  0.00000000000E+00 0. -1.
         21   -1    0    0  502  503 -0.00000000000E+00 -0.00000000000E+00 -0.21879890536E+03  0.21879890536E+03  0.00000000000E+00 0. -1.
         -6    2    1    2    0  503  0.40606492697E+02 -0.89178947354E+01 -0.96742984394E+02  0.20186118665E+03  0.17222171045E+03 0.  0.
        -24    2    3    3    0    0  0.84762466195E+02 -0.25769484391E+02 -0.98047305906E+02  0.15434784827E+03  0.79757395080E+02 0.  0.
          6    2    1    2  501    0 -0.40606492697E+02  0.89178947354E+01  0.42866828828E+02  0.18186046850E+03  0.17177674143E+03 0.  0.
         24    2    5    5    0    0 -0.45416239232E+02 -0.61948514374E+01 -0.37779096280E+02  0.99535599873E+02  0.79869046295E+02 0.  0.
          5    1    5    5  501    0  0.48097465348E+01  0.15112746173E+02  0.80645925108E+02  0.82324868631E+02  0.47000000000E+01 0. -1.
        -13    1    6    6    0    0  0.24961688382E+01  0.12268108686E+02 -0.45876762969E+02  0.47554334504E+02  0.00000000000E+00 0.  1.
         14    1    6    6    0    0 -0.47912408070E+02 -0.18462960124E+02  0.80976666891E+01  0.51981265369E+02  0.00000000000E+00 0. -1.
         -5    1    3    3    0  503 -0.44155973498E+02  0.16851589655E+02  0.13043215123E+01  0.47513338380E+02  0.47000000000E+01 0.  1.
         11    1    4    4    0    0  0.35826453909E+02 -0.16122142003E+02 -0.96784149087E+02  0.10445396008E+03  0.00000000000E+00 0. -1.
        -12    1    4    4    0    0  0.48936012286E+02 -0.96473423872E+01 -0.12631568189E+01  0.49893888190E+02  0.00000000000E+00 0.  1.
</event>
<event>
12    1  0.8562501E-002  0.3399905E+03  0.7818608E-02  0.1066918E+00
         21   -1    0    0  501  502  0.00000000000E+00  0.00000000000E+00  0.58940554128E+03  0.58940554128E+03  0.00000000000E+00 0. -1.
         21   -1    0    0  502  503 -0.00000000000E+00 -0.00000000000E+00 -0.40793676029E+03  0.40793676029E+03  0.00000000000E+00 0.  1.
         -6    2    1    2    0  503 -0.11653274637E+03 -0.26850258905E+03 -0.26907148137E+03  0.43358160888E+03  0.17297406792E+03 0.  0.
        -24    2    3    3    0    0 -0.10296691743E+03 -0.10579911972E+03 -0.83885345777E+02  0.18665561701E+03  0.77510827021E+02 0.  0.
          6    2    1    2  501    0  0.11653274637E+03  0.26850258905E+03  0.45054026237E+03  0.56376069268E+03  0.17078076386E+03 0.  0.
         24    2    5    5    0    0 -0.10278490134E+02  0.11977102095E+03  0.18701570603E+03  0.23563045811E+03  0.78077485022E+02 0.  0.
          5    1    5    5  501    0  0.12681123650E+03  0.14873156809E+03  0.26352455633E+03  0.32813023457E+03  0.47000000000E+01 0. -1.
        -11    1    6    6    0    0 -0.39679939830E+01  0.57214834290E+02  0.26379696868E+02  0.63128208005E+02  0.00000000000E+00 0.  1.
         12    1    6    6    0    0 -0.63104961510E+01  0.62556186665E+02  0.16063600916E+03  0.17250225011E+03  0.00000000000E+00 0. -1.
         -5    1    3    3    0  503 -0.13565828934E+02 -0.16270346932E+03 -0.18518613560E+03  0.24692599187E+03  0.47000000000E+01 0.  1.
         13    1    4    4    0    0 -0.85432534837E+01  0.12494953479E+02 -0.10671253044E+02  0.18519899677E+02  0.00000000000E+00 0. -1.
        -14    1    4    4    0    0 -0.94423663949E+02 -0.11829407320E+03 -0.73214092733E+02  0.16813571733E+03  0.00000000000E+00 0.  1.
</event>
<event>
12    1  0.8562501E-002  0.2181611E+03  0.7818608E-02  0.1135289E+00
         21   -1    0    0  503  502  0.00000000000E+00  0.00000000000E+00  0.62085581327E+03  0.62085581327E+03  0.00000000000E+00 0. -1.
         21   -1    0    0  501  503 -0.00000000000E+00 -0.00000000000E+00 -0.94179445957E+02  0.94179445957E+02  0.00000000000E+00 0.  1.
          6    2    1    2  501    0  0.59041074954E+02 -0.11932551212E+03  0.10883937503E+03  0.24367339648E+03  0.17264497740E+03 0.  0.
         24    2    3    3    0    0  0.18792206040E+02 -0.13591774612E+02  0.10230385461E+03  0.13025206814E+03  0.77211652241E+02 0.  0.
         -6    2    1    2    0  502 -0.59041074954E+02  0.11932551212E+03  0.41783699229E+03  0.47136186275E+03  0.17282889561E+03 0.  0.
        -24    2    5    5    0    0 -0.10004130685E+03  0.51234187646E+02  0.28080761097E+03  0.31287972234E+03  0.80047493491E+02 0.  0.
          5    1    3    3  501    0  0.40248868914E+02 -0.10573373750E+03  0.65355204186E+01  0.11342132834E+03  0.47000000000E+01 0. -1.
        -13    1    4    4    0    0  0.19482139374E+02 -0.27689978968E+01 -0.66413357795E+01  0.20768448302E+02  0.00000000000E+00 0.  1.
         14    1    4    4    0    0 -0.68993333444E+00 -0.10822776715E+02  0.10894519039E+03  0.10948361984E+03  0.00000000000E+00 0. -1.
         -5    1    5    5    0  502  0.41000231899E+02  0.68091324469E+02  0.13702938132E+03  0.15848214041E+03  0.47000000000E+01 0.  1.
         11    1    6    6    0    0 -0.68002121644E+02  0.68556740788E+02  0.23695013013E+03  0.25587043484E+03  0.00000000000E+00 0. -1.
        -12    1    6    6    0    0 -0.32039185209E+02 -0.17322553141E+02  0.43857480837E+02  0.57009287503E+02  0.00000000000E+00 0.  1.
</event>
<event>
12    1  0.8562501E-002  0.1773313E+03  0.7818608E-02  0.1170586E+00
         21   -1    0    0  503  502  0.00000000000E+00  0.00000000000E+00  0.58032503427E+03  0.58032503427E+03  0.00000000000E+00 0. -1.
         21   -1    0    0  501  503 -0.00000000000E+00 -0.00000000000E+00 -0.24372001998E+03  0.24372001998E+03  0.00000000000E+00 0. -1.
          6    2    1    2  501    0 -0.28767733472E+02  0.31014999999E+02 -0.19532261173E+03  0.26333711900E+03  0.17148178584E+03 0.  0.
         24    2    3    3    0    0 -0.95335734675E+01 -0.47975059437E+02 -0.12321383897E+03  0.15456604054E+03  0.79476508623E+02 0.  0.
         -6    2    1    2    0  502  0.28767733472E+02 -0.31014999999E+02  0.53192762602E+03  0.56070793525E+03  0.17221172033E+03 0.  0.
        -24    2    5    5    0    0  0.20576650293E+02  0.66322620245E+01  0.50861005641E+03  0.51542869901E+03  0.80716595907E+02 0.  0.
          5    1    3    3  501    0 -0.19234160004E+02  0.78990059436E+02 -0.72108772764E+02  0.10877107846E+03  0.47000000000E+01 0. -1.
        -13    1    4    4    0    0 -0.43172883440E+01 -0.40280026831E+02 -0.11013385199E+02  0.41981117108E+02  0.00000000000E+00 0.  1.
         14    1    4    4    0    0 -0.52162851235E+01 -0.76950326060E+01 -0.11220045377E+03  0.11258492343E+03  0.00000000000E+00 0. -1.
         -5    1    5    5    0  502  0.81910831781E+01 -0.37647262024E+02  0.23317569614E+02  0.45279236237E+02  0.47000000000E+01 0.  1.
         13    1    6    6    0    0  0.17899165830E+02 -0.36041692721E+02  0.21686656845E+03  0.22056856590E+03  0.00000000000E+00 0. -1.
        -14    1    6    6    0    0  0.26774844633E+01  0.42673954745E+02  0.29174348795E+03  0.29486013311E+03  0.00000000000E+00 0.  1.
</event>
<event>
12    1  0.8562501E-002  0.2592147E+03  0.7818608E-02  0.1107694E+00
         21   -1    0    0  501  502  0.00000000000E+00  0.00000000000E+00  0.19215313228E+03  0.19215313228E+03  0.00000000000E+00 0.  1.
         21   -1    0    0  502  503 -0.00000000000E+00 -0.00000000000E+00 -0.44065191204E+03  0.44065191204E+03  0.00000000000E+00 0.  1.
         -6    2    1    2    0  503  0.19182976698E+03  0.28731715192E+02  0.19964948918E+02  0.25998245525E+03  0.17195379290E+03 0.  0.
        -24    2    3    3    0    0  0.45849481092E+02  0.59651867719E+02 -0.28759662916E+01  0.10895233538E+03  0.78751634672E+02 0.  0.
          6    2    1    2  501    0 -0.19182976698E+03 -0.28731715192E+02 -0.26846372867E+03  0.37282258907E+03  0.17117166340E+03 0.  0.
         24    2    5    5    0    0 -0.14700124943E+03  0.12068519228E+02 -0.10303924180E+03  0.19657955808E+03  0.79192302758E+02 0.  0.
          5    1    5    5  501    0 -0.44828517554E+02 -0.40800234419E+02 -0.16542448687E+03  0.17624303099E+03  0.47000000000E+01 0. -1.
        -13    1    6    6    0    0 -0.13171247174E+03  0.22062691667E+02 -0.11373272891E+03  0.17541399944E+03  0.00000000000E+00 0.  1.
         14    1    6    6    0    0 -0.15288777689E+02 -0.99941724391E+01  0.10693487111E+02  0.21165558640E+02  0.00000000000E+00 0. -1.
         -5    1    3    3    0  503  0.14598028589E+03 -0.30920152527E+02  0.22840915209E+02  0.15103011987E+03  0.47000000000E+01 0.  1.
         13    1    4    4    0    0 -0.14282011501E+02  0.25650945822E+02 -0.22671020479E+02  0.37093423186E+02  0.00000000000E+00 0. -1.
        -14    1    4    4    0    0  0.60131492593E+02  0.34000921897E+02  0.19795054187E+02  0.71858912193E+02  0.00000000000E+00 0.  1.
</event>
<event>
12    1  0.8562501E-002  0.2334175E+03  0.7818608E-02  0.1125410E+00
         21   -1    0    0  501  502  0.00000000000E+00  0.00000000000E+00  0.54189659181E+02  0.54189659181E+02  0.00000000000E+00 0.  1.
         21   -1    0    0  502  503 -0.00000000000E+00 -0.00000000000E+00 -0.12602511356E+04  0.12602511356E+04  0.00000000000E+00 0. -1.
         -6    2    1    2    0  503 -0.14627834684E+03 -0.23265647021E+02 -0.29832256842E+03  0.37878767850E+03  0.18040262046E+03 0.  0.
        -24    2    3    3    0    0 -0.88050530330E+02 -0.66798516907E+02 -0.26702456795E+03  0.29949553382E+03  0.78616265069E+02 0.  0.
          6    2    1    2  501    0  0.14627834684E+03  0.23265647021E+02 -0.90773890802E+03  0.93565311630E+03  0.17180856739E+03 0.  0.
         24    2    5    5    0    0  0.15543945755E+03  0.18621207895E+02 -0.90719201856E+03  0.92434445359E+03  0.83109181237E+02 0.  0.
          5    1    5    5  501    0 -0.91611107086E+01  0.46444391264E+01 -0.54688946153E+00  0.11308662710E+02  0.47000000000E+01 0. -1.
        -11    1    6    6    0    0  0.98614468968E+01 -0.17529677978E+02 -0.22287283668E+03  0.22377854918E+03  0.00000000000E+00 0.  1.
         12    1    6    6    0    0  0.14557801065E+03  0.36150885873E+02 -0.68431918188E+03  0.70056590441E+03  0.00000000000E+00 0. -1.
         -5    1    3    3    0  503 -0.58227816506E+02  0.43532869885E+02 -0.31298000471E+02  0.79292144687E+02  0.47000000000E+01 0.  1.
         13    1    4    4    0    0 -0.26132792210E+02 -0.68729003795E+02 -0.15197234262E+03  0.16882592133E+03  0.00000000000E+00 0. -1.
        -14    1    4    4    0    0 -0.61917738120E+02  0.19304868881E+01 -0.11505222533E+03  0.13066961249E+03  0.00000000000E+00 0.  1.
</event>
<event>
12    1  0.8562501E-002  0.2870466E+03  0.7818608E-02  0.1092058E+00
         21   -1    0    0  503  502  0.00000000000E+00  0.00000000000E+00  0.22531623217E+03  0.22531623217E+03  0.00000000000E+00 0.  1.
         21   -1    0    0  501  503 -0.00000000000E+00 -0.00000000000E+00 -0.41104101670E+03  0.41104101670E+03  0.00000000000E+00 0. -1.
          6    2    1    2  501    0 -0.89897531627E+02  0.21000559374E+03  0.14389659559E+02  0.28740704678E+03  0.17381551323E+03 0.  0.
         24    2    3    3    0    0 -0.22268996645E+02  0.19055033728E+03 -0.18160655081E+02  0.20972990258E+03  0.82773687818E+02 0.  0.
         -6    2    1    2    0  502  0.89897531627E+02 -0.21000559374E+03 -0.20011444409E+03  0.34895020209E+03  0.17186197139E+03 0.  0.
        -24    2    5    5    0    0  0.16469441606E+02 -0.57150268471E+02 -0.21157401384E+02  0.10236523093E+03  0.80582933538E+02 0.  0.
          5    1    3    3  501    0 -0.67628534982E+02  0.19455256468E+02  0.32550314640E+02  0.77677144201E+02  0.47000000000E+01 0. -1.
        -11    1    4    4    0    0 -0.46589494971E+02  0.16260461983E+03 -0.27879718780E+02  0.17142964198E+03  0.00000000000E+00 0.  1.
         12    1    4    4    0    0  0.24320498326E+02  0.27945717447E+02  0.97190636992E+01  0.38300260595E+02  0.00000000000E+00 0. -1.
         -5    1    5    5    0  502  0.73428090021E+02 -0.15285532527E+03 -0.17895704270E+03  0.24658497116E+03  0.47000000000E+01 0.  1.
         11    1    6    6    0    0  0.23688599118E+02 -0.84187097458E+01 -0.41939821410E+02  0.48897576851E+02  0.00000000000E+00 0. -1.
        -12    1    6    6    0    0 -0.72191575125E+01 -0.48731558725E+02  0.20782420025E+02  0.53467654083E+02  0.00000000000E+00 0.  1.
</event>
<event>
12    1  0.8562501E-002  0.2242628E+03  0.7818608E-02  0.1131174E+00
         21   -1    0    0  501  502  0.00000000000E+00  0.00000000000E+00  0.36814881367E+02  0.36814881367E+02  0.00000000000E+00 0.  1.
         21   -1    0    0  502  503 -0.00000000000E+00 -0.00000000000E+00 -0.15348558617E+04  0.15348558617E+04  0.00000000000E+00 0. -1.
         -6    2    1    2    0  503  0.83737773829E+02 -0.11382968479E+03 -0.10238285790E+04  0.10481024594E+04  0.17413958265E+03 0.  0.
        -24    2    3    3    0    0  0.28910024144E+02 -0.13244685914E+03 -0.59857701963E+03  0.61890127104E+03  0.79789566174E+02 0.  0.
          6    2    1    2  501    0 -0.83737773829E+02  0.11382968479E+03 -0.47421240132E+03  0.52356828369E+03  0.17110562298E+03 0.  0.
         24    2    5    5    0    0 -0.20372847641E+02 -0.30074101708E+01 -0.22636618248E+03  0.24229286915E+03  0.83905234843E+02 0.  0.
          5    1    5    5  501    0 -0.63364926188E+02  0.11683709496E+03 -0.24784621884E+03  0.28127541454E+03  0.47000000000E+01 0. -1.
        -13    1    6    6    0    0  0.24712898578E+02 -0.72732324294E+01 -0.25001684738E+02  0.35898628189E+02  0.00000000000E+00 0.  1.
         14    1    6    6    0    0 -0.45085746219E+02  0.42658222586E+01 -0.20136449774E+03  0.20639424096E+03  0.00000000000E+00 0. -1.
         -5    1    3    3    0  503  0.54827749685E+02  0.18617174344E+02 -0.42525155939E+03  0.42920118835E+03  0.47000000000E+01 0.  1.
         11    1    4    4    0    0  0.24839774553E+02 -0.10165584265E+03 -0.55838911726E+03  0.56811031589E+03  0.00000000000E+00 0. -1.
        -12    1    4    4    0    0  0.40702495904E+01 -0.30791016485E+02 -0.40187902370E+02  0.50790955148E+02  0.00000000000E+00 0.  1.
</event>
<event>
12    1  0.8562501E-002  0.2094631E+03  0.7818608E-02  0.1143216E+00
         21   -1    0    0  503  502  0.00000000000E+00  0.00000000000E+00  0.29329002376E+03  0.29329002376E+03  0.00000000000E+00 0.  1.
         21   -1    0    0  501  503 -0.00000000000E+00 -0.00000000000E+00 -0.20724513452E+03  0.20724513452E+03  0.00000000000E+00 0.  1.
          6    2    1    2  501    0  0.61567610840E+02  0.89996296281E+02 -0.94241810003E+02  0.22416928782E+03  0.17169870937E+03 0.  0.
         24    2    3    3    0    0  0.31684959181E+02  0.36500566190E+02 -0.12199118061E+03  0.15673870442E+03  0.85725989915E+02 0.  0.
         -6    2    1    2    0  502 -0.61567610840E+02 -0.89996296281E+02  0.18028669925E+03  0.27636587046E+03  0.17884321732E+03 0.  0.
        -24    2    5    5    0    0 -0.64700843751E+02 -0.13155191662E+03  0.15577631913E+03  0.22779082065E+03  0.78296171210E+02 0.  0.
          5    1    3    3  501    0  0.29882651659E+02  0.53495730091E+02  0.27749370608E+02  0.67430583397E+02  0.47000000000E+01 0. -1.
        -13    1    4    4    0    0 -0.12660070715E+02  0.23675838189E+02 -0.10364246132E+03  0.10706345078E+03  0.00000000000E+00 0.  1.
         14    1    4    4    0    0  0.44345029896E+02  0.12824728001E+02 -0.18348719289E+02  0.49675253641E+02  0.00000000000E+00 0. -1.
         -5    1    5    5    0  502  0.31332329114E+01  0.41555620337E+02  0.24510380121E+02  0.48575049807E+02  0.47000000000E+01 0.  1.
         11    1    6    6    0    0 -0.27037702986E+02 -0.11073151631E+03  0.75544378074E+02  0.13674596574E+03  0.00000000000E+00 0. -1.
        -12    1    6    6    0    0 -0.37663140765E+02 -0.20820400303E+02  0.80231941052E+02  0.91044854913E+02  0.00000000000E+00 0.  1.
</event>
<event>
12    1  0.8562501E-002  0.1869854E+03  0.7818608E-02  0.1161358E+00
         21   -1    0    0  501  502  0.00000000000E+00  0.00000000000E+00  0.21373866870E+03  0.21373866870E+03  0.00000000000E+00 0.  1.
         21   -1    0    0  502  503 -0.00000000000E+00 -0.00000000000E+00 -0.18387794688E+03  0.18387794688E+03  0.00000000000E+00 0.  1.
         -6    2    1    2    0  503 -0.72183533141E+02 -0.39944181186E+00 -0.52012241326E+02  0.19408459802E+03  0.17249039373E+03 0.  0.
        -24    2    3    3    0    0  0.23804244097E+02 -0.24901210921E+02 -0.16993724925E+02  0.88906764995E+02  0.80180507810E+02 0.  0.
          6    2    1    2  501    0  0.72183533141E+02  0.39944181186E+00  0.81872963148E+02  0.20353201756E+03  0.17178905107E+03 0.  0.
         24    2    5    5    0    0 -0.98956611550E+01  0.38806128742E+02  0.63905805980E+02  0.11102809076E+03  0.81482790585E+02 0.  0.
          5    1    5    5  501    0  0.82079194296E+02 -0.38406686930E+02  0.17967157167E+02  0.92503926802E+02  0.47000000000E+01 0. -1.
        -11    1    6    6    0    0 -0.23094676362E+01  0.57876210008E+02  0.68793286818E+02  0.89930560083E+02  0.00000000000E+00 0.  1.
         12    1    6    6    0    0 -0.75861935188E+01 -0.19070081266E+02 -0.48874808373E+01  0.21097530674E+02  0.00000000000E+00 0. -1.
         -5    1    3    3    0  503 -0.95987777238E+02  0.24501769109E+02 -0.35018516401E+02  0.10517783302E+03  0.47000000000E+01 0.  1.
         13    1    4    4    0    0 -0.10608551654E+02 -0.22180187884E+02  0.24650075075E+02  0.34815633040E+02  0.00000000000E+00 0. -1.
        -14    1    4    4    0    0  0.34412795751E+02 -0.27210230372E+01 -0.41643800000E+02  0.54091131956E+02  0.00000000000E+00 0.  1.
</event>
<event>
12    1  0.8562501E-002  0.1801176E+03  0.7818608E-02  0.1168093E+00
         21   -1    0    0  501  502  0.00000000000E+00  0.00000000000E+00  0.20528062059E+03  0.20528062059E+03  0.00000000000E+00 0.  1.
         21   -1    0    0  502  503 -0.00000000000E+00 -0.00000000000E+00 -0.16131352683E+03  0.16131352683E+03  0.00000000000E+00 0.  1.
         -6    2    1    2    0  503 -0.12140592125E+02 -0.50618007844E+02 -0.94959141642E+01  0.17870951566E+03  0.17069663706E+03 0.  0.
        -24    2    3    3    0    0  0.31927629271E+02 -0.14271141553E+02  0.46739229226E+02  0.98412665293E+02  0.79230411771E+02 0.  0.
          6    2    1    2  501    0  0.12140592125E+02  0.50618007844E+02  0.53463007921E+02  0.18788463176E+03  0.17243191393E+03 0.  0.
         24    2    5    5    0    0 -0.44632422093E+02  0.34006824960E+02 -0.13696660903E+02  0.98265338877E+02  0.79498182741E+02 0.  0.
          5    1    5    5  501    0  0.56773014218E+02  0.16611182884E+02  0.67159668824E+02  0.89619292883E+02  0.47000000000E+01 0. -1.
        -11    1    6    6    0    0 -0.26514918054E+02  0.29710380077E+02 -0.46084929722E+02  0.60906225554E+02  0.00000000000E+00 0.  1.
         12    1    6    6    0    0 -0.18117504040E+02  0.42964448825E+01  0.32388268819E+02  0.37359113324E+02  0.00000000000E+00 0. -1.
         -5    1    3    3    0  503 -0.44068221396E+02 -0.36346866291E+02 -0.56235143390E+02  0.80296850363E+02  0.47000000000E+01 0.  1.
         11    1    4    4    0    0 -0.10385311794E+02  0.59365255756E+00  0.52206364702E+02  0.53232618194E+02  0.00000000000E+00 0. -1.
        -12    1    4    4    0    0  0.42312941065E+02 -0.14864794111E+02 -0.54671354762E+01  0.45180047099E+02  0.00000000000E+00 0.  1.
</event>
<event>
12    1  0.8562501E-002  0.2045767E+03  0.7818608E-02  0.1147595E+00
         21   -1    0    0  501  502  0.00000000000E+00  0.00000000000E+00  0.55112755597E+03  0.55112755597E+03  0.00000000000E+00 0. -1.
         21   -1    0    0  502  503 -0.00000000000E+00 -0.00000000000E+00 -0.82723649737E+02  0.82723649737E+02  0.00000000000E+00 0. -1.
         -6    2    1    2    0  503 -0.88781344955E+02 -0.66818286389E+02  0.12158072671E+03  0.23118763328E+03  0.16223143365E+03 0.  0.
        -24    2    3    3    0    0 -0.12328293211E+03 -0.37749450950E+02  0.93604025197E+02  0.17789464558E+03  0.79127043387E+02 0.  0.
          6    2    1    2  501    0  0.88781344955E+02  0.66818286389E+02  0.34682317953E+03  0.40266357243E+03  0.17176968329E+03 0.  0.
         24    2    5    5    0    0  0.64036542575E+02  0.76538978730E+01  0.31432959422E+03  0.33061738447E+03  0.79658647827E+02 0.  0.
          5    1    5    5  501    0  0.24744802380E+02  0.59164388516E+02  0.32493585301E+02  0.72046187956E+02  0.47000000000E+01 0. -1.
        -13    1    6    6    0    0 -0.53519067077E+01 -0.20165811713E+02  0.13068073466E+03  0.13233577475E+03  0.00000000000E+00 0.  1.
         14    1    6    6    0    0  0.69388449283E+02  0.27819709586E+02  0.18364885956E+03  0.19828160972E+03  0.00000000000E+00 0. -1.
         -5    1    3    3    0  503  0.34501587159E+02 -0.29068835439E+02  0.27976701510E+02  0.53292987697E+02  0.47000000000E+01 0.  1.
         13    1    4    4    0    0 -0.23730586944E+02 -0.44954095509E+02  0.39392438675E+02  0.64309996770E+02  0.00000000000E+00 0. -1.
        -14    1    4    4    0    0 -0.99552345170E+02  0.72046445587E+01  0.54211586522E+02  0.11358464881E+03  0.00000000000E+00 0.  1.
</event>
<event>
12    1  0.8562501E-002  0.1953079E+03  0.7818608E-02  0.1153790E+00
         21   -1    0    0  503  502  0.00000000000E+00  0.00000000000E+00  0.91028801605E+03  0.91028801605E+03  0.00000000000E+00 0. -1.
         21   -1    0    0  501  503 -0.00000000000E+00 -0.00000000000E+00 -0.49943402194E+02  0.49943402194E+02  0.00000000000E+00 0.  1.
          6    2    1    2  501    0  0.90321002321E+02 -0.12040795518E+02  0.23706090839E+03  0.30706394384E+03  0.17259063446E+03 0.  0.
         24    2    3    3    0    0  0.10569941672E+03  0.18534214065E+02  0.10117226149E+03  0.16685288438E+03  0.78026756582E+02 0.  0.
         -6    2    1    2    0  502 -0.90321002321E+02  0.12040795518E+02  0.62328370547E+03  0.65316747440E+03  0.17274926311E+03 0.  0.
        -24    2    5    5    0    0 -0.41457925160E+02 -0.78483647451E+01  0.57477691080E+03  0.58134701677E+03  0.76259427850E+02 0.  0.
          5    1    3    3  501    0 -0.15378414403E+02 -0.30575009582E+02  0.13588864690E+03  0.14021105947E+03  0.47000000000E+01 0. -1.
        -13    1    4    4    0    0 -0.12634027116E+02  0.45988862101E+01  0.12104970862E+02  0.18091398926E+02  0.00000000000E+00 0.  1.
         14    1    4    4    0    0  0.11833344384E+03  0.13935327855E+02  0.89067290632E+02  0.14876148545E+03  0.00000000000E+00 0. -1.
         -5    1    5    5    0  502 -0.48863077161E+02  0.19889160263E+02  0.48506794669E+02  0.71820457633E+02  0.47000000000E+01 0.  1.
         13    1    6    6    0    0 -0.60701992229E+02 -0.13416639963E+02  0.33386323308E+03  0.33960182050E+03  0.00000000000E+00 0. -1.
        -14    1    6    6    0    0  0.19244067069E+02  0.55682752180E+01  0.24091367772E+03  0.24174519627E+03  0.00000000000E+00 0.  1.
</event>
<event>
12    1  0.8562501E-002  0.1727778E+03  0.7818608E-02  0.1175113E+00
         21   -1    0    0  503  502  0.00000000000E+00  0.00000000000E+00  0.49963572946E+03  0.49963572946E+03  0.00000000000E+00 0.  1.
         21   -1    0    0  501  503 -0.00000000000E+00 -0.00000000000E+00 -0.59805945288E+02  0.59805945288E+02  0.00000000000E+00 0.  1.
          6    2    1    2  501    0 -0.35767736053E+00 -0.13726547355E+02  0.20267535318E+03  0.26632585543E+03  0.17223128765E+03 0.  0.
         24    2    3    3    0    0  0.40298150217E+02  0.40078010133E+02  0.13797920484E+03  0.17275498211E+03  0.87039273146E+02 0.  0.
         -6    2    1    2    0  502  0.35767736053E+00  0.13726547355E+02  0.23715443099E+03  0.29311581932E+03  0.17171521005E+03 0.  0.
        -24    2    5    5    0    0 -0.58783304724E+02 -0.12529976922E+02  0.89903690125E+02  0.13220611944E+03  0.76048059046E+02 0.  0.
          5    1    3    3  501    0 -0.40655827577E+02 -0.53804557488E+02  0.64696148347E+02  0.93570873318E+02  0.47000000000E+01 0. -1.
        -11    1    4    4    0    0  0.10607022595E+01  0.12242248313E+02  0.12117474079E+03  0.12179620495E+03  0.00000000000E+00 0.  1.
         12    1    4    4    0    0  0.39237447957E+02  0.27835761820E+02  0.16804464042E+02  0.50958777164E+02  0.00000000000E+00 0. -1.
         -5    1    5    5    0  502  0.59140982084E+02  0.26256524278E+02  0.14725074087E+03  0.16090969988E+03  0.47000000000E+01 0.  1.
         13    1    6    6    0    0 -0.20922372876E+02 -0.14968309714E+02  0.90680350424E+02  0.94258802960E+02  0.00000000000E+00 0. -1.
        -14    1    6    6    0    0 -0.37860931847E+02  0.24383327915E+01 -0.77666029935E+00  0.37947316484E+02  0.00000000000E+00 0.  1.
</event>
<event>
12    1  0.8562501E-002  0.2033289E+03  0.7818608E-02  0.1147301E+00
         21   -1    0    0  503  502  0.00000000000E+00  0.00000000000E+00  0.25082305771E+03  0.25082305771E+03  0.00000000000E+00 0. -1.
         21   -1    0    0  501  503 -0.00000000000E+00 -0.00000000000E+00 -0.25833467829E+03  0.25833467829E+03  0.00000000000E+00 0. -1.
          6    2    1    2  501    0 -0.99642549258E+02 -0.43252300757E+02 -0.15801276447E+03  0.25750855619E+03  0.17188142317E+03 0.  0.
         24    2    3    3    0    0 -0.27595031426E+01 -0.13862290900E+02 -0.13461896018E+02  0.80966377445E+02  0.78578328218E+02 0.  0.
         -6    2    1    2    0  502  0.99642549258E+02  0.43252300757E+02  0.15050114389E+03  0.25164917981E+03  0.16993326998E+03 0.  0.
        -24    2    5    5    0    0  0.10998754325E+03 -0.18114062195E+02  0.85249783696E+02  0.16135699073E+03  0.79644045080E+02 0.  0.
          5    1    3    3  501    0 -0.96883046116E+02 -0.29390009857E+02 -0.14455086845E+03  0.17654217874E+03  0.47000000000E+01 0. -1.
        -11    1    4    4    0    0  0.63246736317E+01  0.20823527772E+02 -0.33457044522E+02  0.39912336860E+02  0.00000000000E+00 0.  1.
         12    1    4    4    0    0 -0.90841767742E+01 -0.34685818672E+02  0.19995148505E+02  0.41054040585E+02  0.00000000000E+00 0. -1.
         -5    1    5    5    0  502 -0.10344993993E+02  0.61366362952E+02  0.65251360191E+02  0.90292189083E+02  0.47000000000E+01 0.  1.
         13    1    6    6    0    0  0.88167260440E+02  0.20429510665E+02  0.70339489101E+02  0.11462318459E+03  0.00000000000E+00 0. -1.
        -14    1    6    6    0    0  0.21820282811E+02 -0.38543572860E+02  0.14910294595E+02  0.46733806133E+02  0.00000000000E+00 0.  1.
</event>
<event>
12    1  0.8562501E-002  0.1765539E+03  0.7818608E-02  0.1171358E+00
         21   -1    0    0  501  502  0.00000000000E+00  0.00000000000E+00  0.54279399715E+03  0.54279399715E+03  0.00000000000E+00 0. -1.
         21   -1    0    0  502  503 -0.00000000000E+00 -0.00000000000E+00 -0.57929684210E+02  0.57929684210E+02  0.00000000000E+00 0. -1.
         -6    2    1    2    0  503 -0.62974238987E+01 -0.37202840777E+02  0.27576727238E+03  0.32705807741E+03  0.17174308887E+03 0.  0.
        -24    2    3    3    0    0 -0.37840682344E+02 -0.27745716426E+02  0.64043638237E+02  0.11273728605E+03  0.80039777908E+02 0.  0.
          6    2    1    2  501    0  0.62974238987E+01  0.37202840777E+02  0.20909704056E+03  0.27366560395E+03  0.17247487209E+03 0.  0.
         24    2    5    5    0    0 -0.20871524175E+02 -0.44197565656E+02  0.84065718866E+02  0.12194513957E+03  0.73583467196E+02 0.  0.
          5    1    5    5  501    0  0.27168948074E+02  0.81400406433E+02  0.12503132170E+03  0.15172046438E+03  0.47000000000E+01 0. -1.
        -13    1    6    6    0    0 -0.11657757875E+02 -0.64606377701E+02  0.58199489377E+02  0.87732935218E+02  0.00000000000E+00 0.  1.
         14    1    6    6    0    0 -0.92137663005E+01  0.20408812045E+02  0.25866229489E+02  0.34212204350E+02  0.00000000000E+00 0. -1.
         -5    1    3    3    0  503  0.31543258445E+02 -0.94571243507E+01  0.21172363414E+03  0.21432079136E+03  0.47000000000E+01 0.  1.
         13    1    4    4    0    0 -0.98364023425E+01  0.28368135408E+02  0.22315500248E+02  0.37409724256E+02  0.00000000000E+00 0. -1.
        -14    1    4    4    0    0 -0.28004280001E+02 -0.56113851835E+02  0.41728137989E+02  0.75327561796E+02  0.00000000000E+00 0.  1.
</event>
<event>
12    1  0.8562501E-002  0.2233098E+03  0.7818608E-02  0.1131536E+00
         21   -1    0    0  501  502  0.00000000000E+00  0.00000000000E+00  0.58042185687E+03  0.58042185687E+03  0.00000000000E+00 0.  1.
         21   -1    0    0  502  503 -0.00000000000E+00 -0.00000000000E+00 -0.38622995884E+03  0.38622995884E+03  0.00000000000E+00 0.  1.
         -6    2    1    2    0  503  0.70256533066E+02 -0.12323315164E+03 -0.32921510624E+03  0.39780632014E+03  0.17246707529E+03 0.  0.
        -24    2    3    3    0    0  0.35099465911E+02 -0.56539662022E+02 -0.62652689199E+02  0.12074738577E+03  0.78904155902E+02 0.  0.
          6    2    1    2  501    0 -0.70256533066E+02  0.12323315164E+03  0.52340700427E+03  0.56884549557E+03  0.17177868206E+03 0.  0.
         24    2    5    5    0    0 -0.93481657131E+02  0.83131467215E+02  0.24943548373E+03  0.29094257088E+03  0.82339892810E+02 0.  0.
          5    1    5    5  501    0  0.23225124066E+02  0.40101684428E+02  0.27397152054E+03  0.27790292469E+03  0.47000000000E+01 0. -1.
        -13    1    6    6    0    0 -0.69712252737E+02  0.38378409670E+02  0.21610156023E+03  0.23028804755E+03  0.00000000000E+00 0.  1.
         14    1    6    6    0    0 -0.23769404394E+02  0.44753057544E+02  0.33333923495E+02  0.60654523330E+02  0.00000000000E+00 0. -1.
         -5    1    3    3    0  503  0.35157067155E+02 -0.66693489621E+02 -0.26656241704E+03  0.27705893436E+03  0.47000000000E+01 0.  1.
         13    1    4    4    0    0 -0.10907624175E+02 -0.40212130355E+02 -0.44032570217E+00  0.41667560279E+02  0.00000000000E+00 0. -1.
        -14    1    4    4    0    0  0.46007090086E+02 -0.16327531666E+02 -0.62212363497E+02  0.79079825495E+02  0.00000000000E+00 0.  1.
</event>
<event>
12    1  0.8562501E-002  0.1736568E+03  0.7818608E-02  0.1175037E+00
         21   -1    0    0  501  502  0.00000000000E+00  0.00000000000E+00  0.62864885920E+02  0.62864885920E+02  0.00000000000E+00 0.  1.
         21   -1    0    0  502  503 -0.00000000000E+00 -0.00000000000E+00 -0.55445357558E+03  0.55445357558E+03  0.00000000000E+00 0.  1.
         -6    2    1    2    0  503 -0.11772543642E+02 -0.17539824843E+02 -0.36883212850E+03  0.40766876490E+03  0.17236717967E+03 0.  0.
        -24    2    3    3    0    0 -0.65879705918E+02 -0.43704125175E+02 -0.22677873070E+03  0.25335281159E+03  0.80677557193E+02 0.  0.
          6    2    1    2  501    0  0.11772543642E+02  0.17539824843E+02 -0.12275656116E+03  0.20964969660E+03  0.16863446781E+03 0.  0.
         24    2    5    5    0    0 -0.43157072661E+00 -0.39246604991E+02 -0.12234432240E+03  0.15137535437E+03  0.80036756746E+02 0.  0.
          5    1    5    5  501    0  0.12204114368E+02  0.56786429834E+02 -0.41223876099E+00  0.58274342224E+02  0.47000000000E+01 0. -1.
        -13    1    6    6    0    0  0.37392298971E+02 -0.23979527271E+02 -0.85769480944E+02  0.96589883590E+02  0.00000000000E+00 0.  1.
         14    1    6    6    0    0 -0.37823869698E+02 -0.15267077720E+02 -0.36574841458E+02  0.54785470781E+02  0.00000000000E+00 0. -1.
         -5    1    3    3    0  503  0.54107162276E+02  0.26164300332E+02 -0.14205339779E+03  0.15431595331E+03  0.47000000000E+01 0.  1.
         13    1    4    4    0    0  0.10027201490E+02 -0.31036610040E+02 -0.41910929712E+02  0.53106891849E+02  0.00000000000E+00 0. -1.
        -14    1    4    4    0    0 -0.75906907407E+02 -0.12667515135E+02 -0.18486780099E+03  0.20024591975E+03  0.00000000000E+00 0.  1.
</event>
<event>
12    1  0.8562501E-002  0.3058057E+03  0.7818608E-02  0.1082498E+00
         21   -1    0    0  501  502  0.00000000000E+00  0.00000000000E+00  0.16022653446E+04  0.16022653446E+04  0.00000000000E+00 0.  1.
         21   -1    0    0  502  503 -0.00000000000E+00 -0.00000000000E+00 -0.63767880412E+02  0.63767880412E+02  0.00000000000E+00 0.  1.
         -6    2    1    2    0  503  0.20701406588E+02 -0.25120339483E+03  0.52129631307E+03  0.60385841381E+03  0.17135764968E+03 0.  0.
        -24    2    3    3    0    0  0.33353347524E+02 -0.16743619162E+03  0.46604751821E+03  0.50260854824E+03  0.79169056377E+02 0.  0.
          6    2    1    2  501    0 -0.20701406588E+02  0.25120339483E+03  0.10172011511E+04  0.10621748112E+04  0.17316308472E+03 0.  0.
         24    2    5    5    0    0 -0.34746969650E+02  0.46698042967E+02  0.29243129895E+03  0.30895960597E+03  0.80943896615E+02 0.  0.
          5    1    5    5  501    0  0.14045563062E+02  0.20450535186E+03  0.72476985220E+03  0.75321520526E+03  0.47000000000E+01 0. -1.
        -13    1    6    6    0    0 -0.39204922471E+02  0.59068504998E+02  0.28534960557E+03  0.29402467861E+03  0.00000000000E+00 0.  1.
         14    1    6    6    0    0  0.44579528217E+01 -0.12370462031E+02  0.70816933715E+01  0.14934927359E+02  0.00000000000E+00 0. -1.
         -5    1    3    3    0  503 -0.12651940936E+02 -0.83767203209E+02  0.55248794859E+02  0.10124986556E+03  0.47000000000E+01 0.  1.
         13    1    4    4    0    0 -0.17146942155E+02 -0.51644105077E+02  0.21219162363E+03  0.21905802051E+03  0.00000000000E+00 0. -1.
        -14    1    4    4    0    0  0.50500289679E+02 -0.11579208654E+03  0.25385589458E+03  0.28355052773E+03  0.00000000000E+00 0.  1.
</event>
<event>
12    1  0.8562501E-002  0.2330260E+03  0.7818608E-02  0.1124536E+00
         21   -1    0    0  503  502  0.00000000000E+00  0.00000000000E+00  0.23339763125E+04  0.23339763125E+04  0.00000000000E+00 0. -1.
         21   -1    0    0  501  503 -0.00000000000E+00 -0.00000000000E+00 -0.26241053967E+02  0.26241053967E+02  0.00000000000E+00 0. -1.
          6    2    1    2  501    0 -0.11458174267E+03  0.10713199892E+03  0.75627292976E+03  0.79135949876E+03  0.17232199814E+03 0.  0.
         24    2    3    3    0    0 -0.57206905450E+02  0.10967369635E+03  0.67870058623E+03  0.69472673696E+03  0.81913390847E+02 0.  0.
         -6    2    1    2    0  502  0.11458174267E+03 -0.10713199892E+03  0.15514623287E+04  0.15688578677E+04  0.17225971823E+03 0.  0.
        -24    2    5    5    0    0  0.66795499268E+02 -0.78752748359E+02  0.14219092984E+04  0.14278082857E+04  0.78401617199E+02 0.  0.
          5    1    3    3  501    0 -0.57374837218E+02 -0.25416974243E+01  0.77572343530E+02  0.96632761796E+02  0.47000000000E+01 0. -1.
        -11    1    4    4    0    0 -0.30747370948E+02 -0.31969937889E+01  0.18747272491E+03  0.19000432673E+03  0.00000000000E+00 0.  1.
         12    1    4    4    0    0 -0.26459534503E+02  0.11287069013E+03  0.49122786132E+03  0.50472241023E+03  0.00000000000E+00 0. -1.
         -5    1    5    5    0  502  0.47786243400E+02 -0.28379250563E+02  0.12955303031E+03  0.14104958201E+03  0.47000000000E+01 0.  1.
         13    1    6    6    0    0  0.22632187038E+02 -0.38561355431E+02  0.22440452629E+03  0.22881561451E+03  0.00000000000E+00 0. -1.
        -14    1    6    6    0    0  0.44163312230E+02 -0.40191392928E+02  0.11975047721E+04  0.11989926712E+04  0.00000000000E+00 0.  1.
</event>
<event>
12    1  0.8562501E-002  0.2723134E+03  0.7818608E-02  0.1102293E+00
         21   -1    0    0  501  502  0.00000000000E+00  0.00000000000E+00  0.12961216135E+03  0.12961216135E+03  0.00000000000E+00 0. -1.
         21   -1    0    0  502  503 -0.00000000000E+00 -0.00000000000E+00 -0.13164344441E+04  0.13164344441E+04  0.00000000000E+00 0. -1.
         -6    2    1    2    0  503 -0.77108813966E+02  0.17517701309E+03 -0.11415641104E+04  0.11699978831E+04  0.17056867609E+03 0.  0.
        -24    2    3    3    0    0 -0.76338935103E+02  0.20272587109E+03 -0.98604217215E+03  0.10119830244E+04  0.70036166862E+02 0.  0.
          6    2    1    2  501    0  0.77108813966E+02 -0.17517701309E+03 -0.45258172307E+02  0.27604872229E+03  0.19370554925E+03 0.  0.
         24    2    5    5    0    0  0.27875270537E+02 -0.19227685814E+03 -0.38777257401E+01  0.20933457194E+03  0.77836401309E+02 0.  0.
          5    1    5    5  501    0  0.49233543429E+02  0.17099845044E+02 -0.41380446567E+02  0.66714150352E+02  0.47000000000E+01 0. -1.
        -11    1    6    6    0    0 -0.11457790028E+02 -0.23543480454E+02  0.21944903940E+02  0.34163653685E+02  0.00000000000E+00 0.  1.
         12    1    6    6    0    0  0.39333060564E+02 -0.16873337768E+03 -0.25822629680E+02  0.17517091825E+03  0.00000000000E+00 0. -1.
         -5    1    3    3    0  503 -0.76987886215E+00 -0.27548857994E+02 -0.15552193825E+03  0.15801485869E+03  0.47000000000E+01 0.  1.
         13    1    4    4    0    0 -0.21905923278E+02  0.11560629932E+03 -0.65093441140E+03  0.66148340407E+03  0.00000000000E+00 0. -1.
        -14    1    4    4    0    0 -0.54433011825E+02  0.87119571768E+02 -0.33510776075E+03  0.35049962037E+03  0.00000000000E+00 0.  1.
</event>
<event>
12    1  0.8562501E-002  0.1874212E+03  0.7818608E-02  0.1161295E+00
         21   -1    0    0  501  502  0.00000000000E+00  0.00000000000E+00  0.20674347541E+03  0.20674347541E+03  0.00000000000E+00 0. -1.
         21   -1    0    0  502  503 -0.00000000000E+00 -0.00000000000E+00 -0.19958009410E+03  0.19958009410E+03  0.00000000000E+00 0. -1.
         -6    2    1    2    0  503 -0.70555775674E+02  0.33791320105E+01 -0.77252182084E+02  0.20076895203E+03  0.17132056633E+03 0.  0.
        -24    2    3    3    0    0 -0.61535706170E+02 -0.55103419212E+02 -0.15481785221E+02  0.11509957372E+03  0.78646018678E+02 0.  0.
          6    2    1    2  501    0  0.70555775674E+02 -0.33791320105E+01  0.84415563390E+02  0.20555461748E+03  0.17360062619E+03 0.  0.
         24    2    5    5    0    0  0.68954050002E+02 -0.38412208899E+01 -0.16985242617E+02  0.10403125805E+03  0.75924885219E+02 0.  0.
          5    1    5    5  501    0  0.16017256716E+01  0.46208887941E+00  0.10140080601E+03  0.10152335943E+03  0.47000000000E+01 0. -1.
        -13    1    6    6    0    0  0.17320144671E+02  0.25881476073E+02 -0.29786547846E+02  0.43093812175E+02  0.00000000000E+00 0.  1.
         14    1    6    6    0    0  0.51633905331E+02 -0.29722696963E+02  0.12801305229E+02  0.60937445877E+02  0.00000000000E+00 0. -1.
         -5    1    3    3    0  503 -0.90200695040E+01  0.58482551222E+02 -0.61770396863E+02  0.85669378309E+02  0.47000000000E+01 0.  1.
         13    1    4    4    0    0  0.40620140453E+01 -0.44489588247E+02 -0.19019202561E+02  0.48554644335E+02  0.00000000000E+00 0. -1.
        -14    1    4    4    0    0 -0.65597720215E+02 -0.10613830965E+02  0.35374173396E+01  0.66544929383E+02  0.00000000000E+00 0.  1.
</event>
<event>
12    1  0.8562501E-002  0.2011137E+03  0.7818608E-02  0.1151222E+00
         21   -1    0    0  501  502  0.00000000000E+00  0.00000000000E+00  0.15854433842E+04  0.15854433842E+04  0.00000000000E+00 0.  1.
         21   -1    0    0  502  503 -0.00000000000E+00 -0.00000000000E+00 -0.34981993041E+02  0.34981993041E+02  0.00000000000E+00 0.  1.
         -6    2    1    2    0  503  0.56044052326E+02  0.52273078695E+02  0.30836083688E+03  0.36214857362E+03  0.17375780010E+03 0.  0.
        -24    2    3    3    0    0  0.10377747047E+03  0.24169315204E+02  0.23929741200E+03  0.27349110136E+03  0.78614324139E+02 0.  0.
          6    2    1    2  501    0 -0.56044052326E+02 -0.52273078695E+02  0.12421005543E+04  0.12582768036E+04  0.18593901431E+03 0.  0.
         24    2    5    5    0    0 -0.74428848339E+02 -0.11976906722E+01  0.40862461331E+03  0.42302179456E+03  0.80201472214E+02 0.  0.
          5    1    5    5  501    0  0.18384796013E+02 -0.51075388023E+02  0.83347594097E+03  0.83525500906E+03  0.47000000000E+01 0. -1.
        -13    1    6    6    0    0 -0.51838714064E+02 -0.39127850925E+02  0.22698578581E+03  0.23609487066E+03  0.00000000000E+00 0.  1.
         14    1    6    6    0    0 -0.22590134275E+02  0.37930160252E+02  0.18163882750E+03  0.18692692390E+03  0.00000000000E+00 0. -1.
         -5    1    3    3    0  503 -0.47733418148E+02  0.28103763491E+02  0.69063424884E+02  0.88657472258E+02  0.47000000000E+01 0.  1.
         11    1    4    4    0    0 -0.11080322263E+02  0.66567010007E+01  0.47681961851E+02  0.49402982659E+02  0.00000000000E+00 0. -1.
        -12    1    4    4    0    0  0.11485779274E+03  0.17512614203E+02  0.19161545015E+03  0.22408811870E+03  0.00000000000E+00 0.  1.
</event>
<event>
12    1  0.8562501E-002  0.2364226E+03  0.7818608E-02  0.1122310E+00
         21   -1    0    0  501  502  0.00000000000E+00  0.00000000000E+00  0.34664887848E+03  0.34664887848E+03  0.00000000000E+00 0.  1.
         21   -1    0    0  502  503 -0.00000000000E+00 -0.00000000000E+00 -0.20319360215E+03  0.20319360215E+03  0.00000000000E+00 0.  1.
         -6    2    1    2    0  503  0.13123671400E+03 -0.94527032651E+02  0.19737689786E+03  0.30798259452E+03  0.17244478454E+03 0.  0.
        -24    2    3    3    0    0  0.10691023717E+03 -0.12594646711E+03  0.19520188395E+03  0.26791042186E+03  0.79874321609E+02 0.  0.
          6    2    1    2  501    0 -0.13123671400E+03  0.94527032651E+02 -0.53921621532E+02  0.24185988611E+03  0.17155240668E+03 0.  0.
         24    2    5    5    0    0 -0.31972702113E+01  0.42428892115E+02 -0.48865526732E+02  0.10345479405E+03  0.80651232396E+02 0.  0.
          5    1    5    5  501    0 -0.12803944379E+03  0.52098140536E+02 -0.50560947998E+01  0.13840509206E+03  0.47000000000E+01 0. -1.
        -13    1    6    6    0    0 -0.17873851326E+02  0.59402916614E+02 -0.16711831421E+02  0.64245360711E+02  0.00000000000E+00 0.  1.
         14    1    6    6    0    0  0.14676581115E+02 -0.16974024499E+02 -0.32153695311E+02  0.39209433343E+02  0.00000000000E+00 0. -1.
         -5    1    3    3    0  503  0.24326476832E+02  0.31419434457E+02  0.21750139095E+01  0.40072172665E+02  0.47000000000E+01 0.  1.
         11    1    4    4    0    0 -0.11001697368E+02 -0.10859209580E+02  0.49579840719E+01  0.16233957734E+02  0.00000000000E+00 0. -1.
        -12    1    4    4    0    0  0.11791193454E+03 -0.11508725753E+03  0.19024389988E+03  0.25167646412E+03  0.00000000000E+00 0.  1.
</event>
<event>
12    1  0.8562501E-002  0.3627426E+03  0.7818608E-02  0.1057553E+00
         21   -1    0    0  501  502  0.00000000000E+00  0.00000000000E+00  0.28282863705E+03  0.28282863705E+03  0.00000000000E+00 0. -1.
         21   -1    0    0  502  503 -0.00000000000E+00 -0.00000000000E+00 -0.55985207474E+03  0.55985207474E+03  0.00000000000E+00 0.  1.
         -6    2    1    2    0  503  0.31805914473E+03  0.27967499540E+02 -0.31223859742E+03  0.47823274614E+03  0.17108424003E+03 0.  0.
        -24    2    3    3    0    0  0.11107869954E+03  0.57620276306E+02 -0.17167015079E+03  0.22623717068E+03  0.77807730940E+02 0.  0.
          6    2    1    2  501    0 -0.31805914473E+03 -0.27967499540E+02  0.35215159728E+02  0.36444796565E+03  0.17215810064E+03 0.  0.
         24    2    5    5    0    0 -0.24330164722E+03  0.37707916283E+02  0.47854383270E+00  0.25894599334E+03  0.80219822810E+02 0.  0.
          5    1    5    5  501    0 -0.74757497504E+02 -0.65675415822E+02  0.34736615895E+02  0.10550197231E+03  0.47000000000E+01 0. -1.
        -13    1    6    6    0    0 -0.65061616951E+02  0.46136189499E+02  0.92339131983E+01  0.80292136194E+02  0.00000000000E+00 0.  1.
         14    1    6    6    0    0 -0.17824003027E+03 -0.84282732162E+01 -0.87553693656E+01  0.17865385715E+03  0.00000000000E+00 0. -1.
         -5    1    3    3    0  503  0.20698044519E+03 -0.29652776766E+02 -0.14056844663E+03  0.25199557545E+03  0.47000000000E+01 0.  1.
         11    1    4    4    0    0 -0.11308790774E+02 -0.71837856537E+00 -0.18368974857E+02  0.21582957486E+02  0.00000000000E+00 0. -1.
        -12    1    4    4    0    0  0.12238749031E+03  0.58338654871E+02 -0.15330117593E+03  0.20465421319E+03  0.00000000000E+00 0.  1.
</event>
<event>
12    1  0.8562501E-002  0.2651846E+03  0.7818608E-02  0.1105156E+00
         21   -1    0    0  503  502  0.00000000000E+00  0.00000000000E+00  0.17351580695E+03  0.17351580695E+03  0.00000000000E+00 0. -1.
         21   -1    0    0  501  503 -0.00000000000E+00 -0.00000000000E+00 -0.53264523472E+03  0.53264523472E+03  0.00000000000E+00 0. -1.
          6    2    1    2  501    0  0.83197357142E+02 -0.17465190014E+03 -0.35772250582E+03  0.44097269077E+03  0.17048881599E+03 0.  0.
         24    2    3    3    0    0  0.77505053525E+02 -0.40537898775E+02 -0.12496636558E+03  0.17224145235E+03  0.80001067634E+02 0.  0.
         -6    2    1    2    0  502 -0.83197357142E+02  0.17465190014E+03 -0.14069219400E+01  0.26518835089E+03  0.18137749464E+03 0.  0.
        -24    2    5    5    0    0 -0.60607962871E+01  0.40677863383E+02 -0.49950854025E+02  0.10308438768E+03  0.80248871303E+02 0.  0.
          5    1    3    3  501    0  0.56923036169E+01 -0.13411400137E+03 -0.23275614024E+03  0.26873123842E+03  0.47000000000E+01 0. -1.
        -11    1    4    4    0    0  0.21669021225E+02  0.23775349898E+02 -0.45745769461E+02  0.55923958794E+02  0.00000000000E+00 0.  1.
         12    1    4    4    0    0  0.55836032300E+02 -0.64313248673E+02 -0.79220596121E+02  0.11631749356E+03  0.00000000000E+00 0. -1.
         -5    1    5    5    0  502 -0.77136560855E+02  0.13397403676E+03  0.48543932085E+02  0.16210396321E+03  0.47000000000E+01 0.  1.
         13    1    6    6    0    0 -0.16371138863E+02  0.62904405173E+02 -0.30495138932E+02  0.71797854260E+02  0.00000000000E+00 0. -1.
        -14    1    6    6    0    0  0.10310342576E+02 -0.22226541790E+02 -0.19455715093E+02  0.31286533425E+02  0.00000000000E+00 0.  1.
</event>
<event>
12    1  0.8562501E-002  0.2039443E+03  0.7818608E-02  0.1146511E+00
         21   -1    0    0  501  502  0.00000000000E+00  0.00000000000E+00  0.26203406268E+03  0.26203406268E+03  0.00000000000E+00 0.  1.
         21   -1    0    0  502  503 -0.00000000000E+00 -0.00000000000E+00 -0.15898168386E+03  0.15898168386E+03  0.00000000000E+00 0.  1.
         -6    2    1    2    0  503 -0.94421670040E+02  0.56134567975E+02  0.40158191160E+02  0.20786047474E+03  0.17183350996E+03 0.  0.
        -24    2    3    3    0    0 -0.15640241132E+02 -0.12128473693E+02  0.59441130784E+02  0.10174601691E+03  0.80170361806E+02 0.  0.
          6    2    1    2  501    0  0.94421670040E+02 -0.56134567975E+02  0.62894187664E+02  0.21315527181E+03  0.17150203953E+03 0.  0.
         24    2    5    5    0    0  0.11121520227E+03  0.77704252236E+01  0.50806868080E+02  0.14581981180E+03  0.79075147452E+02 0.  0.
          5    1    5    5  501    0 -0.16793532227E+02 -0.63904993199E+02  0.12087319584E+02  0.67335460012E+02  0.47000000000E+01 0. -1.
        -11    1    6    6    0    0 -0.78135985498E+01 -0.82003583186E+01 -0.61651617536E+01  0.12896023352E+02  0.00000000000E+00 0.  1.
         12    1    6    6    0    0  0.11902880082E+03  0.15970783542E+02  0.56972029833E+02  0.13292378844E+03  0.00000000000E+00 0. -1.
         -5    1    3    3    0  503 -0.78781428908E+02  0.68263041668E+02 -0.19282939624E+02  0.10611445782E+03  0.47000000000E+01 0.  1.
         13    1    4    4    0    0  0.17371184915E+02  0.45563338025E+01 -0.11790561370E+02  0.21483379168E+02  0.00000000000E+00 0. -1.
        -14    1    4    4    0    0 -0.33011426047E+02 -0.16684807496E+02  0.71231692153E+02  0.80262637745E+02  0.00000000000E+00 0.  1.
</event>
<event>
12    1  0.8562501E-002  0.1938898E+03  0.7818608E-02  0.1155176E+00
         21   -1    0    0  501  502  0.00000000000E+00  0.00000000000E+00  0.13255607358E+03  0.13255607358E+03  0.00000000000E+00 0.  1.
         21   -1    0    0  502  503 -0.00000000000E+00 -0.00000000000E+00 -0.45371494425E+03  0.45371494425E+03  0.00000000000E+00 0.  1.
         -6    2    1    2    0  503 -0.43918181238E+02  0.79242820332E+02  0.19323748269E+02  0.19485036633E+03  0.17142061367E+03 0.  0.
        -24    2    3    3    0    0 -0.73129367557E+02  0.81074630443E+02  0.56743512531E+02  0.14711172692E+03  0.80628989101E+02 0.  0.
          6    2    1    2  501    0  0.43918181238E+02 -0.79242820332E+02 -0.34048261894E+03  0.39142065150E+03  0.17050947600E+03 0.  0.
         24    2    5    5    0    0 -0.26153562831E+02 -0.71070459832E+02 -0.13558604654E+03  0.17466841466E+03  0.79940352485E+02 0.  0.
          5    1    5    5  501    0  0.70071744069E+02 -0.81723605000E+01 -0.20489657240E+03  0.21675223684E+03  0.47000000000E+01 0. -1.
        -11    1    6    6    0    0  0.54947576431E+01  0.51193571698E+00 -0.76257053950E+02  0.76456475964E+02  0.00000000000E+00 0.  1.
         12    1    6    6    0    0 -0.31648320474E+02 -0.71582395549E+02 -0.59328992589E+02  0.98211938699E+02  0.00000000000E+00 0. -1.
         -5    1    3    3    0  503  0.29211186319E+02 -0.18318101112E+01 -0.37419764262E+02  0.47738639401E+02  0.47000000000E+01 0.  1.
         11    1    4    4    0    0 -0.62215473567E+02  0.20003463052E+02  0.36472947815E+01  0.65453849730E+02  0.00000000000E+00 0. -1.
        -12    1    4    4    0    0 -0.10913893990E+02  0.61071167391E+02  0.53096217750E+02  0.81657877194E+02  0.00000000000E+00 0.  1.
</event>
<event>
12    1  0.8562501E-002  0.3038688E+03  0.7818608E-02  0.1083468E+00
         21   -1    0    0  503  502  0.00000000000E+00  0.00000000000E+00  0.49636961677E+02  0.49636961677E+02  0.00000000000E+00 0.  1.
         21   -1    0    0  501  503 -0.00000000000E+00 -0.00000000000E+00 -0.19880661755E+04  0.19880661755E+04  0.00000000000E+00 0. -1.
          6    2    1    2  501    0 -0.21055587600E+03  0.13335955101E+03 -0.70192140091E+03  0.76440512774E+03  0.17176437202E+03 0.  0.
         24    2    3    3    0    0 -0.70659276723E+02  0.10212689669E+03 -0.45979661564E+03  0.48299255014E+03  0.80288475696E+02 0.  0.
         -6    2    1    2    0  502  0.21055587600E+03 -0.13335955101E+03 -0.12365078129E+04  0.12732980094E+04  0.17383239827E+03 0.  0.
        -24    2    5    5    0    0  0.21137641240E+03 -0.73291374447E+02 -0.10692853560E+04  0.10955501565E+04  0.82506724861E+02 0.  0.
          5    1    3    3  501    0 -0.13989659927E+03  0.31232654316E+02 -0.24212478528E+03  0.28141257759E+03  0.47000000000E+01 0. -1.
        -11    1    4    4    0    0 -0.43348332342E+02  0.36474837915E+02 -0.89446171323E+02  0.10587780354E+03  0.00000000000E+00 0.  1.
         12    1    4    4    0    0 -0.27310944380E+02  0.65652058776E+02 -0.37035044431E+03  0.37711474661E+03  0.00000000000E+00 0. -1.
         -5    1    5    5    0  502 -0.82053640322E+00 -0.60068176560E+02 -0.16722245692E+03  0.17774785291E+03  0.47000000000E+01 0.  1.
         11    1    6    6    0    0  0.46014759068E+02 -0.14208783908E+02 -0.42651387395E+03  0.42922410494E+03  0.00000000000E+00 0. -1.
        -12    1    6    6    0    0  0.16536165333E+03 -0.59082590539E+02 -0.64277148203E+03  0.66632605157E+03  0.00000000000E+00 0.  1.
</event>
<event>
12    1  0.8562501E-002  0.1881145E+03  0.7818608E-02  0.1160785E+00
         21   -1    0    0  503  502  0.00000000000E+00  0.00000000000E+00  0.33345146994E+03  0.33345146994E+03  0.00000000000E+00 0.  1.
         21   -1    0    0  501  503 -0.00000000000E+00 -0.00000000000E+00 -0.19501414997E+03  0.19501414997E+03  0.00000000000E+00 0.  1.
          6    2    1    2  501    0 -0.27217533316E+02  0.71297976286E+02 -0.11092991010E+03  0.21610189083E+03  0.16902776909E+03 0.  0.
         24    2    3    3    0    0 -0.30121493201E+02  0.11418752543E+03 -0.89202911864E+02  0.16770665489E+03  0.78881349469E+02 0.  0.
         -6    2    1    2    0  502  0.27217533316E+02 -0.71297976286E+02  0.24936723006E+03  0.31236372908E+03  0.17193861774E+03 0.  0.
        -24    2    5    5    0    0 -0.14527037839E+02  0.20519793627E+02  0.76554935949E+02  0.11221555624E+03  0.78099782878E+02 0.  0.
          5    1    3    3  501    0  0.29039598857E+01 -0.42889549146E+02 -0.21726998234E+02  0.48395235935E+02  0.47000000000E+01 0. -1.
        -11    1    4    4    0    0 -0.52429710251E+02  0.84395217703E+02 -0.42696186537E+02  0.10814061047E+03  0.00000000000E+00 0.  1.
         12    1    4    4    0    0  0.22308217049E+02  0.29792307729E+02 -0.46506725327E+02  0.59566044425E+02  0.00000000000E+00 0. -1.
         -5    1    5    5    0  502  0.41744571155E+02 -0.91817769913E+02  0.17281229412E+03  0.20014817284E+03  0.47000000000E+01 0.  1.
         13    1    6    6    0    0 -0.39549296649E+02  0.48901986664E+00  0.14053706073E+02  0.41974905125E+02  0.00000000000E+00 0. -1.
        -14    1    6    6    0    0  0.25022258810E+02  0.20030773760E+02  0.62501229875E+02  0.70240651117E+02  0.00000000000E+00 0.  1.
</event>
<event>
12    1  0.8562501E-002  0.1828419E+03  0.7818608E-02  0.1165166E+00
         21   -1    0    0  501  502  0.00000000000E+00  0.00000000000E+00  0.10768184389E+03  0.10768184389E+03  0.00000000000E+00 0. -1.
         21   -1    0    0  502  503 -0.00000000000E+00 -0.00000000000E+00 -0.10246369410E+04  0.10246369410E+04  0.00000000000E+00 0. -1.
         -6    2    1    2    0  503  0.22647988870E-01 -0.61780853499E+02 -0.93121033822E+03  0.94892198778E+03  0.17170722324E+03 0.  0.
        -24    2    3    3    0    0 -0.16137482421E+02 -0.10303070108E+03 -0.56801337674E+03  0.58300284019E+03  0.79858448620E+02 0.  0.
          6    2    1    2  501    0 -0.22647988870E-01  0.61780853499E+02  0.14255241114E+02  0.18339679711E+03  0.17208805571E+03 0.  0.
         24    2    5    5    0    0  0.49906041494E+02 -0.12148882761E+02  0.15358957646E+02  0.94055943481E+02  0.77281398759E+02 0.  0.
          5    1    5    5  501    0 -0.49928689483E+02  0.73929736260E+02 -0.11037165328E+01  0.89340853629E+02  0.47000000000E+01 0. -1.
        -11    1    6    6    0    0  0.41002321551E+02  0.22118999200E+01  0.44387601671E+02  0.60467694316E+02  0.00000000000E+00 0.  1.
         12    1    6    6    0    0  0.89037199438E+01 -0.14360782681E+02 -0.29028644025E+02  0.33588249165E+02  0.00000000000E+00 0. -1.
         -5    1    3    3    0  503  0.16160130410E+02  0.41249847585E+02 -0.36319696148E+03  0.36591914759E+03  0.47000000000E+01 0.  1.
         13    1    4    4    0    0  0.27011476169E+02 -0.15655404088E+02 -0.19434164231E+03  0.19683339518E+03  0.00000000000E+00 0. -1.
        -14    1    4    4    0    0 -0.43148958590E+02 -0.87375296996E+02 -0.37367173443E+03  0.38616944501E+03  0.00000000000E+00 0.  1.
</event>
<event>
12    1  0.8562501E-002  0.2352410E+03  0.7818608E-02  0.1123052E+00
         21   -1    0    0  501  502  0.00000000000E+00  0.00000000000E+00  0.29353934435E+03  0.29353934435E+03  0.00000000000E+00 0.  1.
         21   -1    0    0  502  503 -0.00000000000E+00 -0.00000000000E+00 -0.19501978128E+03  0.19501978128E+03  0.00000000000E+00 0. -1.
         -6    2    1    2    0  503  0.13041979993E+03  0.93004828528E+02  0.38778319562E+01  0.23499381104E+03  0.17189482628E+03 0.  0.
        -24    2    3    3    0    0  0.12132418220E+02  0.12232943444E+01 -0.28486787342E+01  0.85050186183E+02  0.84123285589E+02 0.  0.
          6    2    1    2  501    0 -0.13041979993E+03 -0.93004828528E+02  0.94641731121E+02  0.25356531459E+03  0.17227620019E+03 0.  0.
         24    2    5    5    0    0 -0.50724514460E+02  0.42092543317E+01  0.83914514687E+02  0.12731524685E+03  0.81097670229E+02 0.  0.
          5    1    5    5  501    0 -0.79695285468E+02 -0.97214082860E+02  0.10727216433E+02  0.12625006774E+03  0.47000000000E+01 0. -1.
        -13    1    6    6    0    0 -0.36780865866E+02 -0.12028787974E+02 -0.20247891219E+01  0.38750788443E+02  0.00000000000E+00 0.  1.
         14    1    6    6    0    0 -0.13943648594E+02  0.16238042306E+02  0.85939303809E+02  0.88564458409E+02  0.00000000000E+00 0. -1.
         -5    1    3    3    0  503  0.11828738171E+03  0.91781534184E+02  0.67265106904E+01  0.14994362485E+03  0.47000000000E+01 0.  1.
         13    1    4    4    0    0  0.86140728240E+01  0.38730623064E+02  0.16175027324E+02  0.42847344404E+02  0.00000000000E+00 0. -1.
        -14    1    4    4    0    0  0.35183453964E+01 -0.37507328719E+02 -0.19023706059E+02  0.42202841779E+02  0.00000000000E+00 0.  1.
</event>
<event>
12    1  0.8562501E-002  0.1873426E+03  0.7818608E-02  0.1160919E+00
         21   -1    0    0  503  502  0.00000000000E+00  0.00000000000E+00  0.21194142065E+02  0.21194142065E+02  0.00000000000E+00 0.  1.
         21   -1    0    0  501  503 -0.00000000000E+00 -0.00000000000E+00 -0.18617003003E+04  0.18617003003E+04  0.00000000000E+00 0.  1.
          6    2    1    2  501    0  0.30304909097E+02  0.65319019775E+02 -0.12347096340E+04  0.12488415195E+04  0.17295172297E+03 0.  0.
         24    2    3    3    0    0  0.43697869704E+02  0.10903800995E+03 -0.87817839895E+03  0.88935948501E+03  0.77228244638E+02 0.  0.
         -6    2    1    2    0  502 -0.30304909097E+02 -0.65319019775E+02 -0.60579652415E+03  0.63405292286E+03  0.17276781660E+03 0.  0.
        -24    2    5    5    0    0 -0.15563507300E+02  0.29169103384E+02 -0.35230424230E+03  0.36308107690E+03  0.81342054980E+02 0.  0.
          5    1    3    3  501    0 -0.13392960607E+02 -0.43718990177E+02 -0.35653123509E+03  0.35948203445E+03  0.47000000000E+01 0. -1.
        -13    1    4    4    0    0  0.30616509047E+02  0.32411473245E+02 -0.56198340645E+03  0.56374925574E+03  0.00000000000E+00 0.  1.
         14    1    4    4    0    0  0.13081360657E+02  0.76626536706E+02 -0.31619499250E+03  0.32561022927E+03  0.00000000000E+00 0. -1.
         -5    1    5    5    0  502 -0.14741401797E+02 -0.94488123158E+02 -0.25349228185E+03  0.27097184595E+03  0.47000000000E+01 0.  1.
         13    1    6    6    0    0 -0.26335405382E+02  0.25090189151E+02 -0.57417118482E+02  0.67969086084E+02  0.00000000000E+00 0. -1.
        -14    1    6    6    0    0  0.10771898082E+02  0.40789142324E+01 -0.29488712382E+03  0.29511199082E+03  0.00000000000E+00 0.  1.
</event>
<event>
12    1  0.8562501E-002  0.2928562E+03  0.7818608E-02  0.1088891E+00
         21   -1    0    0  503  502  0.00000000000E+00  0.00000000000E+00  0.13111264069E+03  0.13111264069E+03  0.00000000000E+00 0. -1.
         21   -1    0    0  501  503 -0.00000000000E+00 -0.00000000000E+00 -0.81746710883E+03  0.81746710883E+03  0.00000000000E+00 0.  1.
          6    2    1    2  501    0  0.23565631185E+03 -0.24918696811E+02 -0.55553779119E+03  0.62800240366E+03  0.17207539857E+03 0.  0.
         24    2    3    3    0    0  0.24334914166E+03 -0.52232256026E+02 -0.52237072320E+03  0.58410075737E+03  0.79721446252E+02 0.  0.
         -6    2    1    2    0  502 -0.23565631185E+03  0.24918696811E+02 -0.13081667695E+03  0.32057734587E+03  0.17176144197E+03 0.  0.
        -24    2    5    5    0    0 -0.21033602893E+03  0.49013804099E+02 -0.55454475356E+02  0.23737132233E+03  0.81402381852E+02 0.  0.
          5    1    3    3  501    0 -0.76928298041E+01  0.27313559215E+02 -0.33167067991E+02  0.43901646285E+02  0.47000000000E+01 0. -1.
        -13    1    4    4    0    0  0.21592244358E+03 -0.19787688252E+02 -0.40695513385E+03  0.46111444915E+03  0.00000000000E+00 0.  1.
         14    1    4    4    0    0  0.27426698078E+02 -0.32444567774E+02 -0.11541558935E+03  0.12298630822E+03  0.00000000000E+00 0. -1.
         -5    1    5    5    0  502 -0.25320282922E+02 -0.24095107288E+02 -0.75362201597E+02  0.83206023532E+02  0.47000000000E+01 0.  1.
         13    1    6    6    0    0 -0.10495427517E+03 -0.29136821863E+01  0.52651815871E+01  0.10512664533E+03  0.00000000000E+00 0. -1.
        -14    1    6    6    0    0 -0.10538175376E+03  0.51927486285E+02 -0.60719656943E+02  0.13224467700E+03  0.00000000000E+00 0.  1.
</event>
<event>
12    1  0.8562501E-002  0.2391781E+03  0.7818608E-02  0.1120354E+00
         21   -1    0    0  501  502  0.00000000000E+00  0.00000000000E+00  0.67180080938E+03  0.67180080938E+03  0.00000000000E+00 0.  1.
         21   -1    0    0  502  503 -0.00000000000E+00 -0.00000000000E+00 -0.86516199146E+02  0.86516199146E+02  0.00000000000E+00 0.  1.
         -6    2    1    2    0  503 -0.12910592376E+03  0.10540711047E+03  0.24453176549E+03  0.34200140511E+03  0.17143563887E+03 0.  0.
        -24    2    3    3    0    0 -0.14020073737E+03  0.11806798113E+03  0.25320414281E+03  0.32249005807E+03  0.79317114757E+02 0.  0.
          6    2    1    2  501    0  0.12910592376E+03 -0.10540711047E+03  0.34075284475E+03  0.41631560342E+03  0.17154352788E+03 0.  0.
         24    2    5    5    0    0  0.12553743570E+03 -0.11375782021E+03  0.35340902657E+03  0.40004485056E+03  0.80233739627E+02 0.  0.
          5    1    5    5  501    0  0.35684880630E+01  0.83507097347E+01 -0.12656181828E+02  0.16270752859E+02  0.47000000000E+01 0. -1.
        -11    1    6    6    0    0  0.10338930024E+03 -0.47212551117E+02  0.17868590916E+03  0.21177116545E+03  0.00000000000E+00 0.  1.
         12    1    6    6    0    0  0.22148135458E+02 -0.66545269091E+02  0.17472311742E+03  0.18827368510E+03  0.00000000000E+00 0. -1.
         -5    1    3    3    0  503  0.11094813616E+02 -0.12660870659E+02 -0.86723773127E+01  0.19511347039E+02  0.47000000000E+01 0.  1.
         13    1    4    4    0    0 -0.10063870785E+02  0.28321649239E+02  0.91679552366E+02  0.96480763019E+02  0.00000000000E+00 0. -1.
        -14    1    4    4    0    0 -0.13013686659E+03  0.89746331894E+02  0.16152459044E+03  0.22600929505E+03  0.00000000000E+00 0.  1.
</event>
<event>
12    1  0.8562501E-002  0.2619025E+03  0.7818608E-02  0.1106363E+00
         21   -1    0    0  503  502  0.00000000000E+00  0.00000000000E+00  0.13331316279E+04  0.13331316279E+04  0.00000000000E+00 0.  1.
         21   -1    0    0  501  503 -0.00000000000E+00 -0.00000000000E+00 -0.92116210997E+02  0.92116210997E+02  0.00000000000E+00 0.  1.
          6    2    1    2  501    0  0.18154884894E+03  0.76565148182E+02  0.14273859967E+03  0.29617526914E+03  0.16888835290E+03 0.  0.
         24    2    3    3    0    0  0.81003923421E+02 -0.21735764270E+02  0.42044538314E+02  0.12316158347E+03  0.79793191330E+02 0.  0.
         -6    2    1    2    0  502 -0.18154884894E+03 -0.76565148182E+02  0.10982768173E+04  0.11290725698E+04  0.17254186171E+03 0.  0.
        -24    2    5    5    0    0 -0.34347603129E+02 -0.24323910990E+02  0.24488289217E+03  0.26148935475E+03  0.81471720754E+02 0.  0.
          5    1    3    3  501    0  0.10054492552E+03  0.98300912453E+02  0.10069406136E+03  0.17301368567E+03  0.47000000000E+01 0. -1.
        -11    1    4    4    0    0  0.85552685685E+02 -0.13537791769E+02  0.70168698623E+01  0.86900922300E+02  0.00000000000E+00 0.  1.
         12    1    4    4    0    0 -0.45487622639E+01 -0.81979725017E+01  0.35027668452E+02  0.36260661170E+02  0.00000000000E+00 0. -1.
         -5    1    5    5    0  502 -0.14720124581E+03 -0.52241237193E+02  0.85339392509E+03  0.86758321503E+03  0.47000000000E+01 0.  1.
         11    1    6    6    0    0 -0.27630851426E+02 -0.50865730331E+02  0.11493873836E+03  0.12869226880E+03  0.00000000000E+00 0. -1.
        -12    1    6    6    0    0 -0.67167517026E+01  0.26541819342E+02  0.12994415381E+03  0.13279708595E+03  0.00000000000E+00 0.  1.
</event>
<event>
12    1  0.8562501E-002  0.2265500E+03  0.7818608E-02  0.1129661E+00
         21   -1    0    0  501  502  0.00000000000E+00  0.00000000000E+00  0.21193088379E+03  0.21193088379E+03  0.00000000000E+00 0. -1.
         21   -1    0    0  502  503 -0.00000000000E+00 -0.00000000000E+00 -0.32707535562E+03  0.32707535562E+03  0.00000000000E+00 0. -1.
         -6    2    1    2    0  503 -0.34435536196E+02 -0.13761785214E+03 -0.19726573851E+03  0.29803157788E+03  0.17258206872E+03 0.  0.
        -24    2    3    3    0    0  0.30577744715E+02 -0.62549277614E+02 -0.15989488604E+03  0.19182099371E+03  0.79884344182E+02 0.  0.
          6    2    1    2  501    0  0.34435536196E+02  0.13761785214E+03  0.82121266683E+02  0.24097466153E+03  0.17663636567E+03 0.  0.
         24    2    5    5    0    0 -0.86176831585E+01  0.15604455765E+03  0.46972655715E+02  0.18223252992E+03  0.81105463078E+02 0.  0.
          5    1    5    5  501    0  0.43053219354E+02 -0.18426705512E+02  0.35148610968E+02  0.58742131607E+02  0.47000000000E+01 0. -1.
        -11    1    6    6    0    0 -0.28559575927E+02  0.92165392268E+02 -0.63048947517E+01  0.96694677241E+02  0.00000000000E+00 0.  1.
         12    1    6    6    0    0  0.19941892769E+02  0.63879165381E+02  0.53277550467E+02  0.85537852678E+02  0.00000000000E+00 0. -1.
         -5    1    3    3    0  503 -0.65013280911E+02 -0.75068574523E+02 -0.37370852479E+02  0.10621058417E+03  0.47000000000E+01 0.  1.
         13    1    4    4    0    0 -0.21673778612E+02 -0.46466274288E+02 -0.75368896308E+02  0.91155569529E+02  0.00000000000E+00 0. -1.
        -14    1    4    4    0    0  0.52251523327E+02 -0.16083003326E+02 -0.84525989728E+02  0.10066542418E+03  0.00000000000E+00 0.  1.
</event>
<event>
12    1  0.8562501E-002  0.2188832E+03  0.7818608E-02  0.1135571E+00
         21   -1    0    0  503  502  0.00000000000E+00  0.00000000000E+00  0.76822026334E+03  0.76822026334E+03  0.00000000000E+00 0.  1.
         21   -1    0    0  501  503 -0.00000000000E+00 -0.00000000000E+00 -0.17621757327E+03  0.17621757327E+03  0.00000000000E+00 0. -1.
          6    2    1    2  501    0 -0.34208014028E+02  0.12305326593E+03 -0.84614161961E+02  0.23466870312E+03  0.17775699520E+03 0.  0.
         24    2    3    3    0    0 -0.41527828755E+01  0.14042256146E+03 -0.10699015020E+03  0.19310207954E+03  0.78139487507E+02 0.  0.
         -6    2    1    2    0  502  0.34208014028E+02 -0.12305326593E+03  0.67661685202E+03  0.70976913349E+03  0.17219048733E+03 0.  0.
        -24    2    5    5    0    0 -0.66349045634E+01  0.51571806756E+01  0.25915171169E+03  0.27112885261E+03  0.79250404239E+02 0.  0.
          5    1    3    3  501    0 -0.30055231152E+02 -0.17369295532E+02  0.22375988238E+02  0.41566623588E+02  0.47000000000E+01 0. -1.
        -11    1    4    4    0    0  0.21443202909E+02  0.41038837349E+01 -0.11192016498E+02  0.24533936618E+02  0.00000000000E+00 0.  1.
         12    1    4    4    0    0 -0.25595985785E+02  0.13631867773E+03 -0.95798133701E+02  0.16856814292E+03  0.00000000000E+00 0. -1.
         -5    1    5    5    0  502  0.40842918591E+02 -0.12821044661E+03  0.41746514033E+03  0.43864028088E+03  0.47000000000E+01 0.  1.
         11    1    6    6    0    0 -0.60065092088E+01  0.28361408689E+02  0.33567174830E+02  0.44353160899E+02  0.00000000000E+00 0. -1.
        -12    1    6    6    0    0 -0.62839535466E+00 -0.23204228013E+02  0.22558453686E+03  0.22677569171E+03  0.00000000000E+00 0.  1.
</event>
<event>
12    1  0.8562501E-002  0.1813553E+03  0.7818608E-02  0.1166526E+00
         21   -1    0    0  503  502  0.00000000000E+00  0.00000000000E+00  0.83368213784E+02  0.83368213784E+02  0.00000000000E+00 0.  1.
         21   -1    0    0  501  503 -0.00000000000E+00 -0.00000000000E+00 -0.39538459346E+03  0.39538459346E+03  0.00000000000E+00 0.  1.
          6    2    1    2  501    0  0.54096768133E+02 -0.18582684298E+02 -0.14317574402E+03  0.23096881748E+03  0.17197536013E+03 0.  0.
         24    2    3    3    0    0  0.50346028333E+02 -0.55298561941E+02 -0.14596967432E+03  0.19365903636E+03  0.10297583708E+03 0.  0.
         -6    2    1    2    0  502 -0.54096768133E+02  0.18582684298E+02 -0.16884063565E+03  0.24778398976E+03  0.17209871835E+03 0.  0.
        -24    2    5    5    0    0 -0.80367696400E+01  0.71573476009E+02 -0.79972788189E+02  0.13442997890E+03  0.80550730854E+02 0.  0.
          5    1    3    3  501    0  0.37507397991E+01  0.36715877643E+02  0.27939302986E+01  0.37309781112E+02  0.47000000000E+01 0. -1.
        -13    1    4    4    0    0 -0.14751729811E+02 -0.25047374683E+02 -0.10920695837E+03  0.11300948751E+03  0.00000000000E+00 0.  1.
         14    1    4    4    0    0  0.65097758144E+02 -0.30251187259E+02 -0.36762715946E+02  0.80649548850E+02  0.00000000000E+00 0. -1.
         -5    1    5    5    0  502 -0.46059998493E+02 -0.52990791711E+02 -0.88867847462E+02  0.11335401087E+03  0.47000000000E+01 0.  1.
         13    1    6    6    0    0  0.32169273872E+02  0.90345796323E+01 -0.29453571384E+02  0.44542100061E+02  0.00000000000E+00 0. -1.
        -14    1    6    6    0    0 -0.40206043512E+02  0.62538896377E+02 -0.50519216805E+02  0.89887878836E+02  0.00000000000E+00 0.  1.
</event>
<event>
12    1  0.8562501E-002  0.2258716E+03  0.7818608E-02  0.1129641E+00
         21   -1    0    0  501  502  0.00000000000E+00  0.00000000000E+00  0.32215511484E+03  0.32215511484E+03  0.00000000000E+00 0. -1.
         21   -1    0    0  502  503 -0.00000000000E+00 -0.00000000000E+00 -0.16106340972E+03  0.16106340972E+03  0.00000000000E+00 0.  1.
         -6    2    1    2    0  503  0.12666526565E+02  0.14538781417E+03  0.47969339883E+02  0.23090913750E+03  0.17239464843E+03 0.  0.
        -24    2    3    3    0    0 -0.36913753642E+00  0.72359055268E+02  0.94549403943E+02  0.14318844135E+03  0.79544772356E+02 0.  0.
          6    2    1    2  501    0 -0.12666526565E+02 -0.14538781417E+03  0.11312236524E+03  0.25230938705E+03  0.17194563058E+03 0.  0.
         24    2    5    5    0    0 -0.22500120871E+02 -0.13127422126E+03  0.18602325110E+02  0.15612196029E+03  0.79302228083E+02 0.  0.
          5    1    5    5  501    0  0.98335943063E+01 -0.14113592910E+02  0.94520040127E+02  0.96187426763E+02  0.47000000000E+01 0. -1.
        -11    1    6    6    0    0  0.29282748218E+02 -0.36679059288E+02  0.17070931373E+01  0.46965379807E+02  0.00000000000E+00 0.  1.
         12    1    6    6    0    0 -0.51782869089E+02 -0.94595161968E+02  0.16895231973E+02  0.10915658048E+03  0.00000000000E+00 0. -1.
         -5    1    3    3    0  503  0.13035664101E+02  0.73028758898E+02 -0.46580064060E+02  0.87720696147E+02  0.47000000000E+01 0.  1.
         11    1    4    4    0    0  0.11875749186E+02  0.87274064592E+02  0.80442249779E+02  0.11928432973E+03  0.00000000000E+00 0. -1.
        -12    1    4    4    0    0 -0.12244886722E+02 -0.14915009324E+02  0.14107154164E+02  0.23904111625E+02  0.00000000000E+00 0.  1.
</event>
<event>
12    1  0.8562501E-002  0.2198395E+03  0.7818608E-02  0.1134394E+00
         21   -1    0    0  501  502  0.00000000000E+00  0.00000000000E+00  0.15714009972E+03  0.15714009972E+03  0.00000000000E+00 0. -1.
         21   -1    0    0  502  503 -0.00000000000E+00 -0.00000000000E+00 -0.67034446633E+03  0.67034446633E+03  0.00000000000E+00 0. -1.
         -6    2    1    2    0  503 -0.63490986978E+02 -0.11703204781E+03 -0.56274828409E+03  0.60416472980E+03  0.17493365553E+03 0.  0.
        -24    2    3    3    0    0 -0.16627852889E+02 -0.13167988304E+03 -0.30463438596E+03  0.34138043266E+03  0.78245853589E+02 0.  0.
          6    2    1    2  501    0  0.63490986978E+02  0.11703204781E+03  0.49543917486E+02  0.22331983625E+03  0.17230654038E+03 0.  0.
         24    2    5    5    0    0 -0.19314115424E+02  0.66928337576E+02 -0.14611694642E+02  0.10710839391E+03  0.80039171659E+02 0.  0.
          5    1    5    5  501    0  0.82805102402E+02  0.50103710238E+02  0.64155612128E+02  0.11621144234E+03  0.47000000000E+01 0. -1.
        -13    1    6    6    0    0 -0.38302390013E+02  0.75715434195E+02 -0.15072056190E+02  0.86180432430E+02  0.00000000000E+00 0.  1.
         14    1    6    6    0    0  0.18988274589E+02 -0.87870966189E+01  0.46036154797E+00  0.20927961478E+02  0.00000000000E+00 0. -1.
         -5    1    3    3    0  503 -0.46863134089E+02  0.14647835222E+02 -0.25811389813E+03  0.26278429714E+03  0.47000000000E+01 0.  1.
         13    1    4    4    0    0 -0.29605519390E+02 -0.12420490690E+02 -0.44047226853E+02  0.54506087373E+02  0.00000000000E+00 0. -1.
        -14    1    4    4    0    0  0.12977666501E+02 -0.11925939235E+03 -0.26058715911E+03  0.28687434528E+03  0.00000000000E+00 0.  1.
</event>
<event>
12    1  0.8562501E-002  0.1967554E+03  0.7818608E-02  0.1152708E+00
         21   -1    0    0  503  502  0.00000000000E+00  0.00000000000E+00  0.25547964518E+03  0.25547964518E+03  0.00000000000E+00 0. -1.
         21   -1    0    0  501  503 -0.00000000000E+00 -0.00000000000E+00 -0.17477304386E+03  0.17477304386E+03  0.00000000000E+00 0. -1.
          6    2    1    2  501    0  0.91867680084E+02  0.12141852652E+02  0.12009595032E+03  0.23051183935E+03  0.17356720764E+03 0.  0.
         24    2    3    3    0    0  0.11933525067E+03  0.11079967353E+02  0.50900048590E+02  0.15590783241E+03  0.85748291711E+02 0.  0.
         -6    2    1    2    0  502 -0.91867680084E+02 -0.12141852652E+02 -0.39389349006E+02  0.19974084970E+03  0.17250446659E+03 0.  0.
        -24    2    5    5    0    0 -0.11650700024E+03 -0.46935853033E+02 -0.40187725229E+02  0.15684043053E+03  0.84894122207E+02 0.  0.
          5    1    3    3  501    0 -0.27467570588E+02  0.10618852987E+01  0.69195901735E+02  0.74604006939E+02  0.47000000000E+01 0. -1.
        -11    1    4    4    0    0  0.15207304993E+02 -0.24002688073E+02 -0.10192063495E+02  0.30187237670E+02  0.00000000000E+00 0.  1.
         12    1    4    4    0    0  0.10412794568E+03  0.35082655427E+02  0.61092112085E+02  0.12572059474E+03  0.00000000000E+00 0. -1.
         -5    1    5    5    0  502  0.24639320153E+02  0.34794000381E+02  0.79837622273E+00  0.42900419167E+02  0.47000000000E+01 0.  1.
         11    1    6    6    0    0 -0.45450328483E+02 -0.23852873361E+02  0.25539433988E+02  0.57331968527E+02  0.00000000000E+00 0. -1.
        -12    1    6    6    0    0 -0.71056671754E+02 -0.23082979672E+02 -0.65727159217E+02  0.99508462002E+02  0.00000000000E+00 0.  1.
</event>
<event>
12    1  0.8562501E-002  0.2545272E+03  0.7818608E-02  0.1112223E+00
         21   -1    0    0  503  502  0.00000000000E+00  0.00000000000E+00  0.10203145632E+04  0.10203145632E+04  0.00000000000E+00 0.  1.
         21   -1    0    0  501  503 -0.00000000000E+00 -0.00000000000E+00 -0.95250894671E+02  0.95250894671E+02  0.00000000000E+00 0. -1.
          6    2    1    2  501    0 -0.11179829942E+03  0.13026885483E+03  0.13352422607E+03  0.28742442807E+03  0.18792351798E+03 0.  0.
         24    2    3    3    0    0  0.14211122301E+02  0.18539172764E+02  0.24956865758E+02  0.86997738371E+02  0.80000652556E+02 0.  0.
         -6    2    1    2    0  502  0.11179829942E+03 -0.13026885483E+03  0.79153944245E+03  0.82814102979E+03  0.17266743173E+03 0.  0.
        -24    2    5    5    0    0  0.47210069748E+02 -0.43044061701E+02  0.18336847478E+03  0.21034347406E+03  0.80862832034E+02 0.  0.
          5    1    3    3  501    0 -0.12600942173E+03  0.11172968207E+03  0.10856736031E+03  0.20042668970E+03  0.47000000000E+01 0. -1.
        -11    1    4    4    0    0  0.30626279944E+02 -0.10286443005E+02  0.39285206046E+02  0.50863615159E+02  0.00000000000E+00 0.  1.
         12    1    4    4    0    0 -0.16415157643E+02  0.28825615769E+02 -0.14328340289E+02  0.36134123212E+02  0.00000000000E+00 0. -1.
         -5    1    5    5    0  502  0.64588229677E+02 -0.87224793129E+02  0.60817096767E+03  0.61779755573E+03  0.47000000000E+01 0.  1.
         11    1    6    6    0    0  0.47218525639E+02 -0.44736657405E+02  0.64977425171E+02  0.91940325544E+02  0.00000000000E+00 0. -1.
        -12    1    6    6    0    0 -0.84558911468E-02  0.16925957041E+01  0.11839104961E+03  0.11840314852E+03  0.00000000000E+00 0.  1.
</event>
<event>
12    1  0.8562501E-002  0.1933950E+03  0.7818608E-02  0.1155729E+00
         21   -1    0    0  501  502  0.00000000000E+00  0.00000000000E+00  0.45484879073E+02  0.45484879073E+02  0.00000000000E+00 0.  1.
         21   -1    0    0  502  503 -0.00000000000E+00 -0.00000000000E+00 -0.12903264486E+04  0.12903264486E+04  0.00000000000E+00 0.  1.
         -6    2    1    2    0  503  0.45512292453E+02  0.73092985304E+02 -0.10284611829E+04  0.10464865096E+04  0.17316944499E+03 0.  0.
        -24    2    3    3    0    0 -0.32161266223E+02  0.52416011327E+02 -0.37913394849E+03  0.39218637481E+03  0.79283140734E+02 0.  0.
          6    2    1    2  501    0 -0.45512292453E+02 -0.73092985304E+02 -0.21638038662E+03  0.28932481811E+03  0.17168117368E+03 0.  0.
         24    2    5    5    0    0 -0.71420627230E+02 -0.63308820958E+02 -0.22707288811E+03  0.25926835007E+03  0.80926312338E+02 0.  0.
          5    1    5    5  501    0  0.25908334777E+02 -0.97841643459E+01  0.10692501493E+02  0.30056468040E+02  0.47000000000E+01 0. -1.
        -13    1    6    6    0    0 -0.55771102873E+02 -0.38781187675E+02 -0.63035714602E+02  0.92670911016E+02  0.00000000000E+00 0.  1.
         14    1    6    6    0    0 -0.15649524357E+02 -0.24527633283E+02 -0.16403717351E+03  0.16659743905E+03  0.00000000000E+00 0. -1.
         -5    1    3    3    0  503  0.77673558676E+02  0.20676973977E+02 -0.64932723445E+03  0.65430013478E+03  0.47000000000E+01 0.  1.
         11    1    4    4    0    0  0.22377905847E+02  0.15154448129E+01 -0.13689362986E+03  0.13871889972E+03  0.00000000000E+00 0. -1.
        -12    1    4    4    0    0 -0.54539172070E+02  0.50900566514E+02 -0.24224031862E+03  0.25346747509E+03  0.00000000000E+00 0.  1.
</event>
<event>
12    1  0.8562501E-002  0.2165893E+03  0.7818608E-02  0.1139183E+00
         21   -1    0    0  501  502  0.00000000000E+00  0.00000000000E+00  0.23586431596E+03  0.23586431596E+03  0.00000000000E+00 0. -1.
         21   -1    0    0  502  503 -0.00000000000E+00 -0.00000000000E+00 -0.25506988694E+03  0.25506988694E+03  0.00000000000E+00 0. -1.
         -6    2    1    2    0  503 -0.10091196266E+03 -0.37752539831E+02 -0.13671883301E+03  0.24451936543E+03  0.17172420418E+03 0.  0.
        -24    2    3    3    0    0  0.54838021293E+01 -0.15167338059E+02 -0.10128828167E+03  0.13003109498E+03  0.79929027449E+02 0.  0.
          6    2    1    2  501    0  0.10091196266E+03  0.37752539831E+02  0.11751326202E+03  0.24641483747E+03  0.18788940072E+03 0.  0.
         24    2    5    5    0    0 -0.23907570522E+02  0.22615882865E+02  0.20025945609E+02  0.87245427379E+02  0.78279473778E+02 0.  0.
          5    1    5    5  501    0  0.12481953318E+03  0.15136656966E+02  0.97487316413E+02  0.15916941009E+03  0.47000000000E+01 0. -1.
        -13    1    6    6    0    0  0.22314034054E+02 -0.13613198420E+02  0.48016037936E+01  0.26576130004E+02  0.00000000000E+00 0.  1.
         14    1    6    6    0    0 -0.46221604576E+02  0.36229081285E+02  0.15224341816E+02  0.60669297375E+02  0.00000000000E+00 0. -1.
         -5    1    3    3    0  503 -0.10639576478E+03 -0.22585201772E+02 -0.35430551337E+02  0.11448827045E+03  0.47000000000E+01 0.  1.
         13    1    4    4    0    0  0.53220613505E+01 -0.48166732087E+02 -0.57403916684E+02  0.75123685131E+02  0.00000000000E+00 0. -1.
        -14    1    4    4    0    0  0.16174077880E+00  0.32999394028E+02 -0.43884364985E+02  0.54907409850E+02  0.00000000000E+00 0.  1.
</event>
<event>
12    1  0.8562501E-002  0.2095822E+03  0.7818608E-02  0.1142003E+00
         21   -1    0    0  503  502  0.00000000000E+00  0.00000000000E+00  0.34693115753E+03  0.34693115753E+03  0.00000000000E+00 0.  1.
         21   -1    0    0  501  503 -0.00000000000E+00 -0.00000000000E+00 -0.17699835777E+03  0.17699835777E+03  0.00000000000E+00 0. -1.
          6    2    1    2  501    0  0.88381229589E+02  0.77963590350E+02 -0.55326894515E+02  0.21625010789E+03  0.17266580652E+03 0.  0.
         24    2    3    3    0    0  0.65979512892E+02  0.93859152855E+02 -0.94181496205E+02  0.16843509047E+03  0.79607718078E+02 0.  0.
         -6    2    1    2    0  502 -0.88381229589E+02 -0.77963590350E+02  0.22525969428E+03  0.30767940742E+03  0.17330644742E+03 0.  0.
        -24    2    5    5    0    0 -0.15061574670E+02 -0.51027845691E+02  0.20439581990E+03  0.22669362230E+03  0.82350805281E+02 0.  0.
          5    1    3    3  501    0  0.22401716697E+02 -0.15895562505E+02  0.38854601690E+02  0.47815017419E+02  0.47000000000E+01 0. -1.
        -13    1    4    4    0    0  0.16658685394E+02  0.45215433022E+02  0.39143687016E+01  0.48345314817E+02  0.00000000000E+00 0.  1.
         14    1    4    4    0    0  0.49320827498E+02  0.48643719833E+02 -0.98095864906E+02  0.12008977565E+03  0.00000000000E+00 0. -1.
         -5    1    5    5    0  502 -0.73319654918E+02 -0.26935744659E+02  0.20863874380E+02  0.80985785122E+02  0.47000000000E+01 0.  1.
         13    1    6    6    0    0 -0.25336931107E+02 -0.29075123836E+02  0.25661244258E+02  0.46323021932E+02  0.00000000000E+00 0. -1.
        -14    1    6    6    0    0  0.10275356436E+02 -0.21952721855E+02  0.17873457564E+03  0.18037060036E+03  0.00000000000E+00 0.  1.
</event>
<event>
12    1  0.8562501E-002  0.1958331E+03  0.7818608E-02  0.1153361E+00
         21   -1    0    0  501  502  0.00000000000E+00  0.00000000000E+00  0.14213809291E+03  0.14213809291E+03  0.00000000000E+00 0. -1.
         21   -1    0    0  502  503 -0.00000000000E+00 -0.00000000000E+00 -0.27333094720E+03  0.27333094720E+03  0.00000000000E+00 0. -1.
         -6    2    1    2    0  503  0.52168082975E+02 -0.77641048256E+02 -0.40861108783E+02  0.20005056991E+03  0.17204929252E+03 0.  0.
        -24    2    3    3    0    0  0.72127100380E+02 -0.90933961772E+01  0.23628679850E+02  0.10372733378E+03  0.70114454986E+02 0.  0.
          6    2    1    2  501    0 -0.52168082975E+02  0.77641048256E+02 -0.90331745501E+02  0.21541847020E+03  0.17174298182E+03 0.  0.
         24    2    5    5    0    0 -0.38913328879E+02  0.11952431555E+03 -0.86386708681E+02  0.17106139748E+03  0.77453399537E+02 0.  0.
          5    1    5    5  501    0 -0.13254754096E+02 -0.41883267290E+02 -0.39450368199E+01  0.44357072723E+02  0.47000000000E+01 0. -1.
        -11    1    6    6    0    0  0.19620348064E+02  0.64099639386E+02 -0.39148682837E+02  0.77629512400E+02  0.00000000000E+00 0.  1.
         12    1    6    6    0    0 -0.58533676943E+02  0.55424676160E+02 -0.47238025844E+02  0.93431885080E+02  0.00000000000E+00 0. -1.
         -5    1    3    3    0  503 -0.19959017405E+02 -0.68547652079E+02 -0.64489788632E+02  0.96323236133E+02  0.47000000000E+01 0.  1.
         13    1    4    4    0    0  0.41424886584E+02 -0.66494598543E+01 -0.22999283089E+02  0.47845622239E+02  0.00000000000E+00 0. -1.
        -14    1    4    4    0    0  0.30702213796E+02 -0.24439363229E+01  0.46627962938E+02  0.55881711539E+02  0.00000000000E+00 0.  1.
</event>
<event>
12    1  0.8562501E-002  0.1977008E+03  0.7818608E-02  0.1151894E+00
         21   -1    0    0  503  502  0.00000000000E+00  0.00000000000E+00  0.58051847679E+03  0.58051847679E+03  0.00000000000E+00 0.  1.
         21   -1    0    0  501  503 -0.00000000000E+00 -0.00000000000E+00 -0.18646621143E+03  0.18646621143E+03  0.00000000000E+00 0. -1.
          6    2    1    2  501    0 -0.71857278323E+01  0.96081472004E+02 -0.11008386892E+03  0.22546936296E+03  0.17156541461E+03 0.  0.
         24    2    3    3    0    0 -0.34061148427E+02 -0.79337984672E+01 -0.59455629424E+02  0.10661325938E+03  0.81291501499E+02 0.  0.
         -6    2    1    2    0  502  0.71857278323E+01 -0.96081472004E+02  0.50413613428E+03  0.54151532526E+03  0.17263348939E+03 0.  0.
        -24    2    5    5    0    0  0.70583949121E+02 -0.71116797512E+02  0.30471461298E+03  0.33072252986E+03  0.80540074694E+02 0.  0.
          5    1    3    3  501    0  0.26875420594E+02  0.10401527047E+03 -0.50628239494E+02  0.11885610358E+03  0.47000000000E+01 0. -1.
        -11    1    4    4    0    0  0.13614828698E+02 -0.24058477477E+02  0.13551128258E+01  0.27676889814E+02  0.00000000000E+00 0.  1.
         12    1    4    4    0    0 -0.47675977125E+02  0.16124679010E+02 -0.60810742249E+02  0.78936369570E+02  0.00000000000E+00 0. -1.
         -5    1    5    5    0  502 -0.63398221289E+02 -0.24964674492E+02  0.19942152129E+03  0.21079279539E+03  0.47000000000E+01 0.  1.
         13    1    6    6    0    0 -0.48601706317E+01  0.13634708215E+02  0.25302031533E+02  0.29149945564E+02  0.00000000000E+00 0. -1.
        -14    1    6    6    0    0  0.75444119753E+02 -0.84751505727E+02  0.27941258145E+03  0.30157258430E+03  0.00000000000E+00 0.  1.
</event>
<event>
12    1  0.8562501E-002  0.2122423E+03  0.7818608E-02  0.1139836E+00
         21   -1    0    0  503  502  0.00000000000E+00  0.00000000000E+00  0.68561240051E+03  0.68561240051E+03  0.00000000000E+00 0.  1.
         21   -1    0    0  501  503 -0.00000000000E+00 -0.00000000000E+00 -0.91982709163E+02  0.91982709163E+02  0.00000000000E+00 0.  1.
          6    2    1    2  501    0 -0.63488756305E+02 -0.10616242104E+03  0.88698720684E+02  0.22987064152E+03  0.17225494757E+03 0.  0.
         24    2    3    3    0    0 -0.10611630555E+03 -0.95758695745E+02  0.49391118130E+02  0.17077306904E+03  0.79331963583E+02 0.  0.
         -6    2    1    2    0  502  0.63488756305E+02  0.10616242104E+03  0.50493097066E+03  0.54772446815E+03  0.17246891332E+03 0.  0.
        -24    2    5    5    0    0  0.65524246355E+02  0.20422792398E+00  0.28119086466E+03  0.30010983421E+03  0.81878822990E+02 0.  0.
          5    1    3    3  501    0  0.42627549240E+02 -0.10403725292E+02  0.39307602553E+02  0.59097572476E+02  0.47000000000E+01 0. -1.
        -13    1    4    4    0    0 -0.40795370487E+02 -0.52718434729E+02  0.62593487813E+02  0.91440911686E+02  0.00000000000E+00 0.  1.
         14    1    4    4    0    0 -0.65320935058E+02 -0.43040261016E+02 -0.13202369683E+02  0.79332157354E+02  0.00000000000E+00 0. -1.
         -5    1    5    5    0  502 -0.20354900495E+01  0.10595819311E+03  0.22374010600E+03  0.24761463394E+03  0.47000000000E+01 0.  1.
         13    1    6    6    0    0  0.46244458858E+01  0.12568037121E+02  0.13584866986E+01  0.13460555076E+02  0.00000000000E+00 0. -1.
        -14    1    6    6    0    0  0.60899800469E+02 -0.12363809197E+02  0.27983237796E+03  0.28664927913E+03  0.00000000000E+00 0.  1.
</event>
<event>
12    1  0.8562501E-002  0.1865362E+03  0.7818608E-02  0.1162565E+00
         21   -1    0    0  503  502  0.00000000000E+00  0.00000000000E+00  0.73728046514E+03  0.73728046514E+03  0.00000000000E+00 0.  1.
         21   -1    0    0  501  503 -0.00000000000E+00 -0.00000000000E+00 -0.49746460121E+02  0.49746460121E+02  0.00000000000E+00 0.  1.
          6    2    1    2  501    0 -0.60606203604E+02  0.43210526605E+01  0.23492496830E+03  0.29748560098E+03  0.17209345905E+03 0.  0.
         24    2    3    3    0    0 -0.89247741195E+02 -0.21526081697E+02  0.10591495555E+03  0.16274850356E+03  0.82707714889E+02 0.  0.
         -6    2    1    2    0  502  0.60606203604E+02 -0.43210526605E+01  0.45260903672E+03  0.48954132428E+03  0.17636321795E+03 0.  0.
        -24    2    5    5    0    0 -0.25114516609E+02 -0.19967546460E+02  0.31785818484E+03  0.32900242954E+03  0.78608721632E+02 0.  0.
          5    1    3    3  501    0  0.28641537590E+02  0.25847134358E+02  0.12901001275E+03  0.13473709742E+03  0.47000000000E+01 0. -1.
        -11    1    4    4    0    0 -0.51322234560E+01 -0.30312443756E+02  0.57745428011E+02  0.65419556863E+02  0.00000000000E+00 0.  1.
         12    1    4    4    0    0 -0.84115517739E+02  0.87863620590E+01  0.48169527536E+02  0.97328946700E+02  0.00000000000E+00 0. -1.
         -5    1    5    5    0  502  0.85720720213E+02  0.15646493799E+02  0.13475085188E+03  0.16053889474E+03  0.47000000000E+01 0.  1.
         11    1    6    6    0    0 -0.11527842022E+02 -0.38568865896E+02  0.75580089018E+02  0.85631760545E+02  0.00000000000E+00 0. -1.
        -12    1    6    6    0    0 -0.13586674586E+02  0.18601319436E+02  0.24227809582E+03  0.24337066899E+03  0.00000000000E+00 0.  1.
</event>
<event>
12    1  0.8562501E-002  0.2448139E+03  0.7818608E-02  0.1117268E+00
         21   -1    0    0  503  502  0.00000000000E+00  0.00000000000E+00  0.92846034608E+03  0.92846034608E+03  0.00000000000E+00 0. -1.
         21   -1    0    0  501  503 -0.00000000000E+00 -0.00000000000E+00 -0.64118342840E+02  0.64118342840E+02  0.00000000000E+00 0.  1.
          6    2    1    2  501    0 -0.84384447199E+02  0.14596110627E+03  0.47650719295E+03  0.53393974420E+03  0.17206732994E+03 0.  0.
         24    2    3    3    0    0 -0.99347322123E+02  0.56373425795E+02  0.35997523136E+03  0.38611678187E+03  0.80350161825E+02 0.  0.
         -6    2    1    2    0  502  0.84384447199E+02 -0.14596110627E+03  0.38783481028E+03  0.45863894471E+03  0.17750623107E+03 0.  0.
        -24    2    5    5    0    0  0.39598427914E+02 -0.41686298846E+02  0.29759205766E+03  0.31357045266E+03  0.80371717622E+02 0.  0.
          5    1    3    3  501    0  0.14962874924E+02  0.89587680470E+02  0.11653196160E+03  0.14782296233E+03  0.47000000000E+01 0. -1.
        -11    1    4    4    0    0 -0.88580433109E+02  0.47228731655E+02  0.18422421812E+03  0.20979897227E+03  0.00000000000E+00 0.  1.
         12    1    4    4    0    0 -0.10766889014E+02  0.91446941401E+01  0.17575101323E+03  0.17631780960E+03  0.00000000000E+00 0. -1.
         -5    1    5    5    0  502  0.44786019285E+02 -0.10427480742E+03  0.90242752619E+02  0.14506849205E+03  0.47000000000E+01 0.  1.
         11    1    6    6    0    0 -0.23103610852E+02 -0.25520579749E+01  0.49193001250E+02  0.54408098719E+02  0.00000000000E+00 0. -1.
        -12    1    6    6    0    0  0.62702038766E+02 -0.39134240871E+02  0.24839905642E+03  0.25916235394E+03  0.00000000000E+00 0.  1.
</event>
<event>
12    1  0.8562501E-002  0.2087364E+03  0.7818608E-02  0.1142731E+00
         21   -1    0    0  501  502  0.00000000000E+00  0.00000000000E+00  0.85081492597E+03  0.85081492597E+03  0.00000000000E+00 0. -1.
         21   -1    0    0  502  503 -0.00000000000E+00 -0.00000000000E+00 -0.56916531599E+02  0.56916531599E+02  0.00000000000E+00 0.  1.
         -6    2    1    2    0  503 -0.11501180331E+03  0.17292400984E+02  0.25009779994E+03  0.32524543334E+03  0.17236281600E+03 0.  0.
        -24    2    3    3    0    0 -0.72599945665E+02  0.79739703552E+02  0.17649783020E+03  0.21971118860E+03  0.74110389944E+02 0.  0.
          6    2    1    2  501    0  0.11501180331E+03 -0.17292400984E+02  0.54380059443E+03  0.58248602423E+03  0.17333245479E+03 0.  0.
         24    2    5    5    0    0  0.14422738665E+03 -0.41312990110E+02  0.45731124497E+03  0.48797128155E+03  0.80461758855E+02 0.  0.
          5    1    5    5  501    0 -0.29215583336E+02  0.24020589125E+02  0.86489349467E+02  0.94514742674E+02  0.47000000000E+01 0. -1.
        -11    1    6    6    0    0  0.56693207747E+01  0.56020966747E+01  0.14567158847E+00  0.79715685665E+01  0.00000000000E+00 0.  1.
         12    1    6    6    0    0  0.13855806588E+03 -0.46915086784E+02  0.45716557338E+03  0.47999971299E+03  0.00000000000E+00 0. -1.
         -5    1    3    3    0  503 -0.42411857649E+02 -0.62447302568E+02  0.73599969741E+02  0.10553424474E+03  0.47000000000E+01 0.  1.
         11    1    4    4    0    0  0.71895203526E+01  0.36662877071E+02  0.32374874974E+02  0.49436709919E+02  0.00000000000E+00 0. -1.
        -12    1    4    4    0    0 -0.79789466018E+02  0.43076826481E+02  0.14412295523E+03  0.17027447868E+03  0.00000000000E+00 0.  1.
</event>
<event>
12    1  0.8562501E-002  0.3268519E+03  0.7818608E-02  0.1072684E+00
         21   -1    0    0  503  502  0.00000000000E+00  0.00000000000E+00  0.29143144684E+03  0.29143144684E+03  0.00000000000E+00 0. -1.
         21   -1    0    0  501  503 -0.00000000000E+00 -0.00000000000E+00 -0.38788331675E+03  0.38788331675E+03  0.00000000000E+00 0.  1.
          6    2    1    2  501    0 -0.24916556283E+03  0.12535843052E+03  0.34149796993E+02  0.32733614030E+03  0.16788247766E+03 0.  0.
         24    2    3    3    0    0 -0.22853360133E+03  0.11569570983E+03  0.76498879630E+02  0.27901864029E+03  0.79913821291E+02 0.  0.
         -6    2    1    2    0  502  0.24916556283E+03 -0.12535843052E+03 -0.13060166690E+03  0.35197862329E+03  0.17039349181E+03 0.  0.
        -24    2    5    5    0    0  0.73432902676E+02 -0.31264929840E+02  0.11795399138E+01  0.11297249118E+03  0.79946891220E+02 0.  0.
          5    1    3    3  501    0 -0.20631961500E+02  0.96627206854E+01 -0.42349082638E+02  0.48317500004E+02  0.47000000000E+01 0. -1.
        -11    1    4    4    0    0 -0.11229011073E+03  0.32581167548E+02 -0.18802437432E-01  0.11692134878E+03  0.00000000000E+00 0.  1.
         12    1    4    4    0    0 -0.11624349060E+03  0.83114542283E+02  0.76517682068E+02  0.16209729151E+03  0.00000000000E+00 0. -1.
         -5    1    5    5    0  502  0.17573266016E+03 -0.94093500676E+02 -0.13178120682E+03  0.23900613211E+03  0.47000000000E+01 0.  1.
         11    1    6    6    0    0  0.16355840829E+02 -0.44645056533E+02  0.19737766809E+02  0.51480812354E+02  0.00000000000E+00 0. -1.
        -12    1    6    6    0    0  0.57077061847E+02  0.13380126692E+02 -0.18558226895E+02  0.61491678826E+02  0.00000000000E+00 0.  1.
</event>
<event>
12    1  0.8562501E-002  0.2504874E+03  0.7818608E-02  0.1113656E+00
         21   -1    0    0  501  502  0.00000000000E+00  0.00000000000E+00  0.73009987463E+03  0.73009987463E+03  0.00000000000E+00 0. -1.
         21   -1    0    0  502  503 -0.00000000000E+00 -0.00000000000E+00 -0.85196463260E+02  0.85196463260E+02  0.00000000000E+00 0. -1.
         -6    2    1    2    0  503  0.14779450525E+03  0.94864825871E+02  0.28354426936E+03  0.37560964706E+03  0.17275040753E+03 0.  0.
        -24    2    3    3    0    0  0.72922223980E+02  0.34104804866E+02  0.24618843307E+03  0.27209545885E+03  0.83345099943E+02 0.  0.
          6    2    1    2  501    0 -0.14779450525E+03 -0.94864825871E+02  0.36135914200E+03  0.43968669083E+03  0.17860964592E+03 0.  0.
         24    2    5    5    0    0 -0.30937420417E+02 -0.25396917097E+02  0.20880551235E+03  0.23529474249E+03  0.10080548833E+03 0.  0.
          5    1    5    5  501    0 -0.11685708483E+03 -0.69467908774E+02  0.15255362965E+03  0.20439194834E+03  0.47000000000E+01 0. -1.
        -13    1    6    6    0    0  0.25165186171E+02 -0.12528284877E+02  0.12573491014E+02  0.30795083914E+02  0.00000000000E+00 0.  1.
         14    1    6    6    0    0 -0.56102606588E+02 -0.12868632220E+02  0.19623202134E+03  0.20449965858E+03  0.00000000000E+00 0. -1.
         -5    1    3    3    0  503  0.74872281271E+02  0.60760021005E+02  0.37355836298E+02  0.10351418821E+03  0.47000000000E+01 0.  1.
         13    1    4    4    0    0  0.14884248394E+02  0.52804459062E+02  0.12006049468E+03  0.13200141715E+03  0.00000000000E+00 0. -1.
        -14    1    4    4    0    0  0.58037975586E+02 -0.18699654196E+02  0.12612793838E+03  0.14009404169E+03  0.00000000000E+00 0.  1.
</event>
<event>
12    1  0.8562501E-002  0.2261970E+03  0.7818608E-02  0.1129888E+00
         21   -1    0    0  501  502  0.00000000000E+00  0.00000000000E+00  0.88221299812E+02  0.88221299812E+02  0.00000000000E+00 0. -1.
         21   -1    0    0  502  503 -0.00000000000E+00 -0.00000000000E+00 -0.10187794778E+04  0.10187794778E+04  0.00000000000E+00 0.  1.
         -6    2    1    2    0  503 -0.93873895543E+02 -0.10966480715E+03 -0.82994797561E+03  0.85943764879E+03  0.17023733946E+03 0.  0.
        -24    2    3    3    0    0 -0.55766974101E+02 -0.82676898596E+02 -0.28358595967E+03  0.31106366406E+03  0.79963626808E+02 0.  0.
          6    2    1    2  501    0  0.93873895543E+02  0.10966480715E+03 -0.10061020236E+03  0.24756312880E+03  0.17414480105E+03 0.  0.
         24    2    5    5    0    0 -0.46728508144E+01  0.64823297920E+02 -0.92036132148E+02  0.13885330014E+03  0.81152288023E+02 0.  0.
          5    1    5    5  501    0  0.98546746357E+02  0.44841509225E+02 -0.85740702075E+01  0.10870982866E+03  0.47000000000E+01 0. -1.
        -11    1    6    6    0    0  0.34054164700E+02  0.14307006531E+02 -0.51544140988E+02  0.63412735626E+02  0.00000000000E+00 0.  1.
         12    1    6    6    0    0 -0.38727015514E+02  0.50516291389E+02 -0.40491991160E+02  0.75440564516E+02  0.00000000000E+00 0. -1.
         -5    1    3    3    0  503 -0.38106921442E+02 -0.26987908549E+02 -0.54636201594E+03  0.54837398473E+03  0.47000000000E+01 0.  1.
         11    1    4    4    0    0  0.43561980289E+01  0.51509053411E+01  0.13657132955E+01  0.68828380706E+01  0.00000000000E+00 0. -1.
        -12    1    4    4    0    0 -0.60123172130E+02 -0.87827803937E+02 -0.28495167297E+03  0.30418082599E+03  0.00000000000E+00 0.  1.
</event>
<event>
12    1  0.8562501E-002  0.1824306E+03  0.7818608E-02  0.1165811E+00
         21   -1    0    0  503  502  0.00000000000E+00  0.00000000000E+00  0.13148531614E+04  0.13148531614E+04  0.00000000000E+00 0.  1.
         21   -1    0    0  501  503 -0.00000000000E+00 -0.00000000000E+00 -0.50474897083E+02  0.50474897083E+02  0.00000000000E+00 0.  1.
          6    2    1    2  501    0 -0.12475108744E+02  0.53721705253E+02  0.14953194310E+03  0.23588283825E+03  0.17389439732E+03 0.  0.
         24    2    3    3    0    0 -0.65990791660E+02  0.74877547844E+02  0.10885069056E+03  0.16525315397E+03  0.74153221817E+02 0.  0.
         -6    2    1    2    0  502  0.12475108744E+02 -0.53721705253E+02  0.11148463212E+04  0.11294452202E+04  0.17240224946E+03 0.  0.
        -24    2    5    5    0    0 -0.17840150022E+02 -0.32291724182E+02  0.30365617276E+03  0.31739238578E+03  0.84674842112E+02 0.  0.
          5    1    3    3  501    0  0.53515682916E+02 -0.21155842591E+02  0.40681252536E+02  0.70629684280E+02  0.47000000000E+01 0. -1.
        -11    1    4    4    0    0 -0.82573001659E+02  0.61324273500E+02  0.87983277415E+02  0.13535148403E+03  0.00000000000E+00 0.  1.
         12    1    4    4    0    0  0.16582210000E+02  0.13553274343E+02  0.20867413150E+02  0.29901669944E+02  0.00000000000E+00 0. -1.
         -5    1    5    5    0  502  0.30315258766E+02 -0.21429981071E+02  0.81119014841E+03  0.81205283441E+03  0.47000000000E+01 0.  1.
         13    1    6    6    0    0 -0.36563974701E+02  0.15454875506E+02  0.16017340185E+03  0.16501907794E+03  0.00000000000E+00 0. -1.
        -14    1    6    6    0    0  0.18723824679E+02 -0.47746599688E+02  0.14348277092E+03  0.15237330784E+03  0.00000000000E+00 0.  1.
</event>
<event>
12    1  0.8562501E-002  0.2431397E+03  0.7818608E-02  0.1117888E+00
         21   -1    0    0  503  502  0.00000000000E+00  0.00000000000E+00  0.24604852824E+03  0.24604852824E+03  0.00000000000E+00 0. -1.
         21   -1    0    0  501  503 -0.00000000000E+00 -0.00000000000E+00 -0.37339727378E+03  0.37339727378E+03  0.00000000000E+00 0. -1.
          6    2    1    2  501    0  0.55406677396E+02 -0.16142275219E+03 -0.24923310609E+03  0.34746656973E+03  0.17172265746E+03 0.  0.
         24    2    3    3    0    0  0.98481100709E+01 -0.31073984308E+02 -0.16508673853E+03  0.18569795250E+03  0.78533563230E+02 0.  0.
         -6    2    1    2    0  502 -0.55406677396E+02  0.16142275219E+03  0.12188436055E+03  0.27197923229E+03  0.17317534647E+03 0.  0.
        -24    2    5    5    0    0 -0.64383958080E+02  0.18764052108E+03  0.10409217418E+03  0.23871341095E+03  0.82429682955E+02 0.  0.
          5    1    3    3  501    0  0.45558567325E+02 -0.13034876788E+03 -0.84146367562E+02  0.16176861723E+03  0.47000000000E+01 0. -1.
        -11    1    4    4    0    0  0.10456164385E+02  0.25801992796E+02 -0.61908654102E+02  0.67880451226E+02  0.00000000000E+00 0.  1.
         12    1    4    4    0    0 -0.60805431439E+00 -0.56875977104E+02 -0.10317808443E+03  0.11781750128E+03  0.00000000000E+00 0. -1.
         -5    1    5    5    0  502  0.89772806843E+01 -0.26217768887E+02  0.17792186372E+02  0.33265821345E+02  0.47000000000E+01 0.  1.
         13    1    6    6    0    0 -0.15614198230E+02  0.23818831013E+02  0.53245366481E+02  0.60383846755E+02  0.00000000000E+00 0. -1.
        -14    1    6    6    0    0 -0.48769759850E+02  0.16382169007E+03  0.50846807695E+02  0.17832956419E+03  0.00000000000E+00 0.  1.
</event>
<event>
12    1  0.8562501E-002  0.1855891E+03  0.7818608E-02  0.1162721E+00
         21   -1    0    0  503  502  0.00000000000E+00  0.00000000000E+00  0.17168084834E+03  0.17168084834E+03  0.00000000000E+00 0. -1.
         21   -1    0    0  501  503 -0.00000000000E+00 -0.00000000000E+00 -0.46833213664E+03  0.46833213664E+03  0.00000000000E+00 0. -1.
          6    2    1    2  501    0  0.32224039297E+02 -0.58539834537E+02 -0.39088934932E+03  0.43270982581E+03  0.17314158659E+03 0.  0.
         24    2    3    3    0    0  0.27345674278E+02  0.18878859591E+02 -0.11501824612E+03  0.14610136776E+03  0.83738972289E+02 0.  0.
         -6    2    1    2    0  502 -0.32224039297E+02  0.58539834537E+02  0.94238061021E+02  0.20730315917E+03  0.17212927328E+03 0.  0.
        -24    2    5    5    0    0 -0.35965201250E+02  0.10118198927E+03  0.95012084866E+02  0.16423299820E+03  0.80086770287E+02 0.  0.
          5    1    3    3  501    0  0.48783650187E+01 -0.77418694128E+02 -0.27587110320E+03  0.28660845805E+03  0.47000000000E+01 0. -1.
        -11    1    4    4    0    0  0.56188147782E+02  0.11262675730E+02 -0.56802473064E+02  0.80687525442E+02  0.00000000000E+00 0.  1.
         12    1    4    4    0    0 -0.28842473504E+02  0.76161838612E+01 -0.58215773057E+02  0.65413842320E+02  0.00000000000E+00 0. -1.
         -5    1    5    5    0  502  0.37411619531E+01 -0.42642154730E+02 -0.77402384547E+00  0.43070160967E+02  0.47000000000E+01 0.  1.
         11    1    6    6    0    0 -0.28275141085E+02  0.99598008818E+02  0.10764800729E+03  0.14935642081E+03  0.00000000000E+00 0. -1.
        -12    1    6    6    0    0 -0.76900601646E+01  0.15839804499E+01 -0.12635922424E+02  0.14876577392E+02  0.00000000000E+00 0.  1.
</event>
<event>
12    1  0.8562501E-002  0.2200354E+03  0.7818608E-02  0.1134070E+00
         21   -1    0    0  501  502  0.00000000000E+00  0.00000000000E+00  0.24655271002E+03  0.24655271002E+03  0.00000000000E+00 0.  1.
         21   -1    0    0  502  503 -0.00000000000E+00 -0.00000000000E+00 -0.21334528088E+03  0.21334528088E+03  0.00000000000E+00 0.  1.
         -6    2    1    2    0  503  0.13352262908E+03  0.29614244179E+02  0.83421640593E+02  0.23531843805E+03  0.17236676371E+03 0.  0.
        -24    2    3    3    0    0  0.14154496714E+03  0.57762162432E+02  0.10204188774E+03  0.20031176992E+03  0.79629223177E+02 0.  0.
          6    2    1    2  501    0 -0.13352262908E+03 -0.29614244179E+02 -0.50214211451E+02  0.22457955285E+03  0.17090702909E+03 0.  0.
         24    2    5    5    0    0 -0.64066415504E+02 -0.80269807132E+02 -0.12075159518E+02  0.13041571189E+03  0.79465092319E+02 0.  0.
          5    1    5    5  501    0 -0.69456213576E+02  0.50655562953E+02 -0.38139051932E+02  0.94163840962E+02  0.47000000000E+01 0. -1.
        -11    1    6    6    0    0 -0.69262196034E+02 -0.39675230259E+02 -0.30609487733E+02  0.85488691854E+02  0.00000000000E+00 0.  1.
         12    1    6    6    0    0  0.51957805300E+01 -0.40594576873E+02  0.18534328215E+02  0.44927020034E+02  0.00000000000E+00 0. -1.
         -5    1    3    3    0  503 -0.80223380553E+01 -0.28147918253E+02 -0.18620247146E+02  0.35006668131E+02  0.47000000000E+01 0.  1.
         11    1    4    4    0    0  0.59146994275E+02 -0.14445913868E+02  0.51099963185E+02  0.79487468174E+02  0.00000000000E+00 0. -1.
        -12    1    4    4    0    0  0.82397972860E+02  0.72208076300E+02  0.50941924554E+02  0.12082430174E+03  0.00000000000E+00 0.  1.
</event>
<event>
12    1  0.8562501E-002  0.3755980E+03  0.7818608E-02  0.1052737E+00
         21   -1    0    0  501  502  0.00000000000E+00  0.00000000000E+00  0.47916006366E+03  0.47916006366E+03  0.00000000000E+00 0. -1.
         21   -1    0    0  502  503 -0.00000000000E+00 -0.00000000000E+00 -0.90590042681E+03  0.90590042681E+03  0.00000000000E+00 0.  1.
         -6    2    1    2    0  503 -0.21964826130E+03 -0.25059350033E+03 -0.78281569268E+03  0.86750515473E+03  0.16947661688E+03 0.  0.
        -24    2    3    3    0    0 -0.88047711664E+02 -0.20071447265E+03 -0.48575219282E+03  0.53875686954E+03  0.79152211465E+02 0.  0.
          6    2    1    2  501    0  0.21964826130E+03  0.25059350033E+03  0.35607532953E+03  0.51755533575E+03  0.17329577076E+03 0.  0.
         24    2    5    5    0    0  0.14650733148E+03  0.16410168660E+03  0.13625298893E+03  0.27022078320E+03  0.77850067184E+02 0.  0.
          5    1    5    5  501    0  0.73140929826E+02  0.86491813735E+02  0.21982234060E+03  0.24733455255E+03  0.47000000000E+01 0. -1.
        -13    1    6    6    0    0  0.14515828730E+03  0.17202123984E+03  0.13366974702E+03  0.26178204025E+03  0.00000000000E+00 0.  1.
         14    1    6    6    0    0  0.13490441770E+01 -0.79195532466E+01  0.25832419111E+01  0.84387429507E+01  0.00000000000E+00 0. -1.
         -5    1    3    3    0  503 -0.13160054964E+03 -0.49879027682E+02 -0.29706349986E+03  0.32874828519E+03  0.47000000000E+01 0.  1.
         11    1    4    4    0    0 -0.53855665322E+02 -0.57435757776E+02 -0.11095603736E+03  0.13605344974E+03  0.00000000000E+00 0. -1.
        -12    1    4    4    0    0 -0.34192046342E+02 -0.14327871487E+03 -0.37479615546E+03  0.40270341980E+03  0.00000000000E+00 0.  1.
</event>
<event>
12    1  0.8562501E-002  0.1883839E+03  0.7818608E-02  0.1160138E+00
         21   -1    0    0  501  502  0.00000000000E+00  0.00000000000E+00  0.43682868005E+02  0.43682868005E+02  0.00000000000E+00 0.  1.
         21   -1    0    0  502  503 -0.00000000000E+00 -0.00000000000E+00 -0.16401406173E+04  0.16401406173E+04  0.00000000000E+00 0.  1.
         -6    2    1    2    0  503  0.72671343010E+02 -0.21921338728E+02 -0.13967913722E+04  0.14093145741E+04  0.17140525718E+03 0.  0.
        -24    2    3    3    0    0 -0.15031787397E+02 -0.10761566826E+02 -0.96440054577E+03  0.96795270856E+03  0.80760555775E+02 0.  0.
          6    2    1    2  501    0 -0.72671343010E+02  0.21921338728E+02 -0.19966637709E+03  0.27450891118E+03  0.17241464842E+03 0.  0.
         24    2    5    5    0    0 -0.48222097916E+02  0.79040019737E+02 -0.11860313484E+03  0.17226582559E+03  0.83881557132E+02 0.  0.
          5    1    5    5  501    0 -0.24449245094E+02 -0.57118681009E+02 -0.81063242256E+02  0.10224308559E+03  0.47000000000E+01 0. -1.
        -13    1    6    6    0    0 -0.37494287070E+01  0.46728011632E+02 -0.63907312957E+01  0.47311803318E+02  0.00000000000E+00 0.  1.
         14    1    6    6    0    0 -0.44472669209E+02  0.32312008105E+02 -0.11221240354E+03  0.12495402228E+03  0.00000000000E+00 0. -1.
         -5    1    3    3    0  503  0.87703130407E+02 -0.11159771902E+02 -0.43239082642E+03  0.44136186555E+03  0.47000000000E+01 0.  1.
         11    1    4    4    0    0 -0.21535413260E+02  0.10557033777E+02 -0.86338412654E+02  0.89607736753E+02  0.00000000000E+00 0. -1.
        -12    1    4    4    0    0  0.65036258628E+01 -0.21318600603E+02 -0.87806213312E+03  0.87834497181E+03  0.00000000000E+00 0.  1.
</event>
<event>
12    1  0.8562501E-002  0.2065223E+03  0.7818608E-02  0.1144475E+00
         21   -1    0    0  503  502  0.00000000000E+00  0.00000000000E+00  0.11984340571E+03  0.11984340571E+03  0.00000000000E+00 0. -1.
         21   -1    0    0  501  503 -0.00000000000E+00 -0.00000000000E+00 -0.45853544264E+03  0.45853544264E+03  0.00000000000E+00 0. -1.
          6    2    1    2  501    0  0.57505828730E+02 -0.97098445688E+02 -0.30707085716E+03  0.37005940772E+03  0.17296365351E+03 0.  0.
         24    2    3    3    0    0 -0.10115190128E+02 -0.10818624494E+03 -0.23032754071E+03  0.26706830081E+03  0.80424626965E+02 0.  0.
         -6    2    1    2    0  502 -0.57505828730E+02  0.97098445688E+02 -0.31621179774E+02  0.20831944063E+03  0.17222677446E+03 0.  0.
        -24    2    5    5    0    0 -0.43333407655E+02  0.13017704959E+03 -0.41060612883E+02  0.17081951459E+03  0.93110064849E+02 0.  0.
          5    1    3    3  501    0  0.67621018859E+02  0.11087799250E+02 -0.76743316446E+02  0.10299110691E+03  0.47000000000E+01 0. -1.
        -11    1    4    4    0    0  0.67840573165E+01  0.11949178967E+02 -0.20125049573E+02  0.24368502867E+02  0.00000000000E+00 0.  1.
         12    1    4    4    0    0 -0.16899247445E+02 -0.12013542390E+03 -0.21020249114E+03  0.24269979794E+03  0.00000000000E+00 0. -1.
         -5    1    5    5    0  502 -0.14172421076E+02 -0.33078603901E+02  0.94394331086E+01  0.37499926035E+02  0.47000000000E+01 0.  1.
         11    1    6    6    0    0 -0.12305319736E+02  0.62583208552E+02  0.27693095327E+02  0.69534066581E+02  0.00000000000E+00 0. -1.
        -12    1    6    6    0    0 -0.31028087919E+02  0.67593841036E+02 -0.68753708210E+02  0.10128544801E+03  0.00000000000E+00 0.  1.
</event>
<event>
12    1  0.8562501E-002  0.1851542E+03  0.7818608E-02  0.1162963E+00
         21   -1    0    0  503  502  0.00000000000E+00  0.00000000000E+00  0.25979957859E+03  0.25979957859E+03  0.00000000000E+00 0.  1.
         21   -1    0    0  501  503 -0.00000000000E+00 -0.00000000000E+00 -0.15271135441E+03  0.15271135441E+03  0.00000000000E+00 0.  1.
          6    2    1    2  501    0 -0.42234852861E+02  0.53163409408E+02 -0.22782790644E+02  0.18655063698E+03  0.17225548964E+03 0.  0.
         24    2    3    3    0    0 -0.14730791925E+02  0.72880367113E+02 -0.69674737904E+02  0.12853187702E+03  0.78341114155E+02 0.  0.
         -6    2    1    2    0  502  0.42234852861E+02 -0.53163409408E+02  0.12987101483E+03  0.22596029602E+03  0.17199256958E+03 0.  0.
        -24    2    5    5    0    0 -0.24527833372E+02 -0.77161884453E+02  0.93756409043E+02  0.14621358557E+03  0.77669668121E+02 0.  0.
          5    1    3    3  501    0 -0.27504060935E+02 -0.19716957705E+02  0.46891947260E+02  0.58018759957E+02  0.47000000000E+01 0. -1.
        -11    1    4    4    0    0 -0.19034970480E+02  0.88449376654E+02 -0.51068830962E+02  0.10389248206E+03  0.00000000000E+00 0.  1.
         12    1    4    4    0    0  0.43041785548E+01 -0.15569009541E+02 -0.18605906942E+02  0.24639394965E+02  0.00000000000E+00 0. -1.
         -5    1    5    5    0  502  0.66762686233E+02  0.23998475046E+02  0.36114605783E+02  0.79746710455E+02  0.47000000000E+01 0.  1.
         13    1    6    6    0    0 -0.28344911054E+02 -0.40161573444E+01  0.58057004147E+02  0.64731593778E+02  0.00000000000E+00 0. -1.
        -14    1    6    6    0    0  0.38170776824E+01 -0.73145727109E+02  0.35699404895E+02  0.81481991791E+02  0.00000000000E+00 0.  1.
</event>
<event>
12    1  0.8562501E-002  0.1879492E+03  0.7818608E-02  0.1160405E+00
         21   -1    0    0  503  502  0.00000000000E+00  0.00000000000E+00  0.19100760284E+03  0.19100760284E+03  0.00000000000E+00 0. -1.
         21   -1    0    0  501  503 -0.00000000000E+00 -0.00000000000E+00 -0.25931076281E+03  0.25931076281E+03  0.00000000000E+00 0. -1.
          6    2    1    2  501    0  0.24193044909E+02  0.72164192596E+02 -0.15499013300E+03  0.24334121131E+03  0.17146436854E+03 0.  0.
         24    2    3    3    0    0  0.35764039845E+02  0.10603298759E+03 -0.83697207370E+02  0.16343029564E+03  0.84747731585E+02 0.  0.
         -6    2    1    2    0  502 -0.24193044909E+02 -0.72164192596E+02  0.86686973018E+02  0.20697715435E+03  0.17184858747E+03 0.  0.
        -24    2    5    5    0    0 -0.41054313326E+02 -0.87647863487E+02  0.11519518513E+03  0.17011450937E+03  0.79381427323E+02 0.  0.
          5    1    3    3  501    0 -0.11570994936E+02 -0.33868794992E+02 -0.71292925626E+02  0.79910915665E+02  0.47000000000E+01 0. -1.
        -13    1    4    4    0    0  0.62398406132E+02  0.56783588555E+02 -0.49185475991E+02  0.97658323073E+02  0.00000000000E+00 0.  1.
         14    1    4    4    0    0 -0.26634366287E+02  0.49249399034E+02 -0.34511731380E+02  0.65771972568E+02  0.00000000000E+00 0. -1.
         -5    1    5    5    0  502  0.16861268418E+02  0.15483670891E+02 -0.28508212111E+02  0.36862644977E+02  0.47000000000E+01 0.  1.
         11    1    6    6    0    0  0.21636382130E+02 -0.40920446983E+02  0.51675653164E+02  0.69375710035E+02  0.00000000000E+00 0. -1.
        -12    1    6    6    0    0 -0.62690695456E+02 -0.46727416505E+02  0.63519531966E+02  0.10073879933E+03  0.00000000000E+00 0.  1.
</event>
<event>
12    1  0.8562501E-002  0.2150803E+03  0.7818608E-02  0.1137888E+00
         21   -1    0    0  501  502  0.00000000000E+00  0.00000000000E+00  0.15497590922E+03  0.15497590922E+03  0.00000000000E+00 0.  1.
         21   -1    0    0  502  503 -0.00000000000E+00 -0.00000000000E+00 -0.44689115558E+03  0.44689115558E+03  0.00000000000E+00 0. -1.
         -6    2    1    2    0  503 -0.73414399537E+02  0.10292517228E+03 -0.32022215856E+03  0.38493197884E+03  0.17218342647E+03 0.  0.
        -24    2    3    3    0    0 -0.45948890063E+02  0.14170498486E+03 -0.26728311378E+03  0.31363779579E+03  0.68824420093E+02 0.  0.
          6    2    1    2  501    0  0.73414399537E+02 -0.10292517228E+03  0.28306912203E+02  0.21693508596E+03  0.17400081923E+03 0.  0.
         24    2    5    5    0    0 -0.33149871211E+00 -0.10943101132E+03 -0.34043216376E+01  0.13625996091E+03  0.81116776383E+02 0.  0.
          5    1    5    5  501    0  0.73745898249E+02  0.65058390438E+01  0.31711233840E+02  0.80675125050E+02  0.47000000000E+01 0. -1.
        -13    1    6    6    0    0  0.30087619035E+02 -0.35418182184E+02 -0.25814385579E+02  0.53161028500E+02  0.00000000000E+00 0.  1.
         14    1    6    6    0    0 -0.30419117747E+02 -0.74012829138E+02  0.22410063942E+02  0.83098932408E+02  0.00000000000E+00 0. -1.
         -5    1    3    3    0  503 -0.27465509473E+02 -0.38779812586E+02 -0.52939044780E+02  0.71294183052E+02  0.47000000000E+01 0.  1.
         11    1    4    4    0    0 -0.34298388380E+02  0.59005249318E+02 -0.62756168428E+02  0.92716425558E+02  0.00000000000E+00 0. -1.
        -12    1    4    4    0    0 -0.11650501683E+02  0.82699735546E+02 -0.20452694536E+03  0.22092137023E+03  0.00000000000E+00 0.  1.
</event>
<event>
12    1  0.8562501E-002  0.1911041E+03  0.7818608E-02  0.1160203E+00
         21   -1    0    0  501  502  0.00000000000E+00  0.00000000000E+00  0.83367871622E+02  0.83367871622E+02  0.00000000000E+00 0. -1.
         21   -1    0    0  502  503 -0.00000000000E+00 -0.00000000000E+00 -0.52974317627E+03  0.52974317627E+03  0.00000000000E+00 0. -1.
         -6    2    1    2    0  503  0.16948394531E+02  0.37875158021E+02 -0.37353506645E+03  0.41958221739E+03  0.18654494261E+03 0.  0.
        -24    2    3    3    0    0  0.84356225487E+02  0.65176926219E+01 -0.21808894354E+03  0.24720851453E+03  0.79942537278E+02 0.  0.
          6    2    1    2  501    0 -0.16948394531E+02 -0.37875158021E+02 -0.72840238198E+02  0.19352883050E+03  0.17443030775E+03 0.  0.
         24    2    5    5    0    0 -0.19514864951E+02 -0.24422662235E+02  0.29432626038E+02  0.90236114531E+02  0.79366116859E+02 0.  0.
          5    1    5    5  501    0  0.25664704207E+01 -0.13452495785E+02 -0.10227286424E+03  0.10329271597E+03  0.47000000000E+01 0. -1.
        -11    1    6    6    0    0  0.23557948001E+02 -0.78593752538E+00  0.33471615671E+02  0.40938290969E+02  0.00000000000E+00 0.  1.
         12    1    6    6    0    0 -0.43072812952E+02 -0.23636724710E+02 -0.40389896331E+01  0.49297823561E+02  0.00000000000E+00 0. -1.
         -5    1    3    3    0  503 -0.67407830957E+02  0.31357465399E+02 -0.15544612291E+03  0.17237370286E+03  0.47000000000E+01 0.  1.
         13    1    4    4    0    0  0.82795286842E+02  0.31697399787E+02 -0.18861780052E+03  0.20841415343E+03  0.00000000000E+00 0. -1.
        -14    1    4    4    0    0  0.15609386456E+01 -0.25179707166E+02 -0.29471143020E+02  0.38794361102E+02  0.00000000000E+00 0.  1.
</event>
<event>
12    1  0.8562501E-002  0.3942544E+03  0.7818608E-02  0.1045811E+00
         21   -1    0    0  503  502  0.00000000000E+00  0.00000000000E+00  0.57518445453E+03  0.57518445453E+03  0.00000000000E+00 0.  1.
         21   -1    0    0  501  503 -0.00000000000E+00 -0.00000000000E+00 -0.29520140654E+03  0.29520140654E+03  0.00000000000E+00 0.  1.
          6    2    1    2  501    0  0.34967606187E+03  0.59596622353E+02  0.12929786287E+02  0.39419897005E+03  0.17146586534E+03 0.  0.
         24    2    3    3    0    0  0.17866888125E+03  0.99060695466E+02  0.54731342606E+00  0.21819816175E+03  0.76645598207E+02 0.  0.
         -6    2    1    2    0  502 -0.34967606187E+03 -0.59596622353E+02  0.26705326171E+03  0.47618689102E+03  0.17207964712E+03 0.  0.
        -24    2    5    5    0    0 -0.19157205064E+03 -0.97124203215E+01  0.22263836844E+03  0.30448923605E+03  0.79697365535E+02 0.  0.
          5    1    3    3  501    0  0.17100718062E+03 -0.39464073113E+02  0.12382472861E+02  0.17600080830E+03  0.47000000000E+01 0. -1.
        -13    1    4    4    0    0  0.16520536605E+03  0.69361456310E+02  0.19903589901E+02  0.18027750132E+03  0.00000000000E+00 0.  1.
         14    1    4    4    0    0  0.13463515203E+02  0.29699239156E+02 -0.19356276475E+02  0.37920660425E+02  0.00000000000E+00 0. -1.
         -5    1    5    5    0  502 -0.15810401123E+03 -0.49884202032E+02  0.44414893267E+02  0.17169765497E+03  0.47000000000E+01 0.  1.
         13    1    6    6    0    0 -0.70132256247E+02 -0.32429280705E+02  0.49398364320E+02  0.91708178539E+02  0.00000000000E+00 0. -1.
        -14    1    6    6    0    0 -0.12143979439E+03  0.22716860384E+02  0.17324000412E+03  0.21278105751E+03  0.00000000000E+00 0.  1.
</event>
<event>
12    1  0.8562501E-002  0.2260344E+03  0.7818608E-02  0.1129556E+00
         21   -1    0    0  503  502  0.00000000000E+00  0.00000000000E+00  0.21210365940E+03  0.21210365940E+03  0.00000000000E+00 0.  1.
         21   -1    0    0  501  503 -0.00000000000E+00 -0.00000000000E+00 -0.24402624300E+03  0.24402624300E+03  0.00000000000E+00 0.  1.
          6    2    1    2  501    0  0.13542799726E+03 -0.54504677135E+02  0.12091416561E+02  0.22635756569E+03  0.17256895120E+03 0.  0.
         24    2    3    3    0    0  0.13497670345E+03 -0.37998992753E+01  0.48765218177E+02  0.16360220027E+03  0.78450517647E+02 0.  0.
         -6    2    1    2    0  502 -0.13542799726E+03  0.54504677135E+02 -0.44014000162E+02  0.22977233671E+03  0.17189122210E+03 0.  0.
        -24    2    5    5    0    0 -0.64337669566E+02  0.95526635532E+02 -0.46499948589E+02  0.14752328989E+03  0.79600263949E+02 0.  0.
          5    1    3    3  501    0  0.45129380735E+00 -0.50704777859E+02 -0.36673801616E+02  0.62755365419E+02  0.47000000000E+01 0. -1.
        -11    1    4    4    0    0  0.10907735132E+03 -0.23364676551E+02  0.84882594317E+01  0.11187415800E+03  0.00000000000E+00 0.  1.
         12    1    4    4    0    0  0.25899352139E+02  0.19564777275E+02  0.40276958745E+02  0.51728042267E+02  0.00000000000E+00 0. -1.
         -5    1    5    5    0  502 -0.71090327695E+02 -0.41021958398E+02  0.24859484275E+01  0.82249046816E+02  0.47000000000E+01 0.  1.
         11    1    6    6    0    0  0.46475064109E+01  0.13975764342E+02  0.17600993188E+02  0.22950299911E+02  0.00000000000E+00 0. -1.
        -12    1    6    6    0    0 -0.68985175977E+02  0.81550871190E+02 -0.64100941777E+02  0.12457298998E+03  0.00000000000E+00 0.  1.
</event>
<event>
12    1  0.8562501E-002  0.1914692E+03  0.7818608E-02  0.1157192E+00
         21   -1    0    0  503  502  0.00000000000E+00  0.00000000000E+00  0.19381584800E+03  0.19381584800E+03  0.00000000000E+00 0.  1.
         21   -1    0    0  501  503 -0.00000000000E+00 -0.00000000000E+00 -0.18984423151E+03  0.18984423151E+03  0.00000000000E+00 0.  1.
          6    2    1    2  501    0 -0.79461350991E+02  0.28001645381E+02 -0.11301252594E+02  0.19158267986E+03  0.17169160279E+03 0.  0.
         24    2    3    3    0    0  0.14392351582E+02  0.43952448948E+02  0.66179397416E+01  0.94597458952E+02  0.82255240326E+02 0.  0.
         -6    2    1    2    0  502  0.79461350991E+02 -0.28001645381E+02  0.15272869085E+02  0.19207739964E+03  0.17193681536E+03 0.  0.
        -24    2    5    5    0    0  0.12047133603E+03 -0.84384134959E+01  0.21220269449E+02  0.14601222315E+03  0.79276224978E+02 0.  0.
          5    1    3    3  501    0 -0.93853702573E+02 -0.15950803567E+02 -0.17919192336E+02  0.96985220911E+02  0.47000000000E+01 0. -1.
        -13    1    4    4    0    0  0.34421099522E+02 -0.40604826689E+01 -0.15624861963E+02  0.38018889032E+02  0.00000000000E+00 0.  1.
         14    1    4    4    0    0 -0.20028747940E+02  0.48012931617E+02  0.22242801705E+02  0.56578569920E+02  0.00000000000E+00 0. -1.
         -5    1    5    5    0  502 -0.41009985034E+02 -0.19563231886E+02 -0.59474003634E+01  0.46065176493E+02  0.47000000000E+01 0.  1.
         13    1    6    6    0    0  0.31165737401E+02 -0.19417995738E+01  0.43682918885E+02  0.53696100190E+02  0.00000000000E+00 0. -1.
        -14    1    6    6    0    0  0.89305598625E+02 -0.64966139221E+01 -0.22462649436E+02  0.92316122957E+02  0.00000000000E+00 0.  1.
</event>
<event>
12    1  0.8562501E-002  0.1952828E+03  0.7818608E-02  0.1155632E+00
         21   -1    0    0  503  502  0.00000000000E+00  0.00000000000E+00  0.25903743867E+03  0.25903743867E+03  0.00000000000E+00 0. -1.
         21   -1    0    0  501  503 -0.00000000000E+00 -0.00000000000E+00 -0.23189508926E+03  0.23189508926E+03  0.00000000000E+00 0.  1.
          6    2    1    2  501    0 -0.15244506662E+02 -0.69781890517E+02 -0.13988933417E+03  0.24021735657E+03  0.18175105325E+03 0.  0.
         24    2    3    3    0    0  0.66782528006E+01 -0.12470056051E+02 -0.15642436436E+03  0.17649333460E+03  0.80505987575E+02 0.  0.
         -6    2    1    2    0  502  0.15244506662E+02  0.69781890517E+02  0.16703168358E+03  0.25071517136E+03  0.17279064385E+03 0.  0.
        -24    2    5    5    0    0 -0.25570325411E+02  0.98362969594E+02  0.14959346157E+03  0.19771601868E+03  0.79901845840E+02 0.  0.
          5    1    3    3  501    0 -0.21922759462E+02 -0.57311834466E+02  0.16535030194E+02  0.63724021969E+02  0.47000000000E+01 0. -1.
        -13    1    4    4    0    0 -0.19558400537E+02 -0.37960537377E+02 -0.10530396065E+03  0.11363299502E+03  0.00000000000E+00 0.  1.
         14    1    4    4    0    0  0.26236653337E+02  0.25490481326E+02 -0.51120403712E+02  0.62860339581E+02  0.00000000000E+00 0. -1.
         -5    1    5    5    0  502  0.40814832073E+02 -0.28581079077E+02  0.17438222013E+02  0.52999152685E+02  0.47000000000E+01 0.  1.
         13    1    6    6    0    0  0.76289377045E+01  0.58766835513E+02  0.12924182975E+03  0.14218013997E+03  0.00000000000E+00 0. -1.
        -14    1    6    6    0    0 -0.33199263115E+02  0.39596134081E+02  0.20351631822E+02  0.55535878704E+02  0.00000000000E+00 0.  1.
</event>
<event>
12    1  0.8562501E-002  0.1782901E+03  0.7818608E-02  0.1169702E+00
         21   -1    0    0  501  502  0.00000000000E+00  0.00000000000E+00  0.38240460077E+03  0.38240460077E+03  0.00000000000E+00 0.  1.
         21   -1    0    0  502  503 -0.00000000000E+00 -0.00000000000E+00 -0.10165196700E+03  0.10165196700E+03  0.00000000000E+00 0.  1.
         -6    2    1    2    0  503 -0.83281882902E+01  0.40115347444E+02  0.36127463375E+02  0.18191359659E+03  0.17351876899E+03 0.  0.
        -24    2    3    3    0    0  0.45909417832E+02 -0.14831200515E+02  0.57750370965E+00  0.96785865012E+02  0.83901912978E+02 0.  0.
          6    2    1    2  501    0  0.83281882902E+01 -0.40115347444E+02  0.24462517039E+03  0.30214297118E+03  0.17254072338E+03 0.  0.
         24    2    5    5    0    0 -0.44706156048E+02 -0.69508400358E+02  0.17822305442E+03  0.21209895836E+03  0.79952816727E+02 0.  0.
          5    1    5    5  501    0  0.53034344338E+02  0.29393052914E+02  0.66402115969E+02  0.90044012816E+02  0.47000000000E+01 0. -1.
        -13    1    6    6    0    0 -0.32619097711E+02  0.90240649563E+01  0.70899688013E+02  0.78563382336E+02  0.00000000000E+00 0.  1.
         14    1    6    6    0    0 -0.12087058337E+02 -0.78532465315E+02  0.10732336641E+03  0.13353557603E+03  0.00000000000E+00 0. -1.
         -5    1    3    3    0  503 -0.54237606122E+02  0.54946547960E+02  0.35549959665E+02  0.85127731573E+02  0.47000000000E+01 0.  1.
         13    1    4    4    0    0 -0.62963791375E+00 -0.31325490456E+02  0.26485093750E+02  0.41026125666E+02  0.00000000000E+00 0. -1.
        -14    1    4    4    0    0  0.46539055746E+02  0.16494289941E+02 -0.25907590040E+02  0.55759739347E+02  0.00000000000E+00 0.  1.
</event>
<event>
12    1  0.8562501E-002  0.2188558E+03  0.7818608E-02  0.1134943E+00
         21   -1    0    0  503  502  0.00000000000E+00  0.00000000000E+00  0.11639294260E+03  0.11639294260E+03  0.00000000000E+00 0.  1.
         21   -1    0    0  501  503 -0.00000000000E+00 -0.00000000000E+00 -0.48370774771E+03  0.48370774771E+03  0.00000000000E+00 0. -1.
          6    2    1    2  501    0  0.10940746313E+03  0.78342043680E+02 -0.65736420551E+02  0.22747837308E+03  0.17122401828E+03 0.  0.
         24    2    3    3    0    0  0.82662485013E+02  0.61066600895E+02 -0.11232452216E+03  0.17085438532E+03  0.77538419705E+02 0.  0.
         -6    2    1    2    0  502 -0.10940746313E+03 -0.78342043680E+02 -0.30157838456E+03  0.37262231723E+03  0.17259895848E+03 0.  0.
        -24    2    5    5    0    0 -0.93088527926E+02  0.98469068865E+01 -0.12939960120E+03  0.17842854265E+03  0.79561626646E+02 0.  0.
          5    1    3    3  501    0  0.26744978121E+02  0.17275442785E+02  0.46588101614E+02  0.56623987762E+02  0.47000000000E+01 0. -1.
        -13    1    4    4    0    0  0.80018171245E+01 -0.21509322312E+01 -0.58718949366E+02  0.59300679603E+02  0.00000000000E+00 0.  1.
         14    1    4    4    0    0  0.74660667888E+02  0.63217533127E+02 -0.53605572799E+02  0.11155370572E+03  0.00000000000E+00 0. -1.
         -5    1    5    5    0  502 -0.16318935208E+02 -0.88188950567E+02 -0.17217878336E+03  0.19419377458E+03  0.47000000000E+01 0.  1.
         11    1    6    6    0    0 -0.91703116503E+00  0.27291798483E+02 -0.17604536004E+02  0.32490043068E+02  0.00000000000E+00 0. -1.
        -12    1    6    6    0    0 -0.92171496761E+02 -0.17444891597E+02 -0.11179506520E+03  0.14593849958E+03  0.00000000000E+00 0.  1.
</event>
<event>
12    1  0.8562501E-002  0.1874132E+03  0.7818608E-02  0.1161071E+00
         21   -1    0    0  503  502  0.00000000000E+00  0.00000000000E+00  0.16172232424E+03  0.16172232424E+03  0.00000000000E+00 0.  1.
         21   -1    0    0  501  503 -0.00000000000E+00 -0.00000000000E+00 -0.29393345532E+03  0.29393345532E+03  0.00000000000E+00 0. -1.
          6    2    1    2  501    0  0.63190204775E+02  0.34655528975E+02 -0.18363559258E+03  0.26238470827E+03  0.17300201329E+03 0.  0.
         24    2    3    3    0    0 -0.17817597857E+01 -0.42515139019E+02 -0.53389967930E+02  0.97573662164E+02  0.69709534203E+02 0.  0.
         -6    2    1    2    0  502 -0.63190204775E+02 -0.34655528975E+02  0.51424461493E+02  0.19327107129E+03  0.17179995370E+03 0.  0.
        -24    2    5    5    0    0 -0.81229013173E+02 -0.71209017757E+02  0.23347023763E+02  0.14355197375E+03  0.91614457695E+02 0.  0.
          5    1    3    3  501    0  0.64971964561E+02  0.77170667994E+02 -0.13024562465E+03  0.16481104610E+03  0.47000000000E+01 0. -1.
        -11    1    4    4    0    0 -0.34310488940E+02 -0.11928966959E+02 -0.17675814943E+02  0.40397330826E+02  0.00000000000E+00 0.  1.
         12    1    4    4    0    0  0.32528729154E+02 -0.30586172060E+02 -0.35714152987E+02  0.57176331338E+02  0.00000000000E+00 0. -1.
         -5    1    5    5    0  502  0.18038808398E+02  0.36553488782E+02  0.28077437730E+02  0.49719097538E+02  0.47000000000E+01 0.  1.
         13    1    6    6    0    0 -0.24036549864E+02 -0.12131003112E+01 -0.30102881867E+02  0.38541027989E+02  0.00000000000E+00 0. -1.
        -14    1    6    6    0    0 -0.57192463309E+02 -0.69995917445E+02  0.53449905630E+02  0.10501094576E+03  0.00000000000E+00 0.  1.
</event>
<event>
12    1  0.8562501E-002  0.1756161E+03  0.7818608E-02  0.1172453E+00
         21   -1    0    0  503  502  0.00000000000E+00  0.00000000000E+00  0.74628652319E+03  0.74628652319E+03  0.00000000000E+00 0. -1.
         21   -1    0    0  501  503 -0.00000000000E+00 -0.00000000000E+00 -0.23720082053E+03  0.23720082053E+03  0.00000000000E+00 0. -1.
          6    2    1    2  501    0 -0.18104572858E+02  0.22141468627E+02 -0.19250679229E+03  0.26057607435E+03  0.17327147848E+03 0.  0.
         24    2    3    3    0    0  0.18256033160E+02 -0.13051440698E+02 -0.11026158792E+02  0.72114022807E+02  0.67640470553E+02 0.  0.
         -6    2    1    2    0  502  0.18104572858E+02 -0.22141468627E+02  0.70159249495E+03  0.72291126937E+03  0.17190303725E+03 0.  0.
        -24    2    5    5    0    0 -0.39877022411E+02 -0.46699409695E+02  0.30009426050E+03  0.31647815049E+03  0.79566593281E+02 0.  0.
          5    1    3    3  501    0 -0.36360606017E+02  0.35192909325E+02 -0.18148063350E+03  0.18846205155E+03  0.47000000000E+01 0. -1.
        -11    1    4    4    0    0 -0.14318972918E+02  0.19297295295E+02  0.27423084960E+01  0.24185509030E+02  0.00000000000E+00 0.  1.
         12    1    4    4    0    0  0.32575006078E+02 -0.32348735994E+02 -0.13768467288E+02  0.47928513777E+02  0.00000000000E+00 0. -1.
         -5    1    5    5    0  502  0.57981595268E+02  0.24557941068E+02  0.40149823445E+03  0.40643311888E+03  0.47000000000E+01 0.  1.
         11    1    6    6    0    0 -0.13609712679E+02 -0.26483772140E+02  0.27022199342E+03  0.27185757336E+03  0.00000000000E+00 0. -1.
        -12    1    6    6    0    0 -0.26267309732E+02 -0.20215637555E+02  0.29872267082E+02  0.44620577124E+02  0.00000000000E+00 0.  1.
</event>
<event>
12    1  0.8562501E-002  0.2191169E+03  0.7818608E-02  0.1134600E+00
         21   -1    0    0  501  502  0.00000000000E+00  0.00000000000E+00  0.60939421600E+03  0.60939421600E+03  0.00000000000E+00 0.  1.
         21   -1    0    0  502  503 -0.00000000000E+00 -0.00000000000E+00 -0.16053999824E+03  0.16053999824E+03  0.00000000000E+00 0. -1.
         -6    2    1    2    0  503  0.12639382895E+03 -0.47152919331E+02 -0.50396347305E+02  0.22483773644E+03  0.17266562516E+03 0.  0.
        -24    2    3    3    0    0  0.51678475738E+02  0.12044743238E+02  0.33305554666E+02  0.97893474454E+02  0.75220553539E+02 0.  0.
          6    2    1    2  501    0 -0.12639382895E+03  0.47152919331E+02  0.49925056506E+03  0.54509647780E+03  0.17227955654E+03 0.  0.
         24    2    5    5    0    0 -0.56200754298E+02 -0.28416655368E+01  0.41304737957E+03  0.42311448965E+03  0.72464706822E+02 0.  0.
          5    1    5    5  501    0 -0.70193074647E+02  0.49994584868E+02  0.86203185487E+02  0.12198198815E+03  0.47000000000E+01 0. -1.
        -11    1    6    6    0    0 -0.36866437333E+02 -0.34847900228E+02  0.29361871593E+03  0.29796889216E+03  0.00000000000E+00 0.  1.
         12    1    6    6    0    0 -0.19334316966E+02  0.32006234691E+02  0.11942866364E+03  0.12514559749E+03  0.00000000000E+00 0. -1.
         -5    1    3    3    0  503  0.74715353207E+02 -0.59197662569E+02 -0.83701901971E+02  0.12694426199E+03  0.47000000000E+01 0.  1.
         11    1    4    4    0    0  0.27694454080E+02 -0.22033107995E+02 -0.11009628024E+02  0.37062818889E+02  0.00000000000E+00 0. -1.
        -12    1    4    4    0    0  0.23984021658E+02  0.34077851234E+02  0.44315182690E+02  0.60830655565E+02  0.00000000000E+00 0.  1.
</event>
<event>
12    1  0.8562501E-002  0.2694121E+03  0.7818608E-02  0.1101726E+00
         21   -1    0    0  501  502  0.00000000000E+00  0.00000000000E+00  0.43165569278E+03  0.43165569278E+03  0.00000000000E+00 0. -1.
         21   -1    0    0  502  503 -0.00000000000E+00 -0.00000000000E+00 -0.22943024885E+03  0.22943024885E+03  0.00000000000E+00 0.  1.
         -6    2    1    2    0  503 -0.56273634394E+02 -0.19966187157E+03 -0.70483344058E+02  0.27774150441E+03  0.17070693189E+03 0.  0.
        -24    2    3    3    0    0 -0.71379737606E+02 -0.13313671743E+03  0.11101052084E+02  0.17129013438E+03  0.79978899148E+02 0.  0.
          6    2    1    2  501    0  0.56273634394E+02  0.19966187157E+03  0.27270878798E+03  0.38334443721E+03  0.17190488536E+03 0.  0.
         24    2    5    5    0    0  0.99641563193E+02  0.15327240560E+03  0.16941905954E+03  0.26200352160E+03  0.80759867255E+02 0.  0.
          5    1    5    5  501    0 -0.43367928799E+02  0.46389465976E+02  0.10328972844E+03  0.12134091562E+03  0.47000000000E+01 0. -1.
        -13    1    6    6    0    0  0.97257904659E+02  0.10162036090E+03  0.15281160306E+03  0.20769492964E+03  0.00000000000E+00 0.  1.
         14    1    6    6    0    0  0.23836585342E+01  0.51652044698E+02  0.16607456483E+02  0.54308591957E+02  0.00000000000E+00 0. -1.
         -5    1    3    3    0  503  0.15106103212E+02 -0.66525154142E+02 -0.81584396142E+02  0.10645137003E+03  0.47000000000E+01 0.  1.
         11    1    4    4    0    0  0.14517359693E+02 -0.13423990125E+02  0.13478602510E+02  0.23929688025E+02  0.00000000000E+00 0. -1.
        -12    1    4    4    0    0 -0.85897097299E+02 -0.11971272731E+03 -0.23775504259E+01  0.14736044635E+03  0.00000000000E+00 0.  1.
</event>
<event>
12    1  0.8562501E-002  0.2163726E+03  0.7818608E-02  0.1136973E+00
         21   -1    0    0  503  502  0.00000000000E+00  0.00000000000E+00  0.12324220806E+03  0.12324220806E+03  0.00000000000E+00 0.  1.
         21   -1    0    0  501  503 -0.00000000000E+00 -0.00000000000E+00 -0.73850926140E+03  0.73850926140E+03  0.00000000000E+00 0.  1.
          6    2    1    2  501    0  0.96834619734E+02 -0.83915817202E+02 -0.60857744090E+03  0.64527543527E+03  0.17203219999E+03 0.  0.
         24    2    3    3    0    0  0.31850432149E+02 -0.10488643014E+03 -0.49523367891E+03  0.51286845047E+03  0.75908085859E+02 0.  0.
         -6    2    1    2    0  502 -0.96834619734E+02  0.83915817202E+02 -0.66896124345E+01  0.21647603419E+03  0.17435112420E+03 0.  0.
        -24    2    5    5    0    0 -0.71886484648E+02  0.85187938364E+01 -0.48598843259E+02  0.12655610200E+03  0.91729836283E+02 0.  0.
          5    1    3    3  501    0  0.64984187585E+02  0.20970612942E+02 -0.11334376199E+03  0.13240698480E+03  0.47000000000E+01 0. -1.
        -11    1    4    4    0    0  0.51969265912E+02 -0.66861523805E+02 -0.25168621037E+03  0.26555077943E+03  0.00000000000E+00 0.  1.
         12    1    4    4    0    0 -0.20118833763E+02 -0.38024906338E+02 -0.24354746854E+03  0.24731767104E+03  0.00000000000E+00 0. -1.
         -5    1    5    5    0  502 -0.24948135086E+02  0.75397023366E+02  0.41909230824E+02  0.89919932189E+02  0.47000000000E+01 0.  1.
         11    1    6    6    0    0 -0.70789561317E+02 -0.96019345005E+01 -0.68949911020E+02  0.99284688484E+02  0.00000000000E+00 0. -1.
        -12    1    6    6    0    0 -0.10969233312E+01  0.18120728337E+02  0.20351067762E+02  0.27271413519E+02  0.00000000000E+00 0.  1.
</event>
<event>
12    1  0.8562501E-002  0.2839203E+03  0.7818608E-02  0.1094223E+00
         21   -1    0    0  501  502  0.00000000000E+00  0.00000000000E+00  0.28030248274E+03  0.28030248274E+03  0.00000000000E+00 0. -1.
         21   -1    0    0  502  503 -0.00000000000E+00 -0.00000000000E+00 -0.72357755681E+03  0.72357755681E+03  0.00000000000E+00 0.  1.
         -6    2    1    2    0  503 -0.22545815448E+03  0.10476423808E+02 -0.61418297352E+03  0.67663243451E+03  0.17224863305E+03 0.  0.
        -24    2    3    3    0    0 -0.10016276823E+03 -0.56022696427E+02 -0.35638514438E+03  0.38234876605E+03  0.77518288913E+02 0.  0.
          6    2    1    2  501    0  0.22545815448E+03 -0.10476423808E+02  0.17090789945E+03  0.32724760504E+03  0.16413515783E+03 0.  0.
         24    2    5    5    0    0  0.19110479570E+03  0.32559431016E+02  0.86742205811E+02  0.22655901559E+03  0.78889909295E+02 0.  0.
          5    1    5    5  501    0  0.34353358778E+02 -0.43035854824E+02  0.84165693643E+02  0.10068858945E+03  0.47000000000E+01 0. -1.
        -13    1    6    6    0    0  0.66675023332E+02  0.22195229189E+02 -0.67204030572E+01  0.70592851992E+02  0.00000000000E+00 0.  1.
         14    1    6    6    0    0  0.12442977237E+03  0.10364201827E+02  0.93462608868E+02  0.15596616360E+03  0.00000000000E+00 0. -1.
         -5    1    3    3    0  503 -0.12529538624E+03  0.66499120236E+02 -0.25779782914E+03  0.29428366845E+03  0.47000000000E+01 0.  1.
         11    1    4    4    0    0 -0.32109864187E+02 -0.58758010046E+02 -0.13449663452E+03  0.15024277627E+03  0.00000000000E+00 0. -1.
        -12    1    4    4    0    0 -0.68052904046E+02  0.27353136186E+01 -0.22188850986E+03  0.23210598979E+03  0.00000000000E+00 0.  1.
</event>
<event>
12    1  0.8562501E-002  0.2141044E+03  0.7818608E-02  0.1138957E+00
         21   -1    0    0  503  502  0.00000000000E+00  0.00000000000E+00  0.10436958180E+03  0.10436958180E+03  0.00000000000E+00 0. -1.
         21   -1    0    0  501  503 -0.00000000000E+00 -0.00000000000E+00 -0.46077150782E+03  0.46077150782E+03  0.00000000000E+00 0.  1.
          6    2    1    2  501    0  0.12722160295E+03  0.13074069530E+02 -0.24647705322E+03  0.32446665791E+03  0.16784339958E+03 0.  0.
         24    2    3    3    0    0  0.12956155895E+03  0.24260537887E+02 -0.26310576814E+03  0.30374911393E+03  0.75260266620E+02 0.  0.
         -6    2    1    2    0  502 -0.12722160295E+03 -0.13074069530E+02 -0.10992487281E+03  0.24067443171E+03  0.17171032836E+03 0.  0.
        -24    2    5    5    0    0 -0.11447648838E+03  0.41662384881E+02 -0.11354523612E+03  0.18416147375E+03  0.78627648211E+02 0.  0.
          5    1    3    3  501    0 -0.23399559984E+01 -0.11186468357E+02  0.16628714924E+02  0.20717543976E+02  0.47000000000E+01 0. -1.
        -13    1    4    4    0    0  0.49173872928E+02  0.20142795136E+02 -0.39837075001E+02  0.66413812714E+02  0.00000000000E+00 0.  1.
         14    1    4    4    0    0  0.80387686020E+02  0.41177427503E+01 -0.22326869314E+03  0.23733530122E+03  0.00000000000E+00 0. -1.
         -5    1    5    5    0  502 -0.12745114571E+02 -0.54736454411E+02  0.36203633131E+01  0.56512957960E+02  0.47000000000E+01 0.  1.
         11    1    6    6    0    0 -0.11051191171E+03  0.45137515112E+02 -0.66156976996E+02  0.13648085399E+03  0.00000000000E+00 0. -1.
        -12    1    6    6    0    0 -0.39645766722E+01 -0.34751302303E+01 -0.47388259127E+02  0.47680619767E+02  0.00000000000E+00 0.  1.
</event>
<event>
12    1  0.8562501E-002  0.2017258E+03  0.7818608E-02  0.1148387E+00
         21   -1    0    0  501  502  0.00000000000E+00  0.00000000000E+00  0.16501164105E+04  0.16501164105E+04  0.00000000000E+00 0.  1.
         21   -1    0    0  502  503 -0.00000000000E+00 -0.00000000000E+00 -0.26035415205E+02  0.26035415205E+02  0.00000000000E+00 0.  1.
         -6    2    1    2    0  503  0.10035675022E+03 -0.25155061518E+02  0.61470018941E+03  0.64681080936E+03  0.17263732450E+03 0.  0.
        -24    2    3    3    0    0  0.97119937929E+02 -0.58415935398E+02  0.30651673974E+03  0.33678517924E+03  0.81406641988E+02 0.  0.
          6    2    1    2  501    0 -0.10035675022E+03  0.25155061518E+02  0.10093808059E+04  0.10293410163E+04  0.17317350318E+03 0.  0.
         24    2    5    5    0    0 -0.53192183083E+02 -0.30250788478E+02  0.82351771248E+03  0.82968760641E+03  0.80346642243E+02 0.  0.
          5    1    5    5  501    0 -0.47164567138E+02  0.55405849997E+02  0.18586309339E+03  0.19965340992E+03  0.47000000000E+01 0. -1.
        -11    1    6    6    0    0 -0.57436311276E+02 -0.51043627797E+02  0.71478549664E+03  0.71890380998E+03  0.00000000000E+00 0.  1.
         12    1    6    6    0    0  0.42441281932E+01  0.20792839319E+02  0.10873221584E+03  0.11078379644E+03  0.00000000000E+00 0. -1.
         -5    1    3    3    0  503  0.32368122928E+01  0.33260873880E+02  0.30818344967E+03  0.31002563013E+03  0.47000000000E+01 0.  1.
         11    1    4    4    0    0  0.67866560913E+02 -0.49385436724E+02  0.29019784210E+03  0.30209200421E+03  0.00000000000E+00 0. -1.
        -12    1    4    4    0    0  0.29253377015E+02 -0.90304986742E+01  0.16318897648E+02  0.34693175029E+02  0.00000000000E+00 0.  1.
</event>
<event>
12    1  0.8562501E-002  0.1821371E+03  0.7818608E-02  0.1165875E+00
         21   -1    0    0  503  502  0.00000000000E+00  0.00000000000E+00  0.78711638551E+03  0.78711638551E+03  0.00000000000E+00 0. -1.
         21   -1    0    0  501  503 -0.00000000000E+00 -0.00000000000E+00 -0.50436073697E+02  0.50436073697E+02  0.00000000000E+00 0. -1.
          6    2    1    2  501    0 -0.13426394401E+02  0.59069874262E+02  0.19688888879E+03  0.26786070077E+03  0.17121507637E+03 0.  0.
         24    2    3    3    0    0  0.54597841633E+02  0.90978529648E+01  0.10826637332E+03  0.14538400973E+03  0.79694463132E+02 0.  0.
         -6    2    1    2    0  502  0.13426394401E+02 -0.59069874262E+02  0.53979142302E+03  0.56969175844E+03  0.17176845213E+03 0.  0.
        -24    2    5    5    0    0  0.19129691287E+02 -0.65944641565E+02  0.16746795573E+03  0.19723149973E+03  0.78358837712E+02 0.  0.
          5    1    3    3  501    0 -0.68024236034E+02  0.49972021297E+02  0.88622515467E+02  0.12247669104E+03  0.47000000000E+01 0. -1.
        -11    1    4    4    0    0  0.25933820289E+02  0.17776178748E+02  0.11094631551E+03  0.11531539573E+03  0.00000000000E+00 0.  1.
         12    1    4    4    0    0  0.28664021343E+02 -0.86783257833E+01 -0.26799421925E+01  0.30068614004E+02  0.00000000000E+00 0. -1.
         -5    1    5    5    0  502 -0.57032968859E+01  0.68747673024E+01  0.37232346729E+03  0.37246025871E+03  0.47000000000E+01 0.  1.
         13    1    6    6    0    0  0.25261136068E+02 -0.48904313376E+02  0.17023398016E+03  0.17891161187E+03  0.00000000000E+00 0. -1.
        -14    1    6    6    0    0 -0.61314447814E+01 -0.17040328188E+02 -0.27660244263E+01  0.18319887854E+02  0.00000000000E+00 0.  1.
</event>
<event>
12    1  0.8562501E-002  0.1832346E+03  0.7818608E-02  0.1166535E+00
         21   -1    0    0  503  502  0.00000000000E+00  0.00000000000E+00  0.16257701421E+04  0.16257701421E+04  0.00000000000E+00 0.  1.
         21   -1    0    0  501  503 -0.00000000000E+00 -0.00000000000E+00 -0.41497811874E+02  0.41497811874E+02  0.00000000000E+00 0.  1.
          6    2    1    2  501    0 -0.81806639427E+00 -0.35478685428E+02  0.18157283109E+03  0.25265110950E+03  0.17205953559E+03 0.  0.
         24    2    3    3    0    0 -0.45703055380E+02  0.18642190259E+02  0.57837811718E+02  0.11025666986E+03  0.79843723956E+02 0.  0.
         -6    2    1    2    0  502  0.81806639427E+00  0.35478685428E+02  0.14026994992E+04  0.14146168445E+04  0.17976519532E+03 0.  0.
        -24    2    5    5    0    0  0.47337349365E+02  0.82713234911E+01  0.43124810361E+03  0.44166042814E+03  0.82339343421E+02 0.  0.
          5    1    3    3  501    0  0.44884988986E+02 -0.54120875688E+02  0.12373501937E+03  0.14239443964E+03  0.47000000000E+01 0. -1.
        -13    1    4    4    0    0 -0.16520430510E+02 -0.31224241965E+02  0.28879918798E+02  0.45628145046E+02  0.00000000000E+00 0.  1.
         14    1    4    4    0    0 -0.29182624870E+02  0.49866432224E+02  0.28957892920E+02  0.64628524813E+02  0.00000000000E+00 0. -1.
         -5    1    5    5    0  502 -0.46519282971E+02  0.27207361937E+02  0.97145139556E+03  0.97295641638E+03  0.47000000000E+01 0.  1.
         13    1    6    6    0    0 -0.22023938578E+02  0.18170061043E+01  0.60157314875E+02  0.64087892107E+02  0.00000000000E+00 0. -1.
        -14    1    6    6    0    0  0.69361287944E+02  0.64543173869E+01  0.37109078874E+03  0.37757253603E+03  0.00000000000E+00 0.  1.
</event>
<event>
12    1  0.8562501E-002  0.2055198E+03  0.7818608E-02  0.1145719E+00
         21   -1    0    0  503  502  0.00000000000E+00  0.00000000000E+00  0.45887932643E+03  0.45887932643E+03  0.00000000000E+00 0. -1.
         21   -1    0    0  501  503 -0.00000000000E+00 -0.00000000000E+00 -0.30636320532E+03  0.30636320532E+03  0.00000000000E+00 0.  1.
          6    2    1    2  501    0  0.11076964721E+03 -0.18715035371E+02 -0.24481178970E+03  0.31790835839E+03  0.16885717239E+03 0.  0.
         24    2    3    3    0    0  0.67955390212E+02 -0.66939346974E+02 -0.21127872160E+03  0.24507154429E+03  0.79514479113E+02 0.  0.
         -6    2    1    2    0  502 -0.11076964721E+03  0.18715035371E+02  0.39732791081E+03  0.44733417335E+03  0.17209946730E+03 0.  0.
        -24    2    5    5    0    0 -0.12784255122E+03  0.43252651479E+02  0.38376893699E+03  0.41417524655E+03  0.77769069012E+02 0.  0.
          5    1    3    3  501    0  0.42814257001E+02  0.48224311603E+02 -0.33533068099E+02  0.72836814100E+02  0.47000000000E+01 0. -1.
        -11    1    4    4    0    0  0.97136180316E+01 -0.41628000450E+02 -0.15306848316E+03  0.15892515639E+03  0.00000000000E+00 0.  1.
         12    1    4    4    0    0  0.58241772180E+02 -0.25311346524E+02 -0.58210238445E+02  0.86146387907E+02  0.00000000000E+00 0. -1.
         -5    1    5    5    0  502  0.17072904005E+02 -0.24537616108E+02  0.13558973821E+02  0.33158926800E+02  0.47000000000E+01 0.  1.
         11    1    6    6    0    0 -0.28501122194E+02  0.74901327160E+01  0.20061600760E+03  0.20276883034E+03  0.00000000000E+00 0. -1.
        -12    1    6    6    0    0 -0.99341429024E+02  0.35762518763E+02  0.18315292940E+03  0.21140641621E+03  0.00000000000E+00 0.  1.
</event>
<event>
12    1  0.8562501E-002  0.3103540E+03  0.7818608E-02  0.1081346E+00
         21   -1    0    0  501  502  0.00000000000E+00  0.00000000000E+00  0.32058924531E+03  0.32058924531E+03  0.00000000000E+00 0.  1.
         21   -1    0    0  502  503 -0.00000000000E+00 -0.00000000000E+00 -0.37507970308E+03  0.37507970308E+03  0.00000000000E+00 0. -1.
         -6    2    1    2    0  503  0.23038119960E+03 -0.88699227406E+02  0.13688201559E+03  0.33919950355E+03  0.18808659427E+03 0.  0.
        -24    2    3    3    0    0  0.10550887004E+03  0.22349067909E+02  0.21221922270E+02  0.13591603209E+03  0.79944951692E+02 0.  0.
          6    2    1    2  501    0 -0.23038119960E+03  0.88699227406E+02 -0.19137247335E+03  0.35646944484E+03  0.17176725961E+03 0.  0.
         24    2    5    5    0    0 -0.21629809558E+03  0.48859419904E+02 -0.99353719725E+02  0.25510335041E+03  0.77681714064E+02 0.  0.
          5    1    5    5  501    0 -0.14083104019E+02  0.39839807502E+02 -0.92018753628E+02  0.10136609443E+03  0.47000000000E+01 0. -1.
        -11    1    6    6    0    0 -0.52215618668E+02  0.45589648746E+02 -0.16474174189E+02  0.71248054857E+02  0.00000000000E+00 0.  1.
         12    1    6    6    0    0 -0.16408247692E+03  0.32697711583E+01 -0.82879545536E+02  0.18385529555E+03  0.00000000000E+00 0. -1.
         -5    1    3    3    0  503  0.12487232957E+03 -0.11104829532E+03  0.11566009332E+03  0.20328347146E+03  0.47000000000E+01 0.  1.
         11    1    4    4    0    0  0.42863593549E+01 -0.17746709249E+02 -0.12281081323E+02  0.22003261670E+02  0.00000000000E+00 0. -1.
        -12    1    4    4    0    0  0.10122251068E+03  0.40095777158E+02  0.33503003593E+02  0.11391277042E+03  0.00000000000E+00 0.  1.
</event>
<event>
12    1  0.8562501E-002  0.2303468E+03  0.7818608E-02  0.1126415E+00
         21   -1    0    0  503  502  0.00000000000E+00  0.00000000000E+00  0.33526818981E+03  0.33526818981E+03  0.00000000000E+00 0. -1.
         21   -1    0    0  501  503 -0.00000000000E+00 -0.00000000000E+00 -0.28445707275E+03  0.28445707275E+03  0.00000000000E+00 0.  1.
          6    2    1    2  501    0  0.14524845216E+03  0.46893315276E+02 -0.18103984846E+03  0.29297625631E+03  0.17252119917E+03 0.  0.
         24    2    3    3    0    0  0.10882655427E+03  0.89935508477E+02 -0.88084774702E+02  0.18415566645E+03  0.78884519091E+02 0.  0.
         -6    2    1    2    0  502 -0.14524845216E+03 -0.46893315276E+02  0.23185096552E+03  0.32674900625E+03  0.17237733899E+03 0.  0.
        -24    2    5    5    0    0 -0.15745722543E+03 -0.23037129896E+02  0.12772721235E+03  0.21912922321E+03  0.79874204201E+02 0.  0.
          5    1    3    3  501    0  0.36421897885E+02 -0.43042193201E+02 -0.92955073755E+02  0.10882058986E+03  0.47000000000E+01 0. -1.
        -11    1    4    4    0    0  0.15191320471E+02  0.61533637670E+02 -0.27657734654E+02  0.69152838472E+02  0.00000000000E+00 0.  1.
         12    1    4    4    0    0  0.93635233801E+02  0.28401870807E+02 -0.60427040048E+02  0.11500282798E+03  0.00000000000E+00 0. -1.
         -5    1    5    5    0  502  0.12208773272E+02 -0.23856185380E+02  0.10412375317E+03  0.10761978303E+03  0.47000000000E+01 0.  1.
         11    1    6    6    0    0 -0.10357254067E+03 -0.21086296058E+02  0.12696619341E+03  0.16520386597E+03  0.00000000000E+00 0. -1.
        -12    1    6    6    0    0 -0.53884684759E+02 -0.19508338380E+01  0.76101894647E+00  0.53925357246E+02  0.00000000000E+00 0.  1.
</event>
<event>
12    1  0.8562501E-002  0.2537601E+03  0.7818608E-02  0.1111208E+00
         21   -1    0    0  503  502  0.00000000000E+00  0.00000000000E+00  0.46450910684E+02  0.46450910684E+02  0.00000000000E+00 0. -1.
         21   -1    0    0  501  503 -0.00000000000E+00 -0.00000000000E+00 -0.14104703527E+04  0.14104703527E+04  0.00000000000E+00 0.  1.
          6    2    1    2  501    0  0.18313720375E+03 -0.16826688137E+02 -0.79155841144E+03  0.83073772197E+03  0.17244729963E+03 0.  0.
         24    2    3    3    0    0  0.15984760027E+02  0.12443653345E+02 -0.26170586712E+03  0.27435431006E+03  0.79812088673E+02 0.  0.
         -6    2    1    2    0  502 -0.18313720375E+03  0.16826688137E+02 -0.57246103059E+03  0.62618354143E+03  0.17484800023E+03 0.  0.
        -24    2    5    5    0    0 -0.11444671054E+03  0.29698934509E+02 -0.20774767200E+03  0.25480502493E+03  0.88240745938E+02 0.  0.
          5    1    3    3  501    0  0.16715244372E+03 -0.29270341483E+02 -0.52985254431E+03  0.55638341191E+03  0.47000000000E+01 0. -1.
        -11    1    4    4    0    0  0.31122903005E+02 -0.17880375148E+02 -0.20633747240E+03  0.20943613686E+03  0.00000000000E+00 0.  1.
         12    1    4    4    0    0 -0.15138142978E+02  0.30324028494E+02 -0.55368394728E+02  0.64918173200E+02  0.00000000000E+00 0. -1.
         -5    1    5    5    0  502 -0.68690493205E+02 -0.12872246372E+02 -0.36471335859E+03  0.37137851650E+03  0.47000000000E+01 0.  1.
         13    1    6    6    0    0 -0.82985969035E+02 -0.21066378596E+02 -0.14338020048E+03  0.16699803967E+03  0.00000000000E+00 0. -1.
        -14    1    6    6    0    0 -0.31460741506E+02  0.50765313105E+02 -0.64367471524E+02  0.87806985264E+02  0.00000000000E+00 0.  1.
</event>
<event>
12    1  0.8562501E-002  0.2218503E+03  0.7818608E-02  0.1132606E+00
         21   -1    0    0  501  502  0.00000000000E+00  0.00000000000E+00  0.14251412756E+04  0.14251412756E+04  0.00000000000E+00 0. -1.
         21   -1    0    0  502  503 -0.00000000000E+00 -0.00000000000E+00 -0.49078653786E+02  0.49078653786E+02  0.00000000000E+00 0.  1.
         -6    2    1    2    0  503  0.69630625642E+01  0.13833778043E+03  0.10898290414E+04  0.11120774053E+04  0.17263542551E+03 0.  0.
        -24    2    3    3    0    0  0.64584043860E+02  0.74123797118E+02  0.48371970252E+03  0.49984033207E+03  0.78677639413E+02 0.  0.
          6    2    1    2  501    0 -0.69630625642E+01 -0.13833778043E+03  0.28623358043E+03  0.36214252412E+03  0.17329662279E+03 0.  0.
         24    2    5    5    0    0  0.43639282558E+02 -0.13840760841E+03  0.24875727963E+03  0.29899851942E+03  0.80367141262E+02 0.  0.
          5    1    5    5  501    0 -0.50602345122E+02  0.69827978354E-01  0.37476300800E+02  0.63144004699E+02  0.47000000000E+01 0. -1.
        -11    1    6    6    0    0  0.22506160964E+02 -0.12186067502E+03  0.24110746272E+03  0.27108921036E+03  0.00000000000E+00 0.  1.
         12    1    6    6    0    0  0.21133121594E+02 -0.16546933392E+02  0.76498169157E+01  0.27909309053E+02  0.00000000000E+00 0. -1.
         -5    1    3    3    0  503 -0.57620981296E+02  0.64213983314E+02  0.60610933886E+03  0.61223707319E+03  0.47000000000E+01 0.  1.
         13    1    4    4    0    0  0.24529632368E+02  0.14612326465E+02  0.31776349950E+03  0.31904367187E+03  0.00000000000E+00 0. -1.
        -14    1    4    4    0    0  0.40054411492E+02  0.59511470653E+02  0.16595620302E+03  0.18079666020E+03  0.00000000000E+00 0.  1.
</event>
<event>
12    1  0.8562501E-002  0.1892447E+03  0.7818608E-02  0.1159168E+00
         21   -1    0    0  503  502  0.00000000000E+00  0.00000000000E+00  0.34614850163E+03  0.34614850163E+03  0.00000000000E+00 0. -1.
         21   -1    0    0  501  503 -0.00000000000E+00 -0.00000000000E+00 -0.10470084726E+03  0.10470084726E+03  0.00000000000E+00 0. -1.
          6    2    1    2  501    0  0.79329664131E+02  0.46436081570E+01  0.14576821330E+03  0.23879251565E+03  0.17163547073E+03 0.  0.
         24    2    3    3    0    0  0.57042817986E+02 -0.21572436628E+02  0.16878282981E+03  0.19713021748E+03  0.81568534974E+02 0.  0.
         -6    2    1    2    0  502 -0.79329664131E+02 -0.46436081570E+01  0.95679441074E+02  0.21205683324E+03  0.17175210733E+03 0.  0.
        -24    2    5    5    0    0 -0.75292971472E+02 -0.55029619892E+02  0.28379867700E+02  0.12775755897E+03  0.82578970476E+02 0.  0.
          5    1    3    3  501    0  0.22286846145E+02  0.26216044785E+02 -0.23014616516E+02  0.41662298168E+02  0.47000000000E+01 0. -1.
        -11    1    4    4    0    0 -0.12682324342E+02 -0.76034183593E+01  0.90726504899E+00  0.14814737640E+02  0.00000000000E+00 0.  1.
         12    1    4    4    0    0  0.69725142328E+02 -0.13969018269E+02  0.16787556477E+03  0.18231547984E+03  0.00000000000E+00 0. -1.
         -5    1    5    5    0  502 -0.40366926585E+01  0.50386011735E+02  0.67299573374E+02  0.84299274270E+02  0.47000000000E+01 0.  1.
         11    1    6    6    0    0 -0.35894948053E+02 -0.48302400789E+02  0.53523901598E+02  0.80538048523E+02  0.00000000000E+00 0. -1.
        -12    1    6    6    0    0 -0.39398023420E+02 -0.67272191035E+01 -0.25144033898E+02  0.47219510447E+02  0.00000000000E+00 0.  1.
</event>
<event>
12    1  0.8562501E-002  0.4011444E+03  0.7818608E-02  0.1043499E+00
         21   -1    0    0  503  502  0.00000000000E+00  0.00000000000E+00  0.41943162871E+03  0.41943162871E+03  0.00000000000E+00 0. -1.
         21   -1    0    0  501  503 -0.00000000000E+00 -0.00000000000E+00 -0.39064354424E+03  0.39064354424E+03  0.00000000000E+00 0. -1.
          6    2    1    2  501    0  0.12305288873E+02  0.36169083766E+03  0.73326270237E+02  0.40779109018E+03  0.17304666751E+03 0.  0.
         24    2    3    3    0    0  0.29562728646E+02  0.89981636815E+02  0.47265965449E+02  0.13424961519E+03  0.82572621368E+02 0.  0.
         -6    2    1    2    0  502 -0.12305288873E+02 -0.36169083766E+03 -0.44538185768E+02  0.40228408277E+03  0.16993278398E+03 0.  0.
        -24    2    5    5    0    0 -0.38848385883E+02 -0.88697955487E+02  0.29484067122E+02  0.11815201200E+03  0.60943115536E+02 0.  0.
          5    1    3    3  501    0 -0.17257439773E+02  0.27170920085E+03  0.26060304788E+02  0.27354147499E+03  0.47000000000E+01 0. -1.
        -11    1    4    4    0    0 -0.27756000150E+02  0.16259236630E+02  0.14501382004E+02  0.35285243377E+02  0.00000000000E+00 0.  1.
         12    1    4    4    0    0  0.57318728796E+02  0.73722400185E+02  0.32764583445E+02  0.98964371812E+02  0.00000000000E+00 0. -1.
         -5    1    5    5    0  502  0.26543097010E+02 -0.27299288218E+03 -0.74022252889E+02  0.28413207077E+03  0.47000000000E+01 0.  1.
         13    1    6    6    0    0  0.74496449236E+01 -0.31186313271E+02 -0.11063747616E+02  0.33918871683E+02  0.00000000000E+00 0. -1.
        -14    1    6    6    0    0 -0.46298030807E+02 -0.57511642216E+02  0.40547814737E+02  0.84233140313E+02  0.00000000000E+00 0.  1.
</event>
<event>
12    1  0.8562501E-002  0.1748896E+03  0.7818608E-02  0.1175042E+00
         21   -1    0    0  503  502  0.00000000000E+00  0.00000000000E+00  0.28723226800E+03  0.28723226800E+03  0.00000000000E+00 0. -1.
         21   -1    0    0  501  503 -0.00000000000E+00 -0.00000000000E+00 -0.11020874411E+03  0.11020874411E+03  0.00000000000E+00 0. -1.
          6    2    1    2  501    0 -0.32881941978E+02 -0.10060830018E+02  0.30185766061E+02  0.16908230675E+03  0.16277347319E+03 0.  0.
         24    2    3    3    0    0 -0.22171972892E+02 -0.68009492326E+02  0.15581179644E+02  0.10818785014E+03  0.79655196510E+02 0.  0.
         -6    2    1    2    0  502  0.32881941978E+02  0.10060830018E+02  0.14683775784E+03  0.22835870536E+03  0.17147573816E+03 0.  0.
        -24    2    5    5    0    0  0.74069179460E+02  0.47439962455E+02  0.92139313119E+02  0.15020758299E+03  0.79598188308E+02 0.  0.
          5    1    3    3  501    0 -0.10709969086E+02  0.57948662308E+02  0.14604586417E+02  0.60894456607E+02  0.47000000000E+01 0. -1.
        -11    1    4    4    0    0  0.13977689721E+02 -0.25253964414E+02  0.38134509603E+02  0.47826554876E+02  0.00000000000E+00 0.  1.
         12    1    4    4    0    0 -0.36149662614E+02 -0.42755527911E+02 -0.22553329960E+02  0.60361295267E+02  0.00000000000E+00 0. -1.
         -5    1    5    5    0  502 -0.41187237482E+02 -0.37379132438E+02  0.54698444718E+02  0.78151122370E+02  0.47000000000E+01 0.  1.
         13    1    6    6    0    0  0.56104062468E+02 -0.10823702677E+02  0.51603291112E+02  0.76991674996E+02  0.00000000000E+00 0. -1.
        -14    1    6    6    0    0  0.17965116992E+02  0.58263665133E+02  0.40536022006E+02  0.73215907994E+02  0.00000000000E+00 0.  1.
</event>
<event>
12    1  0.8562501E-002  0.1793253E+03  0.7818608E-02  0.1168692E+00
         21   -1    0    0  503  502  0.00000000000E+00  0.00000000000E+00  0.77541179299E+03  0.77541179299E+03  0.00000000000E+00 0.  1.
         21   -1    0    0  501  503 -0.00000000000E+00 -0.00000000000E+00 -0.42021411670E+02  0.42021411670E+02  0.00000000000E+00 0.  1.
          6    2    1    2  501    0 -0.35129924497E+02  0.34077383996E+02  0.31226217358E+03  0.36009058748E+03  0.17251720624E+03 0.  0.
         24    2    3    3    0    0 -0.70804770453E+02  0.96425196071E+01  0.29385137195E+03  0.31285919063E+03  0.80162027562E+02 0.  0.
         -6    2    1    2    0  502  0.35129924497E+02 -0.34077383996E+02  0.42112820774E+03  0.45734261718E+03  0.17151653692E+03 0.  0.
        -24    2    5    5    0    0 -0.29376708746E+02  0.21421582220E+02  0.25128795104E+03  0.26731881925E+03  0.83617232580E+02 0.  0.
          5    1    3    3  501    0  0.35674845957E+02  0.24434864389E+02  0.18410801627E+02  0.47231396849E+02  0.47000000000E+01 0. -1.
        -13    1    4    4    0    0 -0.16877694204E+02 -0.33107314432E+02  0.12833578939E+03  0.13360773057E+03  0.00000000000E+00 0.  1.
         14    1    4    4    0    0 -0.53927076249E+02  0.42749834040E+02  0.16551558256E+03  0.17925146006E+03  0.00000000000E+00 0. -1.
         -5    1    5    5    0  502  0.64506633243E+02 -0.55498966216E+02  0.16984025670E+03  0.19002379793E+03  0.47000000000E+01 0.  1.
         13    1    6    6    0    0 -0.35774656707E+02  0.49429719229E+02  0.19150790860E+03  0.20099353786E+03  0.00000000000E+00 0. -1.
        -14    1    6    6    0    0  0.63979479612E+01 -0.28008137010E+02  0.59780042449E+02  0.66325281395E+02  0.00000000000E+00 0.  1.
</event>
<event>
12    1  0.8562501E-002  0.1899643E+03  0.7818608E-02  0.1160311E+00
         21   -1    0    0  503  502  0.00000000000E+00  0.00000000000E+00  0.15764448278E+04  0.15764448278E+04  0.00000000000E+00 0. -1.
         21   -1    0    0  501  503 -0.00000000000E+00 -0.00000000000E+00 -0.27335965537E+02  0.27335965537E+02  0.00000000000E+00 0. -1.
          6    2    1    2  501    0 -0.49464464804E+02  0.37072402168E+02  0.43189978507E+03  0.47183034681E+03  0.17962559827E+03 0.  0.
         24    2    3    3    0    0 -0.26006563870E+02 -0.26765275414E+02  0.36865003315E+03  0.37883495278E+03  0.78869215602E+02 0.  0.
         -6    2    1    2    0  502  0.49464464804E+02 -0.37072402168E+02  0.11172090772E+04  0.11319504465E+04  0.17127345075E+03 0.  0.
        -24    2    5    5    0    0  0.30547697828E+02  0.33210212723E+02  0.37799361387E+03  0.38914557224E+03  0.80740474357E+02 0.  0.
          5    1    3    3  501    0 -0.23457900934E+02  0.63837677582E+02  0.63249751914E+02  0.92995394039E+02  0.47000000000E+01 0. -1.
        -13    1    4    4    0    0 -0.20008335003E+02 -0.11947026760E+02  0.35981677140E+03  0.36057062263E+03  0.00000000000E+00 0.  1.
         14    1    4    4    0    0 -0.59982288671E+01 -0.14818248654E+02  0.88332617486E+01  0.18264330150E+02  0.00000000000E+00 0. -1.
         -5    1    5    5    0  502  0.18916766976E+02 -0.70282614891E+02  0.73921546336E+03  0.74280487431E+03  0.47000000000E+01 0.  1.
         11    1    6    6    0    0  0.49722837801E+02  0.46550521177E+02  0.30467806081E+03  0.31219870653E+03  0.00000000000E+00 0. -1.
        -12    1    6    6    0    0 -0.19175139973E+02 -0.13340308454E+02  0.73315553061E+02  0.76946865715E+02  0.00000000000E+00 0.  1.
</event>
<event>
12    1  0.8562501E-002  0.1931441E+03  0.7818608E-02  0.1155964E+00
         21   -1    0    0  503  502  0.00000000000E+00  0.00000000000E+00  0.70298284099E+03  0.70298284099E+03  0.00000000000E+00 0.  1.
         21   -1    0    0  501  503 -0.00000000000E+00 -0.00000000000E+00 -0.52723359856E+02  0.52723359856E+02  0.00000000000E+00 0. -1.
          6    2    1    2  501    0 -0.22570882054E+02 -0.84863575706E+02  0.31602434659E+03  0.37037284759E+03  0.17202728678E+03 0.  0.
         24    2    3    3    0    0  0.42587605291E+02 -0.49455377988E+02  0.10533993895E+03  0.14696877743E+03  0.79017594667E+02 0.  0.
         -6    2    1    2    0  502  0.22570882054E+02  0.84863575706E+02  0.33423513454E+03  0.38533335325E+03  0.17046230307E+03 0.  0.
        -24    2    5    5    0    0 -0.39083996009E+02  0.45279287700E+02  0.10790455790E+03  0.14739247873E+03  0.80643515125E+02 0.  0.
          5    1    3    3  501    0 -0.65158487346E+02 -0.35408197718E+02  0.21068440764E+03  0.22340407016E+03  0.47000000000E+01 0. -1.
        -11    1    4    4    0    0  0.27290457614E+02  0.17236879477E+02  0.47189053530E+02  0.57172422233E+02  0.00000000000E+00 0.  1.
         12    1    4    4    0    0  0.15297147677E+02 -0.66692257465E+02  0.58150885416E+02  0.89796355202E+02  0.00000000000E+00 0. -1.
         -5    1    5    5    0  502  0.61654878063E+02  0.39584288006E+02  0.22633057664E+03  0.23794087452E+03  0.47000000000E+01 0.  1.
         13    1    6    6    0    0  0.23327373275E+02  0.10547985347E+02  0.13288996070E+02  0.28844821985E+02  0.00000000000E+00 0. -1.
        -14    1    6    6    0    0 -0.62411369284E+02  0.34731302353E+02  0.94615561830E+02  0.11854765674E+03  0.00000000000E+00 0.  1.
</event>
<event>
12    1  0.8562501E-002  0.2238445E+03  0.7818608E-02  0.1131177E+00
         21   -1    0    0  501  502  0.00000000000E+00  0.00000000000E+00  0.17698881311E+03  0.17698881311E+03  0.00000000000E+00 0.  1.
         21   -1    0    0  502  503 -0.00000000000E+00 -0.00000000000E+00 -0.43723335918E+03  0.43723335918E+03  0.00000000000E+00 0. -1.
         -6    2    1    2    0  503  0.80739071083E+02 -0.11780479188E+03 -0.31285273895E+03  0.38427875599E+03  0.17145424887E+03 0.  0.
        -24    2    3    3    0    0  0.71800017395E+02 -0.14102090731E+03 -0.19875858933E+03  0.26740934309E+03  0.83430456924E+02 0.  0.
          6    2    1    2  501    0 -0.80739071083E+02  0.11780479188E+03  0.52608192875E+02  0.22994341630E+03  0.17236468940E+03 0.  0.
         24    2    5    5    0    0 -0.92180263157E+02  0.92296087379E+02  0.94851012575E+02  0.17906964410E+03  0.77803947144E+02 0.  0.
          5    1    5    5  501    0  0.11441192074E+02  0.25508704498E+02 -0.42242819700E+02  0.50873772196E+02  0.47000000000E+01 0. -1.
        -11    1    6    6    0    0 -0.56387387966E+02  0.98739202830E+02  0.83152452279E+02  0.14086624158E+03  0.00000000000E+00 0.  1.
         12    1    6    6    0    0 -0.35792875191E+02 -0.64431154516E+01  0.11698560296E+02  0.38203402520E+02  0.00000000000E+00 0. -1.
         -5    1    3    3    0  503  0.89390536884E+01  0.23216115431E+02 -0.11409414962E+03  0.11686941291E+03  0.47000000000E+01 0.  1.
         11    1    4    4    0    0  0.37334802119E+02 -0.12531371804E+03 -0.18616103146E+03  0.22749361532E+03  0.00000000000E+00 0. -1.
        -12    1    4    4    0    0  0.34465215276E+02 -0.15707189267E+02 -0.12597557868E+02  0.39915727764E+02  0.00000000000E+00 0.  1.
</event>
<event>
12    1  0.8562501E-002  0.4188435E+03  0.7818608E-02  0.1037534E+00
         21   -1    0    0  501  502  0.00000000000E+00  0.00000000000E+00  0.51790615829E+03  0.51790615829E+03  0.00000000000E+00 0.  1.
         21   -1    0    0  502  503 -0.00000000000E+00 -0.00000000000E+00 -0.46213948468E+03  0.46213948468E+03  0.00000000000E+00 0.  1.
         -6    2    1    2    0  503  0.34903141353E+03  0.15201575181E+03 -0.22628294737E+03  0.47508832439E+03  0.17196868108E+03 0.  0.
        -24    2    3    3    0    0  0.87752050286E+02  0.32228019325E+02 -0.26237102396E+02  0.12486491483E+03  0.78509832854E+02 0.  0.
          6    2    1    2  501    0 -0.34903141353E+03 -0.15201575181E+03  0.28204962099E+03  0.50495731858E+03  0.17463730546E+03 0.  0.
         24    2    5    5    0    0 -0.30989318075E+03 -0.14573308847E+03  0.17929871670E+03  0.39472523860E+03  0.79925387869E+02 0.  0.
          5    1    5    5  501    0 -0.39138232774E+02 -0.62826633345E+01  0.10275090429E+03  0.11023207998E+03  0.47000000000E+01 0. -1.
        -13    1    6    6    0    0 -0.79075693777E+02 -0.76363205263E+02  0.44680533369E+02  0.11866193377E+03  0.00000000000E+00 0.  1.
         14    1    6    6    0    0 -0.23081748698E+03 -0.69369883212E+02  0.13461818333E+03  0.27606330483E+03  0.00000000000E+00 0. -1.
         -5    1    3    3    0  503  0.26127936324E+03  0.11978773248E+03 -0.20004584498E+03  0.35022340956E+03  0.47000000000E+01 0.  1.
         11    1    4    4    0    0  0.38559912452E+02 -0.63037358310E+00 -0.48229456539E+02  0.61752284955E+02  0.00000000000E+00 0. -1.
        -12    1    4    4    0    0  0.49192137834E+02  0.32858392908E+02  0.21992354143E+02  0.63112629876E+02  0.00000000000E+00 0.  1.
</event>
<event>
12    1  0.8562501E-002  0.2536532E+03  0.7818608E-02  0.1112144E+00
         21   -1    0    0  501  502  0.00000000000E+00  0.00000000000E+00  0.67274091156E+02  0.67274091156E+02  0.00000000000E+00 0. -1.
         21   -1    0    0  502  503 -0.00000000000E+00 -0.00000000000E+00 -0.93023759895E+03  0.93023759895E+03  0.00000000000E+00 0. -1.
         -6    2    1    2    0  503  0.50188289477E+02 -0.16910909612E+03 -0.43838635064E+03  0.50293540719E+03  0.17217630668E+03 0.  0.
        -24    2    3    3    0    0  0.86065442262E+02 -0.12222038258E+03 -0.39415906705E+03  0.42901745156E+03  0.79683883821E+02 0.  0.
          6    2    1    2  501    0 -0.50188289477E+02  0.16910909612E+03 -0.42457715715E+03  0.49457628292E+03  0.18227228658E+03 0.  0.
         24    2    5    5    0    0  0.15467866364E+02  0.12055864923E+02 -0.12345121599E+03  0.14863500080E+03  0.80421153715E+02 0.  0.
          5    1    5    5  501    0 -0.65656155842E+02  0.15705323120E+03 -0.30112594117E+03  0.34594128212E+03  0.47000000000E+01 0. -1.
        -13    1    6    6    0    0 -0.16939572747E+02 -0.18116362796E+02 -0.89401558445E+02  0.92778178351E+02  0.00000000000E+00 0.  1.
         14    1    6    6    0    0  0.32407439111E+02  0.30172227719E+02 -0.34049657545E+02  0.55856822450E+02  0.00000000000E+00 0. -1.
         -5    1    3    3    0  503 -0.35877152785E+02 -0.46888713546E+02 -0.44227283595E+02  0.73917955627E+02  0.47000000000E+01 0.  1.
         11    1    4    4    0    0  0.84766170022E+02 -0.13330221530E+03 -0.37361541870E+03  0.40563932906E+03  0.00000000000E+00 0. -1.
        -12    1    4    4    0    0  0.12992722398E+01  0.11081832718E+02 -0.20543648343E+02  0.23378122508E+02  0.00000000000E+00 0.  1.
</event>
<event>
12    1  0.8562501E-002  0.1747967E+03  0.7818608E-02  0.1172969E+00
         21   -1    0    0  503  502  0.00000000000E+00  0.00000000000E+00  0.58724959888E+03  0.58724959888E+03  0.00000000000E+00 0. -1.
         21   -1    0    0  501  503 -0.00000000000E+00 -0.00000000000E+00 -0.57758831443E+02  0.57758831443E+02  0.00000000000E+00 0. -1.
          6    2    1    2  501    0  0.10360801727E+02 -0.31616528172E+02  0.16273575521E+03  0.23872882243E+03  0.17146887056E+03 0.  0.
         24    2    3    3    0    0  0.12576262509E+01 -0.20095445018E+02  0.19017333260E+03  0.20725639300E+03  0.79899358414E+02 0.  0.
         -6    2    1    2    0  502 -0.10360801727E+02  0.31616528172E+02  0.36675501223E+03  0.40627960789E+03  0.17160107730E+03 0.  0.
        -24    2    5    5    0    0  0.11720961593E+02  0.54088949732E+02  0.36110390203E+03  0.37392780657E+03  0.79768295984E+02 0.  0.
          5    1    3    3  501    0  0.91031754760E+01 -0.11521083154E+02 -0.27437577392E+02  0.31472429425E+02  0.47000000000E+01 0. -1.
        -11    1    4    4    0    0 -0.32714760321E+02  0.12722288291E+02  0.85039955151E+02  0.91999489859E+02  0.00000000000E+00 0.  1.
         12    1    4    4    0    0  0.33972386572E+02 -0.32817733309E+02  0.10513337745E+03  0.11525690315E+03  0.00000000000E+00 0. -1.
         -5    1    5    5    0  502 -0.22081763320E+02 -0.22472421560E+02  0.56511101977E+01  0.32351801318E+02  0.47000000000E+01 0.  1.
         11    1    6    6    0    0  0.18504680795E+01  0.70639415896E+02  0.20932635444E+03  0.22093183105E+03  0.00000000000E+00 0. -1.
        -12    1    6    6    0    0  0.98704935134E+01 -0.16550466164E+02  0.15177754759E+03  0.15299597552E+03  0.00000000000E+00 0.  1.
</event>
<event>
12    1  0.8562501E-002  0.1798626E+03  0.7818608E-02  0.1168871E+00
         21   -1    0    0  503  502  0.00000000000E+00  0.00000000000E+00  0.75978679341E+03  0.75978679341E+03  0.00000000000E+00 0. -1.
         21   -1    0    0  501  503 -0.00000000000E+00 -0.00000000000E+00 -0.57039577987E+02  0.57039577987E+02  0.00000000000E+00 0. -1.
          6    2    1    2  501    0 -0.37388715081E+02 -0.26743496392E+02  0.13669379932E+03  0.22288443480E+03  0.16993865331E+03 0.  0.
         24    2    3    3    0    0  0.44580250563E+02 -0.10830205020E+02  0.80765028196E+02  0.12227498390E+03  0.79520373665E+02 0.  0.
         -6    2    1    2    0  502  0.37388715081E+02  0.26743496392E+02  0.56605341611E+03  0.59394193660E+03  0.17388911279E+03 0.  0.
        -24    2    5    5    0    0  0.31699936014E+01 -0.28164194472E+02  0.47332443001E+03  0.48077599526E+03  0.79412032255E+02 0.  0.
          5    1    3    3  501    0 -0.81968965644E+02 -0.15913291371E+02  0.55928771125E+02  0.10060945090E+03  0.47000000000E+01 0. -1.
        -11    1    4    4    0    0 -0.22612151081E+02 -0.96679589088E+01  0.22457738760E+02  0.33303585936E+02  0.00000000000E+00 0.  1.
         12    1    4    4    0    0  0.67192401644E+02 -0.11622461115E+01  0.58307289435E+02  0.88971397966E+02  0.00000000000E+00 0. -1.
         -5    1    5    5    0  502  0.34218721479E+02  0.54907690864E+02  0.92728986097E+02  0.11316594133E+03  0.47000000000E+01 0.  1.
         11    1    6    6    0    0 -0.18543823919E+00  0.27988744551E+02  0.16699410284E+03  0.16932346143E+03  0.00000000000E+00 0. -1.
        -12    1    6    6    0    0  0.33554318406E+01 -0.56152939024E+02  0.30633032717E+03  0.31145253383E+03  0.00000000000E+00 0.  1.
</event>
<event>
12    1  0.8562501E-002  0.1944025E+03  0.7818608E-02  0.1154973E+00
         21   -1    0    0  501  502  0.00000000000E+00  0.00000000000E+00  0.21889525518E+03  0.21889525518E+03  0.00000000000E+00 0.  1.
         21   -1    0    0  502  503 -0.00000000000E+00 -0.00000000000E+00 -0.17191238531E+03  0.17191238531E+03  0.00000000000E+00 0.  1.
         -6    2    1    2    0  503  0.84403983645E+02 -0.23492411718E+02  0.38038083182E+02  0.19619942450E+03  0.17138084064E+03 0.  0.
        -24    2    3    3    0    0  0.11458782563E+03  0.11704537162E+02  0.68005199904E+01  0.14009447925E+03  0.79453445949E+02 0.  0.
          6    2    1    2  501    0 -0.84403983645E+02  0.23492411718E+02  0.89447866927E+01  0.19460821599E+03  0.17354083859E+03 0.  0.
         24    2    5    5    0    0  0.19901114169E+02  0.24305264165E+02 -0.14136031633E+02  0.87673524082E+02  0.80622696701E+02 0.  0.
          5    1    5    5  501    0 -0.10430509781E+03 -0.81285244672E+00  0.23080818326E+02  0.10693469191E+03  0.47000000000E+01 0. -1.
        -13    1    6    6    0    0 -0.28726145198E+02  0.29172989351E+01  0.82454969814E+01  0.30028157977E+02  0.00000000000E+00 0.  1.
         14    1    6    6    0    0  0.48627259367E+02  0.21387965229E+02 -0.22381528615E+02  0.57645366105E+02  0.00000000000E+00 0. -1.
         -5    1    3    3    0  503 -0.30183841982E+02 -0.35196948880E+02  0.31237563192E+02  0.56104945249E+02  0.47000000000E+01 0.  1.
         13    1    4    4    0    0  0.88474852435E+02  0.38138716994E+02 -0.14243162067E+02  0.97392139894E+02  0.00000000000E+00 0. -1.
        -14    1    4    4    0    0  0.26112973192E+02 -0.26434179832E+02  0.21043682058E+02  0.42702339360E+02  0.00000000000E+00 0.  1.
</event>
<event>
12    1  0.8562501E-002  0.2154552E+03  0.7818608E-02  0.1137532E+00
         21   -1    0    0  501  502  0.00000000000E+00  0.00000000000E+00  0.13459813283E+03  0.13459813283E+03  0.00000000000E+00 0.  1.
         21   -1    0    0  502  503 -0.00000000000E+00 -0.00000000000E+00 -0.40268903801E+03  0.40268903801E+03  0.00000000000E+00 0.  1.
         -6    2    1    2    0  503 -0.14565087760E+02 -0.12895469772E+03 -0.23768196703E+03  0.32080156250E+03  0.17198682858E+03 0.  0.
        -24    2    3    3    0    0  0.15275324462E+02 -0.10135590620E+02 -0.14147054223E+03  0.16495818383E+03  0.82832495788E+02 0.  0.
          6    2    1    2  501    0  0.14565087760E+02  0.12895469772E+03 -0.30408938152E+02  0.21648560833E+03  0.17058680855E+03 0.  0.
         24    2    5    5    0    0  0.75869796263E+02  0.66619580659E+02 -0.20066202685E+02  0.12832101067E+03  0.76610931187E+02 0.  0.
          5    1    5    5  501    0 -0.61304708503E+02  0.62335117062E+02 -0.10342735467E+02  0.88164597661E+02  0.47000000000E+01 0. -1.
        -11    1    6    6    0    0  0.76449772934E+02  0.18555484358E+02 -0.11881653105E+02  0.79561595396E+02  0.00000000000E+00 0.  1.
         12    1    6    6    0    0 -0.57997667090E+00  0.48064096301E+02 -0.81845495804E+01  0.48759415276E+02  0.00000000000E+00 0. -1.
         -5    1    3    3    0  503 -0.29840412223E+02 -0.11881910710E+03 -0.96211424794E+02  0.15584337867E+03  0.47000000000E+01 0.  1.
         13    1    4    4    0    0  0.21988758490E+02 -0.44363189869E+02 -0.74577119807E+02  0.89517288352E+02  0.00000000000E+00 0. -1.
        -14    1    4    4    0    0 -0.67134340273E+01  0.34227599248E+02 -0.66893422428E+02  0.75440895480E+02  0.00000000000E+00 0.  1.
</event>
<event>
12    1  0.8562501E-002  0.2192916E+03  0.7818608E-02  0.1134492E+00
         21   -1    0    0  501  502  0.00000000000E+00  0.00000000000E+00  0.14468170600E+03  0.14468170600E+03  0.00000000000E+00 0. -1.
         21   -1    0    0  502  503 -0.00000000000E+00 -0.00000000000E+00 -0.41153670932E+03  0.41153670932E+03  0.00000000000E+00 0. -1.
         -6    2    1    2    0  503 -0.57218133519E+02  0.12412253779E+03 -0.25578987858E+03  0.33664784477E+03  0.17094733169E+03 0.  0.
        -24    2    3    3    0    0 -0.13315817224E+02  0.12809646135E+03 -0.24951078968E+03  0.29187371829E+03  0.79678220775E+02 0.  0.
          6    2    1    2  501    0  0.57218133519E+02 -0.12412253779E+03 -0.11065124741E+02  0.21957057055E+03  0.17148900627E+03 0.  0.
         24    2    5    5    0    0  0.17361319842E+02 -0.95435665164E+01 -0.44332502637E+02  0.93690807726E+02  0.80125536340E+02 0.  0.
          5    1    5    5  501    0  0.39856813677E+02 -0.11457897128E+03  0.33267377897E+02  0.12587976282E+03  0.47000000000E+01 0. -1.
        -11    1    6    6    0    0  0.81824149318E+01  0.25107220819E+02  0.10303135485E+02  0.28345706063E+02  0.00000000000E+00 0.  1.
         12    1    6    6    0    0  0.91789049101E+01 -0.34650787336E+02 -0.54635638123E+02  0.65345101663E+02  0.00000000000E+00 0. -1.
         -5    1    3    3    0  503 -0.43902316295E+02 -0.39739235558E+01 -0.62790889087E+01  0.44774126479E+02  0.47000000000E+01 0.  1.
         11    1    4    4    0    0 -0.46493996866E+02  0.76050982110E+02 -0.13466838951E+03  0.16149618806E+03  0.00000000000E+00 0. -1.
        -12    1    4    4    0    0  0.33178179641E+02  0.52045479239E+02 -0.11484240016E+03  0.13037753023E+03  0.00000000000E+00 0.  1.
</event>
<event>
12    1  0.8562501E-002  0.1811428E+03  0.7818608E-02  0.1167713E+00
         21   -1    0    0  501  502  0.00000000000E+00  0.00000000000E+00  0.12152866753E+03  0.12152866753E+03  0.00000000000E+00 0.  1.
         21   -1    0    0  502  503 -0.00000000000E+00 -0.00000000000E+00 -0.31219535271E+03  0.31219535271E+03  0.00000000000E+00 0.  1.
         -6    2    1    2    0  503  0.45808526259E+01 -0.46867892167E+02 -0.17974718099E+03  0.25225236374E+03  0.17060076908E+03 0.  0.
        -24    2    3    3    0    0  0.17578840133E+02 -0.48139890132E+02 -0.20140936400E+03  0.22652483314E+03  0.90118274945E+02 0.  0.
          6    2    1    2  501    0 -0.45808526259E+01  0.46867892167E+02 -0.10919504188E+02  0.18147165650E+03  0.17491467352E+03 0.  0.
         24    2    5    5    0    0  0.66225559089E+02  0.19877350096E+02  0.10263248687E+02  0.10265010918E+03  0.75171649698E+02 0.  0.
          5    1    5    5  501    0 -0.70806411715E+02  0.26990542072E+02 -0.21182752875E+02  0.78821547312E+02  0.47000000000E+01 0. -1.
        -11    1    6    6    0    0  0.26079341760E+02  0.42967564559E+02  0.22010285772E+02  0.54870723984E+02  0.00000000000E+00 0.  1.
         12    1    6    6    0    0  0.40146217329E+02 -0.23090214463E+02 -0.11747037085E+02  0.47779385200E+02  0.00000000000E+00 0. -1.
         -5    1    3    3    0  503 -0.12997987507E+02  0.12719979649E+01  0.21662183010E+02  0.25727530601E+02  0.47000000000E+01 0.  1.
         13    1    4    4    0    0 -0.16579642605E+02  0.17198124299E+02 -0.21675174986E+02  0.32256367418E+02  0.00000000000E+00 0. -1.
        -14    1    4    4    0    0  0.34158482738E+02 -0.65338014432E+02 -0.17973418902E+03  0.19426846572E+03  0.00000000000E+00 0.  1.
</event>
<event>
12    1  0.8562501E-002  0.2132878E+03  0.7818608E-02  0.1139406E+00
         21   -1    0    0  501  502  0.00000000000E+00  0.00000000000E+00  0.83862771500E+03  0.83862771500E+03  0.00000000000E+00 0.  1.
         21   -1    0    0  502  503 -0.00000000000E+00 -0.00000000000E+00 -0.98920656469E+02  0.98920656469E+02  0.00000000000E+00 0. -1.
         -6    2    1    2    0  503 -0.25697513220E+02  0.12450948263E+03  0.53927555690E+02  0.21999970597E+03  0.17125628722E+03 0.  0.
        -24    2    3    3    0    0 -0.14421859759E+02  0.15463023334E+03  0.64713325925E+02  0.18575320506E+03  0.78726993695E+02 0.  0.
          6    2    1    2  501    0  0.25697513220E+02 -0.12450948263E+03  0.68577950284E+03  0.71754866550E+03  0.16858110036E+03 0.  0.
         24    2    5    5    0    0 -0.12379210719E+02 -0.30474014429E+02  0.47062685039E+03  0.47963006589E+03  0.86449160695E+02 0.  0.
          5    1    5    5  501    0  0.38076723939E+02 -0.94035468196E+02  0.21515265245E+03  0.23791859961E+03  0.47000000000E+01 0. -1.
        -11    1    6    6    0    0  0.25924925644E+02 -0.22690069032E+02  0.80665101072E+02  0.87714306321E+02  0.00000000000E+00 0.  1.
         12    1    6    6    0    0 -0.38304136363E+02 -0.77839453970E+01  0.38996174932E+03  0.39191575957E+03  0.00000000000E+00 0. -1.
         -5    1    3    3    0  503 -0.11275653461E+02 -0.30120750716E+02 -0.10785770235E+02  0.34246500905E+02  0.47000000000E+01 0.  1.
         13    1    4    4    0    0  0.34738801394E+01  0.48891842056E+02 -0.15968069077E+02  0.51550550850E+02  0.00000000000E+00 0. -1.
        -14    1    4    4    0    0 -0.17895739898E+02  0.10573839129E+03  0.80681395002E+02  0.13420265421E+03  0.00000000000E+00 0.  1.
</event>
<event>
12    1  0.8562501E-002  0.2212156E+03  0.7818608E-02  0.1133101E+00
         21   -1    0    0  503  502  0.00000000000E+00  0.00000000000E+00  0.49044148838E+03  0.49044148838E+03  0.00000000000E+00 0.  1.
         21   -1    0    0  501  503 -0.00000000000E+00 -0.00000000000E+00 -0.10618822117E+03  0.10618822117E+03  0.00000000000E+00 0.  1.
          6    2    1    2  501    0 -0.11065534389E+03 -0.81973844259E+02  0.26733865356E+03  0.34699609170E+03  0.17312427818E+03 0.  0.
         24    2    3    3    0    0 -0.14331036069E+03 -0.68312924452E+02  0.18010389354E+03  0.25273600361E+03  0.78952896866E+02 0.  0.
         -6    2    1    2    0  502  0.11065534389E+03  0.81973844259E+02  0.11691461365E+03  0.24963361785E+03  0.17228929161E+03 0.  0.
        -24    2    5    5    0    0  0.12643545162E+03  0.96138597203E+02  0.59681483875E+02  0.18841782602E+03  0.81919743320E+02 0.  0.
          5    1    3    3  501    0  0.32655016796E+02 -0.13660919808E+02  0.87234760015E+02  0.94260088090E+02  0.47000000000E+01 0. -1.
        -13    1    4    4    0    0 -0.69298019356E+01  0.12478265701E+02  0.21739182733E+01  0.14437977366E+02  0.00000000000E+00 0.  1.
         14    1    4    4    0    0 -0.13638055875E+03 -0.80791190153E+02  0.17792997527E+03  0.23829802624E+03  0.00000000000E+00 0. -1.
         -5    1    5    5    0  502 -0.15780107725E+02 -0.14164752944E+02  0.57233129780E+02  0.61215791836E+02  0.47000000000E+01 0.  1.
         11    1    6    6    0    0  0.20823936042E+02 -0.35618818419E+01 -0.14213320311E+02  0.25462556603E+02  0.00000000000E+00 0. -1.
        -12    1    6    6    0    0  0.10561151558E+03  0.99700479045E+02  0.73894804186E+02  0.16295526941E+03  0.00000000000E+00 0.  1.
</event>
<event>
12    1  0.8562501E-002  0.1925131E+03  0.7818608E-02  0.1157590E+00
         21   -1    0    0  501  502  0.00000000000E+00  0.00000000000E+00  0.75185148405E+02  0.75185148405E+02  0.00000000000E+00 0. -1.
         21   -1    0    0  502  503 -0.00000000000E+00 -0.00000000000E+00 -0.67697692255E+03  0.67697692255E+03  0.00000000000E+00 0. -1.
         -6    2    1    2    0  503 -0.29043679386E+02  0.64667494223E+02 -0.50163883375E+03  0.53515534200E+03  0.17240736765E+03 0.  0.
        -24    2    3    3    0    0 -0.70647215553E+02  0.34822029591E+02 -0.20767093319E+03  0.23672474279E+03  0.81901065610E+02 0.  0.
          6    2    1    2  501    0  0.29043679386E+02 -0.64667494223E+02 -0.10015294040E+03  0.21700672896E+03  0.17898572240E+03 0.  0.
         24    2    5    5    0    0  0.18935400477E+02 -0.94874963383E+02 -0.12472254424E+03  0.17650458175E+03  0.78983202438E+02 0.  0.
          5    1    5    5  501    0  0.10108278909E+02  0.30207469160E+02  0.24569603848E+02  0.40502147212E+02  0.47000000000E+01 0. -1.
        -11    1    6    6    0    0 -0.31121878112E+02 -0.35262009417E+02 -0.48451097459E+02  0.67523991665E+02  0.00000000000E+00 0.  1.
         12    1    6    6    0    0  0.50057278589E+02 -0.59612953966E+02 -0.76271446784E+02  0.10898059008E+03  0.00000000000E+00 0. -1.
         -5    1    3    3    0  503  0.41603536167E+02  0.29845464632E+02 -0.29396790056E+03  0.29843059920E+03  0.47000000000E+01 0.  1.
         13    1    4    4    0    0 -0.11343266857E+02 -0.63924069093E+01 -0.13006097971E+03  0.13071109751E+03  0.00000000000E+00 0. -1.
        -14    1    4    4    0    0 -0.59303948697E+02  0.41214436500E+02 -0.77609953479E+02  0.10601364528E+03  0.00000000000E+00 0.  1.
</event>
<event>
12    1  0.8562501E-002  0.2041129E+03  0.7818608E-02  0.1146448E+00
         21   -1    0    0  503  502  0.00000000000E+00  0.00000000000E+00  0.19546985583E+03  0.19546985583E+03  0.00000000000E+00 0.  1.
         21   -1    0    0  501  503 -0.00000000000E+00 -0.00000000000E+00 -0.23904701572E+03  0.23904701572E+03  0.00000000000E+00 0.  1.
          6    2    1    2  501    0  0.82440319846E+02 -0.72170206646E+02 -0.94268463967E+02  0.22483015752E+03  0.17221240190E+03 0.  0.
         24    2    3    3    0    0  0.10474944906E+03 -0.71219282239E+02 -0.24680671932E+02  0.15159661122E+03  0.79547242088E+02 0.  0.
         -6    2    1    2    0  502 -0.82440319846E+02  0.72170206646E+02  0.50691304072E+02  0.20968671403E+03  0.17144668171E+03 0.  0.
        -24    2    5    5    0    0 -0.63068062004E+02 -0.33260871555E+01  0.71090070533E+02  0.12898247360E+03  0.87143772386E+02 0.  0.
          5    1    3    3  501    0 -0.22309129216E+02 -0.95092440743E+00 -0.69587792035E+02  0.73233546302E+02  0.47000000000E+01 0. -1.
        -11    1    4    4    0    0  0.39963997087E+02 -0.43485419467E+02 -0.49315954096E+02  0.76942615615E+02  0.00000000000E+00 0.  1.
         12    1    4    4    0    0  0.64785451976E+02 -0.27733862772E+02  0.24635282163E+02  0.74653995602E+02  0.00000000000E+00 0. -1.
         -5    1    5    5    0  502 -0.19372257842E+02  0.75496293802E+02 -0.20398766461E+02  0.80704240439E+02  0.47000000000E+01 0.  1.
         13    1    6    6    0    0 -0.59617711040E+02 -0.16544307025E+02  0.56460382592E+01  0.62127798228E+02  0.00000000000E+00 0. -1.
        -14    1    6    6    0    0 -0.34503509646E+01  0.13218219870E+02  0.65444032274E+02  0.66854675368E+02  0.00000000000E+00 0.  1.
</event>
<event>
12    1  0.8562501E-002  0.2608483E+03  0.7818608E-02  0.1106813E+00
         21   -1    0    0  501  502  0.00000000000E+00  0.00000000000E+00  0.81752736103E+02  0.81752736103E+02  0.00000000000E+00 0.  1.
         21   -1    0    0  502  503 -0.00000000000E+00 -0.00000000000E+00 -0.11633751864E+04  0.11633751864E+04  0.00000000000E+00 0. -1.
         -6    2    1    2    0  503 -0.13952769254E+02 -0.19564822931E+03 -0.20590869023E+03  0.33139031785E+03  0.17014183686E+03 0.  0.
        -24    2    3    3    0    0  0.35842217271E+02 -0.57449979941E+02 -0.47751278842E+02  0.11548720627E+03  0.80448402395E+02 0.  0.
          6    2    1    2  501    0  0.13952769254E+02  0.19564822931E+03 -0.87571376007E+03  0.91373760466E+03  0.17195613158E+03 0.  0.
         24    2    5    5    0    0  0.39692523022E+02  0.84612137398E+02 -0.26348539495E+03  0.29097183032E+03  0.80655703506E+02 0.  0.
          5    1    5    5  501    0 -0.25739753768E+02  0.11103609191E+03 -0.61222836512E+03  0.62276577434E+03  0.47000000000E+01 0. -1.
        -11    1    6    6    0    0  0.49766744516E+02  0.18183846788E+02 -0.15007064703E+03  0.15914955308E+03  0.00000000000E+00 0.  1.
         12    1    6    6    0    0 -0.10074221494E+02  0.66428290609E+02 -0.11341474792E+03  0.13182227724E+03  0.00000000000E+00 0. -1.
         -5    1    3    3    0  503 -0.49794986525E+02 -0.13819824936E+03 -0.15815741139E+03  0.21590311158E+03  0.47000000000E+01 0.  1.
         11    1    4    4    0    0 -0.57444604648E-01 -0.76502630734E+01 -0.53300152510E+02  0.53846411975E+02  0.00000000000E+00 0. -1.
        -12    1    4    4    0    0  0.35899661876E+02 -0.49799716868E+02  0.55488736686E+01  0.61640794300E+02  0.00000000000E+00 0.  1.
</event>
<event>
12    1  0.8562501E-002  0.1905857E+03  0.7818608E-02  0.1158233E+00
         21   -1    0    0  501  502  0.00000000000E+00  0.00000000000E+00  0.15769243700E+03  0.15769243700E+03  0.00000000000E+00 0.  1.
         21   -1    0    0  502  503 -0.00000000000E+00 -0.00000000000E+00 -0.27657776822E+03  0.27657776822E+03  0.00000000000E+00 0.  1.
         -6    2    1    2    0  503 -0.33207546194E+02  0.68054777776E+02  0.30689974274E+02  0.19304086073E+03  0.17489627065E+03 0.  0.
        -24    2    3    3    0    0  0.11940277011E+02  0.10370346912E+03  0.30525982769E+02  0.13532368800E+03  0.80521333738E+02 0.  0.
          6    2    1    2  501    0  0.33207546194E+02 -0.68054777776E+02 -0.14957530549E+03  0.24122934449E+03  0.17344921657E+03 0.  0.
         24    2    5    5    0    0  0.27113558441E+02 -0.11281876636E+03 -0.11806539730E+03  0.18594900735E+03  0.84701689484E+02 0.  0.
          5    1    5    5  501    0  0.60939877535E+01  0.44763988580E+02 -0.31509908184E+02  0.55280337139E+02  0.47000000000E+01 0. -1.
        -11    1    6    6    0    0  0.54436490556E+02 -0.55948128916E+02 -0.47889319175E+02  0.91580082575E+02  0.00000000000E+00 0.  1.
         12    1    6    6    0    0 -0.27322932115E+02 -0.56870637440E+02 -0.70176078128E+02  0.94368924778E+02  0.00000000000E+00 0. -1.
         -5    1    3    3    0  503 -0.45147823205E+02 -0.35648691343E+02  0.16399150502E+00  0.57717172729E+02  0.47000000000E+01 0.  1.
         11    1    4    4    0    0  0.16064677410E+02 -0.29213520215E+01 -0.12200419148E+02  0.20382796307E+02  0.00000000000E+00 0. -1.
        -12    1    4    4    0    0 -0.41244003989E+01  0.10662482114E+03  0.42726401917E+02  0.11494089169E+03  0.00000000000E+00 0.  1.
</event>
<event>
12    1  0.8562501E-002  0.2144418E+03  0.7818608E-02  0.1138505E+00
         21   -1    0    0  501  502  0.00000000000E+00  0.00000000000E+00  0.31698446055E+03  0.31698446055E+03  0.00000000000E+00 0.  1.
         21   -1    0    0  502  503 -0.00000000000E+00 -0.00000000000E+00 -0.14669780141E+03  0.14669780141E+03  0.00000000000E+00 0. -1.
         -6    2    1    2    0  503  0.12706515596E+03 -0.89712550796E+01  0.51287504339E+02  0.21843530160E+03  0.16987505881E+03 0.  0.
        -24    2    3    3    0    0  0.22287703272E+02 -0.44076886490E+02  0.51891705054E+02  0.10783161718E+03  0.80594013237E+02 0.  0.
          6    2    1    2  501    0 -0.12706515596E+03  0.89712550796E+01  0.11899915480E+03  0.24524696036E+03  0.17250865324E+03 0.  0.
         24    2    5    5    0    0 -0.11428477584E+02  0.45218736311E+02  0.59600698438E+02  0.11020627056E+03  0.80111388724E+02 0.  0.
          5    1    5    5  501    0 -0.11563667838E+03 -0.36247481231E+02  0.59398456365E+02  0.13504068980E+03  0.47000000000E+01 0. -1.
        -11    1    6    6    0    0  0.24331473026E+02  0.37939311344E+01  0.48461705751E+02  0.54359464837E+02  0.00000000000E+00 0.  1.
         12    1    6    6    0    0 -0.35759950610E+02  0.41424805176E+02  0.11138992687E+02  0.55846805724E+02  0.00000000000E+00 0. -1.
         -5    1    3    3    0  503  0.10477745269E+03  0.35105631410E+02 -0.60420071556E+00  0.11060368442E+03  0.47000000000E+01 0.  1.
         13    1    4    4    0    0 -0.23247283774E+02  0.80106430036E+01  0.78213821707E+01  0.25802725113E+02  0.00000000000E+00 0. -1.
        -14    1    4    4    0    0  0.45534987047E+02 -0.52087529493E+02  0.44070322884E+02  0.82028892063E+02  0.00000000000E+00 0.  1.
</event>
<event>
12    1  0.8562501E-002  0.2163106E+03  0.7818608E-02  0.1138826E+00
         21   -1    0    0  503  502  0.00000000000E+00  0.00000000000E+00  0.40158877913E+03  0.40158877913E+03  0.00000000000E+00 0. -1.
         21   -1    0    0  501  503 -0.00000000000E+00 -0.00000000000E+00 -0.11573912153E+03  0.11573912153E+03  0.00000000000E+00 0. -1.
          6    2    1    2  501    0 -0.91384009849E+02 -0.63265895441E+02  0.19359524775E+03  0.28216593844E+03  0.17258298318E+03 0.  0.
         24    2    3    3    0    0 -0.41180329702E+02  0.70886084742E+00  0.19024397987E+02  0.89525728388E+02  0.77179053418E+02 0.  0.
         -6    2    1    2    0  502  0.91384009849E+02  0.63265895441E+02  0.92254409839E+02  0.23516196222E+03  0.18557117653E+03 0.  0.
        -24    2    5    5    0    0  0.35201106291E+02 -0.23510382459E+02 -0.11290912731E+02  0.88770825585E+02  0.77206986713E+02 0.  0.
          5    1    3    3  501    0 -0.50203680146E+02 -0.63974756288E+02  0.17457084977E+03  0.19264021006E+03  0.47000000000E+01 0. -1.
        -11    1    4    4    0    0  0.43931203582E+01  0.13481931866E+00  0.39369362382E+02  0.39613941701E+02  0.00000000000E+00 0.  1.
         12    1    4    4    0    0 -0.45573450060E+02  0.57404152876E+00 -0.20344964394E+02  0.49911786687E+02  0.00000000000E+00 0. -1.
         -5    1    5    5    0  502  0.56182903558E+02  0.86776277900E+02  0.10354532257E+03  0.14639113663E+03  0.47000000000E+01 0.  1.
         13    1    6    6    0    0  0.49460685779E+02 -0.29422282088E+02  0.13919687397E+02  0.59209693617E+02  0.00000000000E+00 0. -1.
        -14    1    6    6    0    0 -0.14259579488E+02  0.59118996285E+01 -0.25210600128E+02  0.29561131968E+02  0.00000000000E+00 0.  1.
</event>
<event>
12    1  0.8562501E-002  0.1973324E+03  0.7818608E-02  0.1152205E+00
         21   -1    0    0  501  502  0.00000000000E+00  0.00000000000E+00  0.27019655436E+03  0.27019655436E+03  0.00000000000E+00 0. -1.
         21   -1    0    0  502  503 -0.00000000000E+00 -0.00000000000E+00 -0.30859903546E+03  0.30859903546E+03  0.00000000000E+00 0. -1.
         -6    2    1    2    0  503  0.29669053084E+02  0.90773650410E+02 -0.23092610681E+03  0.30375471918E+03  0.17268455141E+03 0.  0.
        -24    2    3    3    0    0 -0.13905981775E+02  0.10880230484E+03 -0.21662955218E+03  0.25425423920E+03  0.75402502640E+02 0.  0.
          6    2    1    2  501    0 -0.29669053084E+02 -0.90773650410E+02  0.19252362571E+03  0.27504087064E+03  0.17164505745E+03 0.  0.
         24    2    5    5    0    0 -0.46962589796E+02 -0.10587823110E+03  0.20476125367E+03  0.24860104637E+03  0.80371789765E+02 0.  0.
          5    1    5    5  501    0  0.17293536712E+02  0.15104580692E+02 -0.12237627953E+02  0.26439824277E+02  0.47000000000E+01 0. -1.
        -11    1    6    6    0    0  0.67745988763E+01  0.89271091046E+01  0.34904303586E+02  0.36659226338E+02  0.00000000000E+00 0.  1.
         12    1    6    6    0    0 -0.53737188672E+02 -0.11480534021E+03  0.16985695008E+03  0.21194182003E+03  0.00000000000E+00 0. -1.
         -5    1    3    3    0  503  0.43575034859E+02 -0.18028654434E+02 -0.14296554627E+02  0.49500479976E+02  0.47000000000E+01 0.  1.
         13    1    4    4    0    0 -0.98681466286E+01  0.20165847548E+02 -0.12388193024E+03  0.12589985847E+03  0.00000000000E+00 0. -1.
        -14    1    4    4    0    0 -0.40378351467E+01  0.88636457296E+02 -0.92747621948E+02  0.12835438073E+03  0.00000000000E+00 0.  1.
</event>
<event>
12    1  0.8562501E-002  0.2025517E+03  0.7818608E-02  0.1147864E+00
         21   -1    0    0  501  502  0.00000000000E+00  0.00000000000E+00  0.17696312521E+02  0.17696312521E+02  0.00000000000E+00 0. -1.
         21   -1    0    0  502  503 -0.00000000000E+00 -0.00000000000E+00 -0.23045240636E+04  0.23045240636E+04  0.00000000000E+00 0. -1.
         -6    2    1    2    0  503  0.10529045471E+03 -0.14840649596E+02 -0.11312632657E+04  0.11492535645E+04  0.17239737397E+03 0.  0.
        -24    2    3    3    0    0  0.13079357542E+03  0.82094943286E+01 -0.10461043125E+04  0.10572978382E+04  0.79813099186E+02 0.  0.
          6    2    1    2  501    0 -0.10529045471E+03  0.14840649596E+02 -0.11555644854E+04  0.11729668116E+04  0.17092552901E+03 0.  0.
         24    2    5    5    0    0 -0.49917159970E+02 -0.54557631220E+02 -0.75760037602E+03  0.76519255358E+03  0.78058031781E+02 0.  0.
          5    1    5    5  501    0 -0.55373294739E+02  0.69398280816E+02 -0.39796410940E+03  0.40777425804E+03  0.47000000000E+01 0. -1.
        -11    1    6    6    0    0 -0.31169323957E+01 -0.45873021795E+02 -0.56224611538E+03  0.56412298629E+03  0.00000000000E+00 0.  1.
         12    1    6    6    0    0 -0.46800227574E+02 -0.86846094259E+01 -0.19535426064E+03  0.20106956730E+03  0.00000000000E+00 0. -1.
         -5    1    3    3    0  503 -0.25503120716E+02 -0.23050143924E+02 -0.85158953146E+02  0.91955726315E+02  0.47000000000E+01 0.  1.
         11    1    4    4    0    0  0.76176305021E+02 -0.18168010579E+02 -0.35490886770E+03  0.36344629649E+03  0.00000000000E+00 0. -1.
        -12    1    4    4    0    0  0.54617270404E+02  0.26377504908E+02 -0.69119544481E+03  0.69385154169E+03  0.00000000000E+00 0.  1.
</event>
<event>
12    1  0.8562501E-002  0.2008823E+03  0.7818608E-02  0.1149305E+00
         21   -1    0    0  503  502  0.00000000000E+00  0.00000000000E+00  0.89389864190E+02  0.89389864190E+02  0.00000000000E+00 0.  1.
         21   -1    0    0  501  503 -0.00000000000E+00 -0.00000000000E+00 -0.63157685432E+03  0.63157685432E+03  0.00000000000E+00 0. -1.
          6    2    1    2  501    0  0.34371101678E+02 -0.97342473875E+02 -0.46606563966E+03  0.50751439290E+03  0.17232744610E+03 0.  0.
         24    2    3    3    0    0 -0.81423982147E+00  0.25942164968E+01 -0.10691958858E+03  0.13303698859E+03  0.79117943371E+02 0.  0.
         -6    2    1    2    0  502 -0.34371101678E+02  0.97342473875E+02 -0.76121350468E+02  0.21345232561E+03  0.17061801036E+03 0.  0.
        -24    2    5    5    0    0 -0.18683737747E+02 -0.13444544180E+01 -0.78213417234E+02  0.11339399289E+03  0.79937284007E+02 0.  0.
          5    1    3    3  501    0  0.35185341500E+02 -0.99936690372E+02 -0.35914605108E+03  0.37447740432E+03  0.47000000000E+01 0. -1.
        -11    1    4    4    0    0  0.37485981740E+02 -0.99502931807E+01 -0.49478625058E+02  0.62867650656E+02  0.00000000000E+00 0.  1.
         12    1    4    4    0    0 -0.38300221561E+02  0.12544509677E+02 -0.57440963527E+02  0.70169337930E+02  0.00000000000E+00 0. -1.
         -5    1    5    5    0  502 -0.15687363931E+02  0.98686928293E+02  0.20920667658E+01  0.10005833272E+03  0.47000000000E+01 0.  1.
         11    1    6    6    0    0 -0.90261155735E+01 -0.15719033331E+02 -0.90412166649E+02  0.92211271813E+02  0.00000000000E+00 0. -1.
        -12    1    6    6    0    0 -0.96576221735E+01  0.14374578914E+02  0.12198749415E+02  0.21182721078E+02  0.00000000000E+00 0.  1.
</event>
<event>
12    1  0.8562501E-002  0.1883398E+03  0.7818608E-02  0.1160047E+00
         21   -1    0    0  501  502  0.00000000000E+00  0.00000000000E+00  0.32534561657E+03  0.32534561657E+03  0.00000000000E+00 0. -1.
         21   -1    0    0  502  503 -0.00000000000E+00 -0.00000000000E+00 -0.12827969327E+03  0.12827969327E+03  0.00000000000E+00 0. -1.
         -6    2    1    2    0  503  0.63275472145E+02  0.40317745569E+02  0.10132014609E+02  0.18826488355E+03  0.17237082896E+03 0.  0.
        -24    2    3    3    0    0  0.99915314817E+02  0.63885649178E+02  0.15491450701E+02  0.14412037419E+03  0.80413002093E+02 0.  0.
          6    2    1    2  501    0 -0.63275472145E+02 -0.40317745569E+02  0.18693390869E+03  0.26536042629E+03  0.17275000330E+03 0.  0.
         24    2    5    5    0    0 -0.59650661805E+02  0.39493518652E+02  0.87990257655E+02  0.13810118998E+03  0.78814426105E+02 0.  0.
          5    1    5    5  501    0 -0.36248103396E+01 -0.79811264221E+02  0.98943651038E+02  0.12725923631E+03  0.47000000000E+01 0. -1.
        -11    1    6    6    0    0 -0.47965414808E+02 -0.90093506511E+01  0.17720646873E+02  0.51921775225E+02  0.00000000000E+00 0.  1.
         12    1    6    6    0    0 -0.11685246997E+02  0.48502869303E+02  0.70269610782E+02  0.86179414755E+02  0.00000000000E+00 0. -1.
         -5    1    3    3    0  503 -0.36639842672E+02 -0.23567903609E+02 -0.53594360923E+01  0.44144509362E+02  0.47000000000E+01 0.  1.
         13    1    4    4    0    0  0.26655554158E+02  0.13222801434E+02 -0.31568579993E+02  0.43381289607E+02  0.00000000000E+00 0. -1.
        -14    1    4    4    0    0  0.73259760660E+02  0.50662847745E+02  0.47060030694E+02  0.10073908458E+03  0.00000000000E+00 0.  1.
</event>
<event>
12    1  0.8562501E-002  0.1764602E+03  0.7818608E-02  0.1171323E+00
         21   -1    0    0  501  502  0.00000000000E+00  0.00000000000E+00  0.55526626807E+03  0.55526626807E+03  0.00000000000E+00 0. -1.
         21   -1    0    0  502  503 -0.00000000000E+00 -0.00000000000E+00 -0.10195878951E+04  0.10195878951E+04  0.00000000000E+00 0. -1.
         -6    2    1    2    0  503  0.25294320715E+02  0.27689491481E+02 -0.99765933921E+03  0.10131447888E+04  0.17242881252E+03 0.  0.
        -24    2    3    3    0    0 -0.12068774884E+02  0.63095266946E+02 -0.86084501619E+03  0.86689220309E+03  0.79506489228E+02 0.  0.
          6    2    1    2  501    0 -0.25294320715E+02 -0.27689491481E+02  0.53333771215E+03  0.56170937438E+03  0.17222600113E+03 0.  0.
         24    2    5    5    0    0  0.52379615411E+02  0.83514223232E+01  0.30165876203E+03  0.31466805445E+03  0.72142951283E+02 0.  0.
          5    1    5    5  501    0 -0.77673936127E+02 -0.36040913804E+02  0.23167895012E+03  0.24704131993E+03  0.47000000000E+01 0. -1.
        -13    1    6    6    0    0 -0.63631560802E+01  0.17792382126E+02  0.23187437228E+02  0.29911801388E+02  0.00000000000E+00 0.  1.
         14    1    6    6    0    0  0.58742771491E+02 -0.94409598031E+01  0.27847132480E+03  0.28475625307E+03  0.00000000000E+00 0. -1.
         -5    1    3    3    0  503  0.37363095599E+02 -0.35405775465E+02 -0.13681432302E+03  0.14625258573E+03  0.47000000000E+01 0.  1.
         11    1    4    4    0    0 -0.23533984774E+02  0.61574870407E+02 -0.36451500432E+03  0.37042745778E+03  0.00000000000E+00 0. -1.
        -12    1    4    4    0    0  0.11465209890E+02  0.15203965385E+01 -0.49633001188E+03  0.49646474531E+03  0.00000000000E+00 0.  1.
</event>
<event>
12    1  0.8562501E-002  0.2215009E+03  0.7818608E-02  0.1133721E+00
         21   -1    0    0  503  502  0.00000000000E+00  0.00000000000E+00  0.13723594724E+03  0.13723594724E+03  0.00000000000E+00 0. -1.
         21   -1    0    0  501  503 -0.00000000000E+00 -0.00000000000E+00 -0.40295226688E+03  0.40295226688E+03  0.00000000000E+00 0. -1.
          6    2    1    2  501    0  0.99848707152E+02  0.94051843890E+02 -0.23003328044E+03  0.31583155785E+03  0.16738801976E+03 0.  0.
         24    2    3    3    0    0  0.78515928814E+02  0.46091048868E+02 -0.23276129979E+03  0.26305980991E+03  0.82057937116E+02 0.  0.
         -6    2    1    2    0  502 -0.99848707152E+02 -0.94051843890E+02 -0.35683039201E+02  0.22435665628E+03  0.17391698098E+03 0.  0.
        -24    2    5    5    0    0 -0.79062100528E+02 -0.96827062069E+02 -0.84489363165E+02  0.17102812630E+03  0.80534910503E+02 0.  0.
          5    1    3    3  501    0  0.21332778338E+02  0.47960795022E+02  0.27280193518E+01  0.52771747937E+02  0.47000000000E+01 0. -1.
        -11    1    4    4    0    0 -0.24657822253E+01  0.25652618165E+02 -0.11999756721E+03  0.12273366709E+03  0.00000000000E+00 0.  1.
         12    1    4    4    0    0  0.80981711039E+02  0.20438430703E+02 -0.11276373259E+03  0.14032614282E+03  0.00000000000E+00 0. -1.
         -5    1    5    5    0  502 -0.20786606623E+02  0.27752181790E+01  0.48806323963E+02  0.53328529979E+02  0.47000000000E+01 0.  1.
         11    1    6    6    0    0 -0.19511514353E+02 -0.58342561299E+02 -0.78696241925E+02  0.99888198224E+02  0.00000000000E+00 0. -1.
        -12    1    6    6    0    0 -0.59550586176E+02 -0.38484500770E+02 -0.57931212395E+01  0.71139928079E+02  0.00000000000E+00 0.  1.
</event>
<event>
12    1  0.8562501E-002  0.1795601E+03  0.7818608E-02  0.1168630E+00
         21   -1    0    0  503  502  0.00000000000E+00  0.00000000000E+00  0.39210697849E+03  0.39210697849E+03  0.00000000000E+00 0.  1.
         21   -1    0    0  501  503 -0.00000000000E+00 -0.00000000000E+00 -0.87533916949E+02  0.87533916949E+02  0.00000000000E+00 0.  1.
          6    2    1    2  501    0 -0.35431556575E+02 -0.35042905839E+02  0.88554503111E+02  0.19873903723E+03  0.17079784673E+03 0.  0.
         24    2    3    3    0    0  0.43759523046E+02 -0.41783476457E+01  0.38625646419E+02  0.10005353285E+03  0.81156727562E+02 0.  0.
         -6    2    1    2    0  502  0.35431556575E+02  0.35042905839E+02  0.21601855843E+03  0.28090185821E+03  0.17250633585E+03 0.  0.
        -24    2    5    5    0    0  0.69070001380E+02 -0.19843814251E+02  0.17115920020E+03  0.20229811127E+03  0.80402810636E+02 0.  0.
          5    1    3    3  501    0 -0.79191079621E+02 -0.30864558194E+02  0.49928856693E+02  0.98685504380E+02  0.47000000000E+01 0. -1.
        -13    1    4    4    0    0  0.59531182935E+02 -0.93902524193E+01  0.25310992555E+01  0.60320353494E+02  0.00000000000E+00 0.  1.
         14    1    4    4    0    0 -0.15771659889E+02  0.52119047736E+01  0.36094547163E+02  0.39733179358E+02  0.00000000000E+00 0. -1.
         -5    1    5    5    0  502 -0.33638444806E+02  0.54886720090E+02  0.44859358236E+02  0.78603746937E+02  0.47000000000E+01 0.  1.
         13    1    6    6    0    0 -0.47345652887E+01 -0.18712930549E+02  0.42058595457E+01  0.19755483612E+02  0.00000000000E+00 0. -1.
        -14    1    6    6    0    0  0.73804566669E+02 -0.11308837015E+01  0.16695334065E+03  0.18254262766E+03  0.00000000000E+00 0.  1.
</event>
<event>
12    1  0.8562501E-002  0.1998689E+03  0.7818608E-02  0.1150020E+00
         21   -1    0    0  503  502  0.00000000000E+00  0.00000000000E+00  0.14800517456E+03  0.14800517456E+03  0.00000000000E+00 0. -1.
         21   -1    0    0  501  503 -0.00000000000E+00 -0.00000000000E+00 -0.34506653244E+03  0.34506653244E+03  0.00000000000E+00 0.  1.
          6    2    1    2  501    0 -0.86499119104E+02 -0.53329767840E+02 -0.21426321725E+03  0.29246389251E+03  0.17117312993E+03 0.  0.
         24    2    3    3    0    0 -0.11082265744E+03 -0.31939280343E+02 -0.94143155188E+02  0.16796446768E+03  0.77764707313E+02 0.  0.
         -6    2    1    2    0  502  0.86499119104E+02  0.53329767840E+02  0.17201859366E+02  0.20060781449E+03  0.17210877236E+03 0.  0.
        -24    2    5    5    0    0  0.12278596370E+03  0.32248888203E+02  0.37467016452E+02  0.15376867307E+03  0.78260103656E+02 0.  0.
          5    1    3    3  501    0  0.24323538338E+02 -0.21390487497E+02 -0.12012006206E+03  0.12449942482E+03  0.47000000000E+01 0. -1.
        -11    1    4    4    0    0 -0.82871740283E+02 -0.55778546541E+00 -0.24143478324E+02  0.86318850825E+02  0.00000000000E+00 0.  1.
         12    1    4    4    0    0 -0.27950917159E+02 -0.31381494878E+02 -0.69999676864E+02  0.81645616857E+02  0.00000000000E+00 0. -1.
         -5    1    5    5    0  502 -0.36286844595E+02  0.21080879637E+02 -0.20265157086E+02  0.46839141417E+02  0.47000000000E+01 0.  1.
         11    1    6    6    0    0  0.76806537985E+02  0.39837360300E+02  0.56600937556E+02  0.10339209682E+03  0.00000000000E+00 0. -1.
        -12    1    6    6    0    0  0.45979425714E+02 -0.75884720970E+01 -0.19133921104E+02  0.50376576249E+02  0.00000000000E+00 0.  1.
</event>
<event>
12    1  0.8562501E-002  0.1821912E+03  0.7818608E-02  0.1166091E+00
         21   -1    0    0  503  502  0.00000000000E+00  0.00000000000E+00  0.41437782955E+02  0.41437782955E+02  0.00000000000E+00 0.  1.
         21   -1    0    0  501  503 -0.00000000000E+00 -0.00000000000E+00 -0.14422280919E+04  0.14422280919E+04  0.00000000000E+00 0.  1.
          6    2    1    2  501    0  0.38874699258E+02  0.43632778810E+02 -0.11995198868E+04  0.12132772105E+04  0.17256468068E+03 0.  0.
         24    2    3    3    0    0  0.37746098734E+02  0.43294503280E+02 -0.12031786508E+04  0.12072055778E+04  0.80045357589E+02 0.  0.
         -6    2    1    2    0  502 -0.38874699258E+02 -0.43632778810E+02 -0.20127042210E+03  0.27038866433E+03  0.17083672133E+03 0.  0.
        -24    2    5    5    0    0  0.27961775203E+02 -0.43433933292E+02 -0.17291408961E+03  0.19763342087E+03  0.80568723629E+02 0.  0.
          5    1    3    3  501    0  0.11286005236E+01  0.33827553056E+00  0.36587640162E+01  0.60716326966E+01  0.47000000000E+01 0. -1.
        -13    1    4    4    0    0  0.20366585007E+02 -0.17293650541E+02 -0.16815323945E+03  0.17026267962E+03  0.00000000000E+00 0.  1.
         14    1    4    4    0    0  0.17379513727E+02  0.60588153821E+02 -0.10350254114E+04  0.10369428982E+04  0.00000000000E+00 0. -1.
         -5    1    5    5    0  502 -0.66836474461E+02 -0.19884551837E+00 -0.28356332493E+02  0.72755243456E+02  0.47000000000E+01 0.  1.
         11    1    6    6    0    0  0.21460339313E+02  0.21419116069E+02 -0.48975616238E+02  0.57601525002E+02  0.00000000000E+00 0. -1.
        -12    1    6    6    0    0  0.65014358900E+01 -0.64853049361E+02 -0.12393847337E+03  0.14003189587E+03  0.00000000000E+00 0.  1.
</event>
<event>
12    1  0.8562501E-002  0.1953108E+03  0.7818608E-02  0.1158865E+00
         21   -1    0    0  501  502  0.00000000000E+00  0.00000000000E+00  0.44530230601E+03  0.44530230601E+03  0.00000000000E+00 0. -1.
         21   -1    0    0  502  503 -0.00000000000E+00 -0.00000000000E+00 -0.80349034019E+02  0.80349034019E+02  0.00000000000E+00 0. -1.
         -6    2    1    2    0  503  0.10421059654E+02  0.19475502591E+02  0.25192178398E+03  0.31876462161E+03  0.19405773641E+03 0.  0.
        -24    2    3    3    0    0  0.49092741699E+02 -0.58536806672E+02  0.13837625203E+03  0.17560004074E+03  0.76490078829E+02 0.  0.
          6    2    1    2  501    0 -0.10421059654E+02 -0.19475502591E+02  0.11303148802E+03  0.20688671843E+03  0.17186652755E+03 0.  0.
         24    2    5    5    0    0  0.25613069534E+02  0.39263518274E+02  0.83438906608E+02  0.13174324291E+03  0.90534953021E+02 0.  0.
          5    1    5    5  501    0 -0.36034129187E+02 -0.58739020865E+02  0.29592581409E+02  0.75143475518E+02  0.47000000000E+01 0. -1.
        -11    1    6    6    0    0 -0.24439210981E+01 -0.89328183842E+01 -0.15565636139E+02  0.18112344493E+02  0.00000000000E+00 0.  1.
         12    1    6    6    0    0  0.28056990632E+02  0.48196336658E+02  0.99004542747E+02  0.11363089842E+03  0.00000000000E+00 0. -1.
         -5    1    3    3    0  503 -0.38671682046E+02  0.78012309263E+02  0.11354553195E+03  0.14316458086E+03  0.47000000000E+01 0.  1.
         13    1    4    4    0    0  0.49813705206E+02 -0.33663746958E+02  0.35636853333E+02  0.69890188160E+02  0.00000000000E+00 0. -1.
        -14    1    4    4    0    0 -0.72096350645E+00 -0.24873059714E+02  0.10273939870E+03  0.10570985258E+03  0.00000000000E+00 0.  1.
</event>
<event>
12    1  0.8562501E-002  0.3234017E+03  0.7818608E-02  0.1074109E+00
         21   -1    0    0  503  502  0.00000000000E+00  0.00000000000E+00  0.39836130115E+03  0.39836130115E+03  0.00000000000E+00 0. -1.
         21   -1    0    0  501  503 -0.00000000000E+00 -0.00000000000E+00 -0.26825848951E+03  0.26825848951E+03  0.00000000000E+00 0. -1.
          6    2    1    2  501    0  0.24581117065E+03  0.12131099001E+03  0.15968583996E+02  0.32366891832E+03  0.17136827332E+03 0.  0.
         24    2    3    3    0    0  0.14354548627E+03  0.19947311062E+01 -0.94140785813E+01  0.16441751519E+03  0.79594025182E+02 0.  0.
         -6    2    1    2    0  502 -0.24581117065E+03 -0.12131099001E+03  0.11413422765E+03  0.34295087234E+03  0.17160766593E+03 0.  0.
        -24    2    5    5    0    0 -0.56487125386E+02 -0.45686299003E+01  0.14887504924E+02  0.99343863556E+02  0.80224046956E+02 0.  0.
          5    1    3    3  501    0  0.10226568438E+03  0.11931625890E+03  0.25382662577E+02  0.15925140313E+03  0.47000000000E+01 0. -1.
        -11    1    4    4    0    0  0.13818058395E+03  0.18873412124E+02  0.78503156338E+01  0.13968431165E+03  0.00000000000E+00 0.  1.
         12    1    4    4    0    0  0.53649023244E+01 -0.16878681017E+02 -0.17264394215E+02  0.24733203542E+02  0.00000000000E+00 0. -1.
         -5    1    5    5    0  502 -0.18932404526E+03 -0.11674236011E+03  0.99246722724E+02  0.24360700879E+03  0.47000000000E+01 0.  1.
         13    1    6    6    0    0 -0.27190268996E+02 -0.25102665566E+02 -0.25839501953E+02  0.45134625375E+02  0.00000000000E+00 0. -1.
        -14    1    6    6    0    0 -0.29296856390E+02  0.20534035665E+02  0.40727006877E+02  0.54209238181E+02  0.00000000000E+00 0.  1.
</event>
<event>
12    1  0.8562501E-002  0.1949027E+03  0.7818608E-02  0.1154158E+00
         21   -1    0    0  503  502  0.00000000000E+00  0.00000000000E+00  0.28643342032E+03  0.28643342032E+03  0.00000000000E+00 0.  1.
         21   -1    0    0  501  503 -0.00000000000E+00 -0.00000000000E+00 -0.15387272147E+03  0.15387272147E+03  0.00000000000E+00 0. -1.
          6    2    1    2  501    0  0.47940567394E+02  0.78495756436E+02  0.14840419771E+03  0.24497114663E+03  0.17183473166E+03 0.  0.
         24    2    3    3    0    0  0.75080509087E+02 -0.22285724655E+01  0.83151145171E+02  0.13757913307E+03  0.79823903263E+02 0.  0.
         -6    2    1    2    0  502 -0.47940567394E+02 -0.78495756436E+02 -0.15843498868E+02  0.19533499515E+03  0.17159505265E+03 0.  0.
        -24    2    5    5    0    0 -0.15313809449E+01  0.11057771105E+02 -0.35571009628E+02  0.92451995769E+02  0.84601745646E+02 0.  0.
          5    1    3    3  501    0 -0.27139941694E+02  0.80724328901E+02  0.65253052542E+02  0.10739201357E+03  0.47000000000E+01 0. -1.
        -13    1    4    4    0    0  0.34440438532E+02  0.29030817691E+02  0.67174932873E+01  0.45541814831E+02  0.00000000000E+00 0.  1.
         14    1    4    4    0    0  0.40640070556E+02 -0.31259390157E+02  0.76433651884E+02  0.92037318236E+02  0.00000000000E+00 0. -1.
         -5    1    5    5    0  502 -0.46409186449E+02 -0.89553527541E+02  0.19727510761E+02  0.10288299939E+03  0.47000000000E+01 0.  1.
         13    1    6    6    0    0 -0.22839381492E+02  0.30047437450E+02  0.96687268539E+01  0.38961136062E+02  0.00000000000E+00 0. -1.
        -14    1    6    6    0    0  0.21308000547E+02 -0.18989666345E+02 -0.45239736482E+02  0.53490859707E+02  0.00000000000E+00 0.  1.
</event>
<event>
12    1  0.8562501E-002  0.2219702E+03  0.7818608E-02  0.1135349E+00
         21   -1    0    0  503  502  0.00000000000E+00  0.00000000000E+00  0.20111922532E+04  0.20111922532E+04  0.00000000000E+00 0. -1.
         21   -1    0    0  501  503 -0.00000000000E+00 -0.00000000000E+00 -0.32054729862E+02  0.32054729862E+02  0.00000000000E+00 0. -1.
          6    2    1    2  501    0 -0.10770851019E+03 -0.43050128185E+02  0.46721006403E+03  0.51725817752E+03  0.18925205830E+03 0.  0.
         24    2    3    3    0    0  0.16501140440E+02  0.18633606516E+02  0.16762213517E+03  0.18709467627E+03  0.79295263173E+02 0.  0.
         -6    2    1    2    0  502  0.10770851019E+03  0.43050128185E+02  0.15119274593E+04  0.15259888056E+04  0.17106360147E+03 0.  0.
        -24    2    5    5    0    0  0.69825404879E+02  0.94719009159E+02  0.10831960634E+04  0.10924712133E+04  0.79576141652E+02 0.  0.
          5    1    3    3  501    0 -0.12420965063E+03 -0.61683734701E+02  0.29958792886E+03  0.33016350124E+03  0.47000000000E+01 0. -1.
        -11    1    4    4    0    0  0.13725661635E+02  0.36961414414E+01  0.17095115195E+03  0.17154110761E+03  0.00000000000E+00 0.  1.
         12    1    4    4    0    0  0.27754788044E+01  0.14937465075E+02 -0.33290167715E+01  0.15553568662E+02  0.00000000000E+00 0. -1.
         -5    1    5    5    0  502  0.37883105308E+02 -0.51668880974E+02  0.42873139596E+03  0.43351759227E+03  0.47000000000E+01 0.  1.
         13    1    6    6    0    0  0.40625794693E+02  0.67576359607E+02  0.95427339046E+03  0.95752531210E+03  0.00000000000E+00 0. -1.
        -14    1    6    6    0    0  0.29199610186E+02  0.27142649552E+02  0.12892267292E+03  0.13494590120E+03  0.00000000000E+00 0.  1.
</event>
<event>
12    1  0.8562501E-002  0.2120455E+03  0.7818608E-02  0.1140437E+00
         21   -1    0    0  503  502  0.00000000000E+00  0.00000000000E+00  0.19924413846E+03  0.19924413846E+03  0.00000000000E+00 0.  1.
         21   -1    0    0  501  503 -0.00000000000E+00 -0.00000000000E+00 -0.22842273678E+03  0.22842273678E+03  0.00000000000E+00 0.  1.
          6    2    1    2  501    0 -0.10540839349E+03 -0.58258615786E+02  0.18048969341E+02  0.21281229487E+03  0.17452309825E+03 0.  0.
         24    2    3    3    0    0 -0.12065790455E+02 -0.47907281190E+01 -0.45222957839E+02  0.87924011510E+02  0.74276385945E+02 0.  0.
         -6    2    1    2    0  502  0.10540839349E+03  0.58258615786E+02 -0.47227567664E+02  0.21485458037E+03  0.17154314858E+03 0.  0.
        -24    2    5    5    0    0  0.12403356952E+02  0.21692062107E+02 -0.74646889821E+02  0.11111953857E+03  0.78428342259E+02 0.  0.
          5    1    3    3  501    0 -0.93342603034E+02 -0.53467887667E+02  0.63271927180E+02  0.12488828336E+03  0.47000000000E+01 0. -1.
        -13    1    4    4    0    0 -0.37682352051E+02  0.79830989676E+01 -0.45085121722E+02  0.59298884694E+02  0.00000000000E+00 0.  1.
         14    1    4    4    0    0  0.25616561596E+02 -0.12773827087E+02 -0.13783611697E+00  0.28625126816E+02  0.00000000000E+00 0. -1.
         -5    1    5    5    0  502  0.93005036537E+02  0.36566553678E+02  0.27419322157E+02  0.10373504180E+03  0.47000000000E+01 0.  1.
         13    1    6    6    0    0 -0.38543657482E+01 -0.11018961286E+02  0.12210917196E+02  0.16893198096E+02  0.00000000000E+00 0. -1.
        -14    1    6    6    0    0  0.16257722700E+02  0.32711023394E+02 -0.86857807017E+02  0.94226340472E+02  0.00000000000E+00 0.  1.
</event>
<event>
12    1  0.8562501E-002  0.3868635E+03  0.7818608E-02  0.1048467E+00
         21   -1    0    0  501  502  0.00000000000E+00  0.00000000000E+00  0.13664877680E+03  0.13664877680E+03  0.00000000000E+00 0. -1.
         21   -1    0    0  502  503 -0.00000000000E+00 -0.00000000000E+00 -0.11072278509E+04  0.11072278509E+04  0.00000000000E+00 0.  1.
         -6    2    1    2    0  503  0.18882116418E+03  0.29084894284E+03 -0.41686706966E+03  0.56840618023E+03  0.17047255603E+03 0.  0.
        -24    2    3    3    0    0  0.12071258738E+03  0.92068649478E+02 -0.13929574338E+03  0.22023910189E+03  0.77806123860E+02 0.  0.
          6    2    1    2  501    0 -0.18882116418E+03 -0.29084894284E+03 -0.55371200441E+03  0.67547044743E+03  0.17151327041E+03 0.  0.
         24    2    5    5    0    0 -0.13956624075E+03 -0.27282109860E+03 -0.38453725327E+03  0.49828907970E+03  0.80703286110E+02 0.  0.
          5    1    5    5  501    0 -0.49254923431E+02 -0.18027844239E+02 -0.16917475113E+03  0.17718136773E+03  0.47000000000E+01 0. -1.
        -11    1    6    6    0    0 -0.69166798303E+02 -0.98546001940E+02 -0.20851950945E+03  0.24078153232E+03  0.00000000000E+00 0.  1.
         12    1    6    6    0    0 -0.70399442450E+02 -0.17427509666E+03 -0.17601774382E+03  0.25750754737E+03  0.00000000000E+00 0. -1.
         -5    1    3    3    0  503  0.68108576802E+02  0.19878029336E+03 -0.27757132628E+03  0.34816707834E+03  0.47000000000E+01 0.  1.
         11    1    4    4    0    0 -0.15542012708E+01  0.70773616284E+01  0.79977547347E+01  0.10792065141E+02  0.00000000000E+00 0. -1.
        -12    1    4    4    0    0  0.12226678865E+03  0.84991287849E+02 -0.14729349811E+03  0.20944703675E+03  0.00000000000E+00 0.  1.
</event>
<event>
12    1  0.8562501E-002  0.1749229E+03  0.7818608E-02  0.1173303E+00
         21   -1    0    0  503  502  0.00000000000E+00  0.00000000000E+00  0.47658095348E+02  0.47658095348E+02  0.00000000000E+00 0.  1.
         21   -1    0    0  501  503 -0.00000000000E+00 -0.00000000000E+00 -0.83766798481E+03  0.83766798481E+03  0.00000000000E+00 0.  1.
          6    2    1    2  501    0 -0.18789767187E+02 -0.12770491742E+02 -0.61112334446E+03  0.63512929245E+03  0.17146817540E+03 0.  0.
         24    2    3    3    0    0 -0.57164569451E+02  0.37765888081E+02 -0.44673229571E+03  0.45885377502E+03  0.79265329888E+02 0.  0.
         -6    2    1    2    0  502  0.18789767187E+02  0.12770491742E+02 -0.17888654501E+03  0.25019678771E+03  0.17344133241E+03 0.  0.
        -24    2    5    5    0    0 -0.40811115747E+02  0.52610540156E+02 -0.11093977439E+03  0.15131125620E+03  0.78447731699E+02 0.  0.
          5    1    3    3  501    0  0.38374802264E+02 -0.50536379823E+02 -0.16439104875E+03  0.17627551743E+03  0.47000000000E+01 0. -1.
        -11    1    4    4    0    0 -0.24257170268E+02  0.60005934047E+02 -0.29417732519E+03  0.30121324852E+03  0.00000000000E+00 0.  1.
         12    1    4    4    0    0 -0.32907399183E+02 -0.22240045966E+02 -0.15255497052E+03  0.15764052650E+03  0.00000000000E+00 0. -1.
         -5    1    5    5    0  502  0.59600882934E+02 -0.39840048413E+02 -0.67946770619E+02  0.98885531508E+02  0.47000000000E+01 0.  1.
         11    1    6    6    0    0  0.72543525616E+01  0.46225925201E+02 -0.83184421954E+02  0.95441656773E+02  0.00000000000E+00 0. -1.
        -12    1    6    6    0    0 -0.48065468308E+02  0.63846149549E+01 -0.27755352434E+02  0.55869599431E+02  0.00000000000E+00 0.  1.
</event>
<event>
12    1  0.8562501E-002  0.1849842E+03  0.7818608E-02  0.1163266E+00
         21   -1    0    0  503  502  0.00000000000E+00  0.00000000000E+00  0.18759595206E+03  0.18759595206E+03  0.00000000000E+00 0.  1.
         21   -1    0    0  501  503 -0.00000000000E+00 -0.00000000000E+00 -0.23581690728E+03  0.23581690728E+03  0.00000000000E+00 0.  1.
          6    2    1    2  501    0  0.15116916445E+02  0.64127301436E+02 -0.12561316989E+03  0.22289173079E+03  0.17193377577E+03 0.  0.
         24    2    3    3    0    0  0.61935051982E+01  0.80044738309E+02 -0.15258978704E+03  0.18998550133E+03  0.79783005519E+02 0.  0.
         -6    2    1    2    0  502 -0.15116916445E+02 -0.64127301436E+02  0.77392214670E+02  0.20052112855E+03  0.17285351067E+03 0.  0.
        -24    2    5    5    0    0  0.18905151083E+02 -0.43615655390E+02  0.11328790704E+03  0.14677338968E+03  0.80302851165E+02 0.  0.
          5    1    3    3  501    0  0.89234112464E+01 -0.15917436873E+02  0.26976617143E+02  0.32906229461E+02  0.47000000000E+01 0. -1.
        -11    1    4    4    0    0 -0.30872337340E+02  0.67202560907E+02 -0.99057991068E+02  0.12361946044E+03  0.00000000000E+00 0.  1.
         12    1    4    4    0    0  0.37065842538E+02  0.12842177402E+02 -0.53531795967E+02  0.66366040887E+02  0.00000000000E+00 0. -1.
         -5    1    5    5    0  502 -0.34022067528E+02 -0.20511646047E+02 -0.35895692372E+02  0.53747738866E+02  0.47000000000E+01 0.  1.
         13    1    6    6    0    0 -0.13257723608E+02  0.15445681612E+02  0.51777413989E+02  0.55634853420E+02  0.00000000000E+00 0. -1.
        -14    1    6    6    0    0  0.32162874692E+02 -0.59061337002E+02  0.61510493052E+02  0.91138536264E+02  0.00000000000E+00 0.  1.
</event>
<event>
12    1  0.8562501E-002  0.2127348E+03  0.7818608E-02  0.1139882E+00
         21   -1    0    0  503  502  0.00000000000E+00  0.00000000000E+00  0.76472116517E+02  0.76472116517E+02  0.00000000000E+00 0. -1.
         21   -1    0    0  501  503 -0.00000000000E+00 -0.00000000000E+00 -0.65586405587E+03  0.65586405587E+03  0.00000000000E+00 0. -1.
          6    2    1    2  501    0 -0.12446151196E+03 -0.23865658184E+01 -0.17098366370E+03  0.27293132466E+03  0.17251008978E+03 0.  0.
         24    2    3    3    0    0 -0.10218628276E+03 -0.20835098984E+02 -0.38699587585E+02  0.13744073088E+03  0.80722727229E+02 0.  0.
         -6    2    1    2    0  502  0.12446151196E+03  0.23865658184E+01 -0.40840827565E+03  0.45940484772E+03  0.16958517280E+03 0.  0.
        -24    2    5    5    0    0  0.61548081222E+02  0.63081383202E+02 -0.28071083828E+03  0.30458015287E+03  0.78759555517E+02 0.  0.
          5    1    3    3  501    0 -0.22275229204E+02  0.18448533165E+02 -0.13228407611E+03  0.13549059379E+03  0.47000000000E+01 0. -1.
        -13    1    4    4    0    0 -0.59191425875E+02 -0.51059086936E+02 -0.14176925812E+02  0.79445833631E+02  0.00000000000E+00 0.  1.
         14    1    4    4    0    0 -0.42994856881E+02  0.30223987953E+02 -0.24522661773E+02  0.57994897245E+02  0.00000000000E+00 0. -1.
         -5    1    5    5    0  502  0.62913430737E+02 -0.60694817384E+02 -0.12769743737E+03  0.15482469485E+03  0.47000000000E+01 0.  1.
         13    1    6    6    0    0  0.77256256213E+02  0.32494567031E+02 -0.19868522737E+03  0.21563915597E+03  0.00000000000E+00 0. -1.
        -14    1    6    6    0    0 -0.15708174991E+02  0.30586816171E+02 -0.82025610911E+02  0.88940996904E+02  0.00000000000E+00 0.  1.
</event>
<event>
12    1  0.8562501E-002  0.1832457E+03  0.7818608E-02  0.1164912E+00
         21   -1    0    0  503  502  0.00000000000E+00  0.00000000000E+00  0.14309288831E+03  0.14309288831E+03  0.00000000000E+00 0.  1.
         21   -1    0    0  501  503 -0.00000000000E+00 -0.00000000000E+00 -0.27739803064E+03  0.27739803064E+03  0.00000000000E+00 0.  1.
          6    2    1    2  501    0 -0.62484732351E+02  0.82430141636E+00 -0.15091639794E+03  0.23739153575E+03  0.17226131554E+03 0.  0.
         24    2    3    3    0    0 -0.10578944415E+03  0.12558907163E+02 -0.89499440055E+02  0.16118699683E+03  0.81375460273E+02 0.  0.
         -6    2    1    2    0  502  0.62484732351E+02 -0.82430141636E+00  0.16611255601E+02  0.18309938320E+03  0.17130215721E+03 0.  0.
        -24    2    5    5    0    0 -0.42000499074E+01  0.48430237941E+02 -0.13580531190E+02  0.94744961567E+02  0.80181347885E+02 0.  0.
          5    1    3    3  501    0  0.43304711802E+02 -0.11734605747E+02 -0.61416957884E+02  0.76204538920E+02  0.47000000000E+01 0. -1.
        -13    1    4    4    0    0 -0.38802147838E+02  0.12987824882E+02 -0.84652676099E+02  0.94023219699E+02  0.00000000000E+00 0.  1.
         14    1    4    4    0    0 -0.66987296315E+02 -0.42891771822E+00 -0.48467639560E+01  0.67163777134E+02  0.00000000000E+00 0. -1.
         -5    1    5    5    0  502  0.66684782258E+02 -0.49254539357E+02  0.30191786791E+02  0.88354421631E+02  0.47000000000E+01 0.  1.
         11    1    6    6    0    0 -0.18260973183E+02  0.29512804445E+01  0.26635157535E+02  0.32428456867E+02  0.00000000000E+00 0. -1.
        -12    1    6    6    0    0  0.14060923276E+02  0.45478957496E+02 -0.40215688725E+02  0.62316504700E+02  0.00000000000E+00 0.  1.
</event>
<event>
12    1  0.8562501E-002  0.1886066E+03  0.7818608E-02  0.1160339E+00
         21   -1    0    0  503  502  0.00000000000E+00  0.00000000000E+00  0.11938268390E+03  0.11938268390E+03  0.00000000000E+00 0. -1.
         21   -1    0    0  501  503 -0.00000000000E+00 -0.00000000000E+00 -0.40386333237E+03  0.40386333237E+03  0.00000000000E+00 0. -1.
          6    2    1    2  501    0 -0.48535555439E+02  0.47963209013E+02 -0.27810522814E+03  0.33453165702E+03  0.17295300536E+03 0.  0.
         24    2    3    3    0    0  0.13955684273E+02  0.17274012222E+02 -0.51222538280E+02  0.97161004236E+02  0.79519555423E+02 0.  0.
         -6    2    1    2    0  502  0.48535555439E+02 -0.47963209013E+02 -0.63754203262E+01  0.18871435925E+03  0.17583029842E+03 0.  0.
        -24    2    5    5    0    0  0.10133571209E+02 -0.47884702946E+02  0.59851061048E+02  0.11201523676E+03  0.81053252344E+02 0.  0.
          5    1    3    3  501    0 -0.62491239713E+02  0.30689196792E+02 -0.22688268986E+03  0.23737065278E+03  0.47000000000E+01 0. -1.
        -13    1    4    4    0    0 -0.26460695861E+02 -0.12860032091E+02 -0.31292441140E+02  0.42950736005E+02  0.00000000000E+00 0.  1.
         14    1    4    4    0    0  0.40416380134E+02  0.30134044313E+02 -0.19930097140E+02  0.54210268232E+02  0.00000000000E+00 0. -1.
         -5    1    5    5    0  502  0.38401984230E+02 -0.78506067621E-01 -0.66226481375E+02  0.76699122493E+02  0.47000000000E+01 0.  1.
         13    1    6    6    0    0 -0.99812319512E+01 -0.27983383061E+02 -0.14062768727E+02  0.32870293322E+02  0.00000000000E+00 0. -1.
        -14    1    6    6    0    0  0.20114803161E+02 -0.19901319885E+02  0.73913829776E+02  0.79144943436E+02  0.00000000000E+00 0.  1.
</event>
<event>
12    1  0.8562501E-002  0.1741000E+03  0.7818608E-02  0.1173907E+00
         21   -1    0    0  503  502  0.00000000000E+00  0.00000000000E+00  0.24674330416E+04  0.24674330416E+04  0.00000000000E+00 0. -1.
         21   -1    0    0  501  503 -0.00000000000E+00 -0.00000000000E+00 -0.14841674311E+02  0.14841674311E+02  0.00000000000E+00 0. -1.
          6    2    1    2  501    0  0.10765113535E+02 -0.14551482363E+02  0.70671392647E+03  0.72784296337E+03  0.17315649610E+03 0.  0.
         24    2    3    3    0    0  0.60878898430E+02 -0.47004142902E+02  0.39242405800E+03  0.40789800242E+03  0.80427043665E+02 0.  0.
         -6    2    1    2    0  502 -0.10765113535E+02  0.14551482363E+02  0.17458774408E+04  0.17544317525E+04  0.17209039102E+03 0.  0.
        -24    2    5    5    0    0 -0.25166578540E+02 -0.55954498724E+02  0.90757272051E+03  0.91303090298E+03  0.78567958982E+02 0.  0.
          5    1    3    3  501    0 -0.50113784894E+02  0.32452660539E+02  0.31428986847E+03  0.31994496095E+03  0.47000000000E+01 0. -1.
        -11    1    4    4    0    0 -0.18369234823E+02 -0.98833664136E+01  0.44643406152E+02  0.49276195394E+02  0.00000000000E+00 0.  1.
         12    1    4    4    0    0  0.79248133252E+02 -0.37120776488E+02  0.34778065185E+03  0.35862180702E+03  0.00000000000E+00 0. -1.
         -5    1    5    5    0  502  0.14401465005E+02  0.70505981087E+02  0.83830472030E+03  0.84140084956E+03  0.47000000000E+01 0.  1.
         13    1    6    6    0    0 -0.24403355275E+02 -0.33848957276E+02  0.16722231818E+03  0.17235016494E+03  0.00000000000E+00 0. -1.
        -14    1    6    6    0    0 -0.76322326536E+00 -0.22105541448E+02  0.74035040233E+03  0.74068073804E+03  0.00000000000E+00 0.  1.
</event>
<event>
12    1  0.8562501E-002  0.2019546E+03  0.7818608E-02  0.1148499E+00
         21   -1    0    0  503  502  0.00000000000E+00  0.00000000000E+00  0.64377803006E+02  0.64377803006E+02  0.00000000000E+00 0. -1.
         21   -1    0    0  501  503 -0.00000000000E+00 -0.00000000000E+00 -0.64204309550E+03  0.64204309550E+03  0.00000000000E+00 0. -1.
          6    2    1    2  501    0 -0.70152093793E+02  0.81150349382E+02 -0.34319679481E+03  0.39820813204E+03  0.17111101949E+03 0.  0.
         24    2    3    3    0    0 -0.68795292923E+02  0.27575128069E+02 -0.93561189933E+02  0.14284139484E+03  0.78465201222E+02 0.  0.
         -6    2    1    2    0  502  0.70152093793E+02 -0.81150349382E+02 -0.23446849769E+03  0.30821276647E+03  0.16885774349E+03 0.  0.
        -24    2    5    5    0    0 -0.73238396750E+01 -0.20222155419E+01 -0.14462726941E+03  0.16553369256E+03  0.80166254325E+02 0.  0.
          5    1    3    3  501    0 -0.13568008693E+01  0.53575221313E+02 -0.24963560487E+03  0.25536673720E+03  0.47000000000E+01 0. -1.
        -11    1    4    4    0    0 -0.56323988761E+02  0.36041903320E+02 -0.23039090633E+02  0.70726304881E+02  0.00000000000E+00 0.  1.
         12    1    4    4    0    0 -0.12471304162E+02 -0.84667752512E+01 -0.70522099300E+02  0.72115089963E+02  0.00000000000E+00 0. -1.
         -5    1    5    5    0  502  0.77475933468E+02 -0.79128133840E+02 -0.89841228284E+02  0.14267907391E+03  0.47000000000E+01 0.  1.
         11    1    6    6    0    0  0.29743668913E+02 -0.57246150087E+01 -0.22171403023E+02  0.37537023982E+02  0.00000000000E+00 0. -1.
        -12    1    6    6    0    0 -0.37067508588E+02  0.37023994668E+01 -0.12245586639E+03  0.12799666858E+03  0.00000000000E+00 0.  1.
</event>
<event>
12    1  0.8562501E-002  0.1941894E+03  0.7818608E-02  0.1156114E+00
         21   -1    0    0  501  502  0.00000000000E+00  0.00000000000E+00  0.10761713906E+03  0.10761713906E+03  0.00000000000E+00 0.  1.
         21   -1    0    0  502  503 -0.00000000000E+00 -0.00000000000E+00 -0.51735223830E+03  0.51735223830E+03  0.00000000000E+00 0. -1.
         -6    2    1    2    0  503 -0.61863541386E+02 -0.48974657326E+02 -0.39032003488E+03  0.43595785187E+03  0.17743704282E+03 0.  0.
        -24    2    3    3    0    0 -0.46261202249E+02 -0.93913413964E+02 -0.20633997402E+03  0.24586924719E+03  0.83160529578E+02 0.  0.
          6    2    1    2  501    0  0.61863541386E+02  0.48974657326E+02 -0.19415064360E+02  0.18901152549E+03  0.17065402788E+03 0.  0.
         24    2    5    5    0    0  0.26893527980E+02  0.51416994224E+02 -0.74066797490E+02  0.12391337819E+03  0.80632906823E+02 0.  0.
          5    1    5    5  501    0  0.34970013406E+02 -0.24423368982E+01  0.54651733130E+02  0.65098147295E+02  0.47000000000E+01 0. -1.
        -13    1    6    6    0    0 -0.86689397125E+01  0.38955826021E+02  0.99794103343E+00  0.39921207184E+02  0.00000000000E+00 0.  1.
         14    1    6    6    0    0  0.35562467693E+02  0.12461168203E+02 -0.75064738523E+02  0.83992171010E+02  0.00000000000E+00 0. -1.
         -5    1    3    3    0  503 -0.15602339137E+02  0.44938756637E+02 -0.18398006086E+03  0.19008860468E+03  0.47000000000E+01 0.  1.
         13    1    4    4    0    0 -0.57348224886E+02 -0.23246815342E+02 -0.87703310317E+02  0.10733640557E+03  0.00000000000E+00 0. -1.
        -14    1    4    4    0    0  0.11087022637E+02 -0.70666598622E+02 -0.11863666370E+03  0.13853284161E+03  0.00000000000E+00 0.  1.
</event>
<event>
12    1  0.8562501E-002  0.2000991E+03  0.7818608E-02  0.1149918E+00
         21   -1    0    0  501  502  0.00000000000E+00  0.00000000000E+00  0.29009278710E+03  0.29009278710E+03  0.00000000000E+00 0. -1.
         21   -1    0    0  502  503 -0.00000000000E+00 -0.00000000000E+00 -0.20714348808E+03  0.20714348808E+03  0.00000000000E+00 0. -1.
         -6    2    1    2    0  503  0.96132553031E+02 -0.17883443746E+02 -0.10310908923E+03  0.22400123373E+03  0.17315826032E+03 0.  0.
        -24    2    3    3    0    0  0.89800478639E+02 -0.33949580825E+02 -0.57983733481E+01  0.12505841512E+03  0.79933009815E+02 0.  0.
          6    2    1    2  501    0 -0.96132553031E+02  0.17883443746E+02  0.18605838825E+03  0.27323504145E+03  0.17458057947E+03 0.  0.
         24    2    5    5    0    0 -0.73654872882E+02 -0.54200469201E+02  0.13205479927E+03  0.18028444041E+03  0.81861335710E+02 0.  0.
          5    1    5    5  501    0 -0.22477680149E+02  0.72083912947E+02  0.54003588980E+02  0.92950601038E+02  0.47000000000E+01 0. -1.
        -13    1    6    6    0    0  0.84533161692E+01 -0.25698357427E+02  0.69150989840E+01  0.27922799334E+02  0.00000000000E+00 0.  1.
         14    1    6    6    0    0 -0.82108189051E+02 -0.28502111774E+02  0.12513970028E+03  0.15236164108E+03  0.00000000000E+00 0. -1.
         -5    1    3    3    0  503  0.63320743915E+01  0.16066137079E+02 -0.97310715886E+02  0.98942818603E+02  0.47000000000E+01 0.  1.
         13    1    4    4    0    0  0.96587022360E+02 -0.91540737047E+01 -0.14110392859E+02  0.98040568849E+02  0.00000000000E+00 0. -1.
        -14    1    4    4    0    0 -0.67865437207E+01 -0.24795507120E+02  0.83120195107E+01  0.27017846275E+02  0.00000000000E+00 0.  1.
</event>
<event>
12    1  0.8562501E-002  0.2084477E+03  0.7818608E-02  0.1143130E+00
         21   -1    0    0  503  502  0.00000000000E+00  0.00000000000E+00  0.11925686888E+03  0.11925686888E+03  0.00000000000E+00 0.  1.
         21   -1    0    0  501  503 -0.00000000000E+00 -0.00000000000E+00 -0.43884952335E+03  0.43884952335E+03  0.00000000000E+00 0.  1.
          6    2    1    2  501    0  0.10834732048E+03 -0.44505692775E+02 -0.27748021545E+03  0.34705288085E+03  0.17242544359E+03 0.  0.
         24    2    3    3    0    0  0.16035232745E+02  0.24261261920E+02 -0.15037317022E+03  0.17550490929E+03  0.85697989149E+02 0.  0.
         -6    2    1    2    0  502 -0.10834732048E+03  0.44505692775E+02 -0.42112439024E+02  0.21105351138E+03  0.17044127610E+03 0.  0.
        -24    2    5    5    0    0 -0.13743921134E+03  0.16524208308E+02 -0.13188542604E+02  0.16117382242E+03  0.81489122612E+02 0.  0.
          5    1    3    3  501    0  0.92312087737E+02 -0.68766954695E+02 -0.12710704523E+03  0.17154797156E+03  0.47000000000E+01 0. -1.
        -13    1    4    4    0    0  0.36745953009E+02  0.15837278659E+02 -0.14765646567E+03  0.15298207840E+03  0.00000000000E+00 0.  1.
         14    1    4    4    0    0 -0.20710720264E+02  0.84239832612E+01 -0.27167045553E+01  0.22522830894E+02  0.00000000000E+00 0. -1.
         -5    1    5    5    0  502  0.29091890854E+02  0.27981484467E+02 -0.28923896420E+02  0.49879688958E+02  0.47000000000E+01 0.  1.
         13    1    6    6    0    0 -0.37070482713E+02  0.42513811639E+02  0.16973908413E+01  0.56431604659E+02  0.00000000000E+00 0. -1.
        -14    1    6    6    0    0 -0.10036872862E+03 -0.25989603331E+02 -0.14885933445E+02  0.10474221776E+03  0.00000000000E+00 0.  1.
</event>
<event>
12    1  0.8562501E-002  0.2150845E+03  0.7818608E-02  0.1137776E+00
         21   -1    0    0  501  502  0.00000000000E+00  0.00000000000E+00  0.54423196743E+03  0.54423196743E+03  0.00000000000E+00 0. -1.
         21   -1    0    0  502  503 -0.00000000000E+00 -0.00000000000E+00 -0.85694281346E+02  0.85694281346E+02  0.00000000000E+00 0. -1.
         -6    2    1    2    0  503 -0.73025974731E+02 -0.10610733748E+03  0.19490019309E+03  0.29025408622E+03  0.17224920682E+03 0.  0.
        -24    2    3    3    0    0  0.23307038754E+02 -0.19024807927E+02  0.78295714111E+02  0.11566281794E+03  0.79639859584E+02 0.  0.
          6    2    1    2  501    0  0.73025974731E+02  0.10610733748E+03  0.26363749299E+03  0.33967216255E+03  0.17111659840E+03 0.  0.
         24    2    5    5    0    0  0.50624998192E+02 -0.11423611111E+02  0.96014899693E+02  0.13367519313E+03  0.77180353471E+02 0.  0.
          5    1    5    5  501    0  0.22400976539E+02  0.11753094859E+03  0.16762259330E+03  0.20599696942E+03  0.47000000000E+01 0. -1.
        -13    1    6    6    0    0  0.58732673350E+02  0.12552110918E+02  0.39866689162E+02  0.72086304608E+02  0.00000000000E+00 0.  1.
         14    1    6    6    0    0 -0.81076751574E+01 -0.23975722029E+02  0.56148210531E+02  0.61588888520E+02  0.00000000000E+00 0. -1.
         -5    1    3    3    0  503 -0.96333013486E+02 -0.87082529556E+02  0.11660447898E+03  0.17459126828E+03  0.47000000000E+01 0.  1.
         11    1    4    4    0    0 -0.19654800309E+02 -0.34271132076E+02  0.38100479774E+02  0.54885956564E+02  0.00000000000E+00 0. -1.
        -12    1    4    4    0    0  0.42961839064E+02  0.15246324149E+02  0.40195234337E+02  0.60776861380E+02  0.00000000000E+00 0.  1.
</event>
<event>
12    1  0.8562501E-002  0.2039216E+03  0.7818608E-02  0.1146548E+00
         21   -1    0    0  501  502  0.00000000000E+00  0.00000000000E+00  0.22418403536E+03  0.22418403536E+03  0.00000000000E+00 0.  1.
         21   -1    0    0  502  503 -0.00000000000E+00 -0.00000000000E+00 -0.21128585854E+03  0.21128585854E+03  0.00000000000E+00 0.  1.
         -6    2    1    2    0  503  0.72129598255E+02  0.80860550090E+02  0.83027996825E+02  0.22017643375E+03  0.17275099484E+03 0.  0.
        -24    2    3    3    0    0  0.16734591945E+02  0.11120807834E+03  0.41280783378E+02  0.14431801942E+03  0.80475489423E+02 0.  0.
          6    2    1    2  501    0 -0.72129598255E+02 -0.80860550090E+02 -0.70129820004E+02  0.21529346015E+03  0.17231359443E+03 0.  0.
         24    2    5    5    0    0  0.23336853103E+02 -0.43248065348E+02 -0.60566263756E+02  0.11213293499E+03  0.80563756960E+02 0.  0.
          5    1    5    5  501    0 -0.95466451358E+02 -0.37612484742E+02 -0.95635562477E+01  0.10316052516E+03  0.47000000000E+01 0. -1.
        -11    1    6    6    0    0 -0.20240227112E+02  0.19294452073E+01  0.54390020230E+01  0.21046907026E+02  0.00000000000E+00 0.  1.
         12    1    6    6    0    0  0.43577080215E+02 -0.45177510556E+02 -0.66005265779E+02  0.91086027966E+02  0.00000000000E+00 0. -1.
         -5    1    3    3    0  503  0.55395006310E+02 -0.30347528246E+02  0.41747213447E+02  0.75858414334E+02  0.47000000000E+01 0.  1.
         13    1    4    4    0    0 -0.28893797895E+02  0.51516247192E+02  0.10143981832E+01  0.59074565468E+02  0.00000000000E+00 0. -1.
        -14    1    4    4    0    0  0.45628389840E+02  0.59691831144E+02  0.40266385195E+02  0.85243453951E+02  0.00000000000E+00 0.  1.
</event>
<event>
12    1  0.8562501E-002  0.2526826E+03  0.7818608E-02  0.1111932E+00
         21   -1    0    0  501  502  0.00000000000E+00  0.00000000000E+00  0.56860956792E+03  0.56860956792E+03  0.00000000000E+00 0.  1.
         21   -1    0    0  502  503 -0.00000000000E+00 -0.00000000000E+00 -0.11384078776E+03  0.11384078776E+03  0.00000000000E+00 0.  1.
         -6    2    1    2    0  503  0.59288284393E+02 -0.17257527891E+03  0.27639085984E+03  0.37314926679E+03  0.17190445122E+03 0.  0.
        -24    2    3    3    0    0  0.84174481095E+02 -0.18605805931E+03  0.19937343013E+03  0.29096117378E+03  0.56618859992E+02 0.  0.
          6    2    1    2  501    0 -0.59288284393E+02  0.17257527891E+03  0.17837792032E+03  0.30930108888E+03  0.17478888286E+03 0.  0.
         24    2    5    5    0    0  0.71823137060E+01  0.16506720163E+03  0.14727476431E+03  0.23538080784E+03  0.80096827728E+02 0.  0.
          5    1    5    5  501    0 -0.66470598099E+02  0.75080772812E+01  0.31103156010E+02  0.73920281046E+02  0.47000000000E+01 0. -1.
        -11    1    6    6    0    0 -0.28144981696E+02  0.11247876890E+03  0.11853636277E+03  0.16581460354E+03  0.00000000000E+00 0.  1.
         12    1    6    6    0    0  0.35327295402E+02  0.52588432737E+02  0.28738401536E+02  0.69566204302E+02  0.00000000000E+00 0. -1.
         -5    1    3    3    0  503 -0.24886196702E+02  0.13482780397E+02  0.77017429710E+02  0.82188093011E+02  0.47000000000E+01 0.  1.
         11    1    4    4    0    0  0.25438624304E+02 -0.15737385832E+02  0.43110250966E+02  0.52471731986E+02  0.00000000000E+00 0. -1.
        -12    1    4    4    0    0  0.58735856791E+02 -0.17032067348E+03  0.15626317916E+03  0.23848944180E+03  0.00000000000E+00 0.  1.
</event>
<event>
12    1  0.8562501E-002  0.2623038E+03  0.7818608E-02  0.1105848E+00
         21   -1    0    0  503  502  0.00000000000E+00  0.00000000000E+00  0.46145837443E+03  0.46145837443E+03  0.00000000000E+00 0.  1.
         21   -1    0    0  501  503 -0.00000000000E+00 -0.00000000000E+00 -0.14882560235E+03  0.14882560235E+03  0.00000000000E+00 0. -1.
          6    2    1    2  501    0 -0.53711424198E+02  0.19028165979E+03  0.16087752383E+03  0.30724444301E+03  0.17153875057E+03 0.  0.
         24    2    3    3    0    0 -0.15817793174E+02  0.25068108860E+02  0.21611628178E+02  0.87816722854E+02  0.79787854198E+02 0.  0.
         -6    2    1    2    0  502  0.53711424198E+02 -0.19028165979E+03  0.15175524825E+03  0.30303953377E+03  0.17236959278E+03 0.  0.
        -24    2    5    5    0    0 -0.21423075032E+02 -0.13747009778E+03  0.57345717006E+02  0.17124612102E+03  0.81729595478E+02 0.  0.
          5    1    3    3  501    0 -0.37893631023E+02  0.16521355093E+03  0.13926589566E+03  0.21942772016E+03  0.47000000000E+01 0. -1.
        -11    1    4    4    0    0 -0.38344439049E+02  0.37550291878E+02  0.29028609957E+02  0.61016232448E+02  0.00000000000E+00 0.  1.
         12    1    4    4    0    0  0.22526645875E+02 -0.12482183018E+02 -0.74169817786E+01  0.26800490406E+02  0.00000000000E+00 0. -1.
         -5    1    5    5    0  502  0.75134499230E+02 -0.52811562009E+02  0.94409531242E+02  0.13179341276E+03  0.47000000000E+01 0.  1.
         13    1    6    6    0    0 -0.14314357795E+02 -0.14459013516E+03  0.39190706754E+02  0.15048959938E+03  0.00000000000E+00 0. -1.
        -14    1    6    6    0    0 -0.71087172371E+01  0.71200373858E+01  0.18155010252E+02  0.20756521635E+02  0.00000000000E+00 0.  1.
</event>
<event>
12    1  0.8562501E-002  0.1841138E+03  0.7818608E-02  0.1164721E+00
         21   -1    0    0  503  502  0.00000000000E+00  0.00000000000E+00  0.25481405740E+03  0.25481405740E+03  0.00000000000E+00 0. -1.
         21   -1    0    0  501  503 -0.00000000000E+00 -0.00000000000E+00 -0.14367821756E+03  0.14367821756E+03  0.00000000000E+00 0. -1.
          6    2    1    2  501    0  0.50712303094E+02 -0.29704574816E+02 -0.53010082494E+01  0.18064960598E+03  0.17073980205E+03 0.  0.
         24    2    3    3    0    0  0.51406463004E+02  0.36373913304E+02 -0.43251621779E+02  0.10430048996E+03  0.71008474224E+02 0.  0.
         -6    2    1    2    0  502 -0.50712303094E+02  0.29704574816E+02  0.11643684809E+03  0.21784266897E+03  0.17448148722E+03 0.  0.
        -24    2    5    5    0    0 -0.82774483133E+02  0.60901325964E+02  0.11471981531E+03  0.17282868367E+03  0.78412571148E+02 0.  0.
          5    1    3    3  501    0 -0.69415990996E+00 -0.66078488120E+02  0.37950613530E+02  0.76349116023E+02  0.47000000000E+01 0. -1.
        -11    1    4    4    0    0  0.41124301772E+02  0.52490750009E+02 -0.12130256000E+02  0.67776324357E+02  0.00000000000E+00 0.  1.
         12    1    4    4    0    0  0.10282161232E+02 -0.16116836705E+02 -0.31121365779E+02  0.36524165602E+02  0.00000000000E+00 0. -1.
         -5    1    5    5    0  502  0.32062180039E+02 -0.31196751148E+02  0.17170327780E+01  0.45013985300E+02  0.47000000000E+01 0.  1.
         11    1    6    6    0    0 -0.32029442068E+02  0.53449906401E+01  0.86624939954E+02  0.92511265834E+02  0.00000000000E+00 0. -1.
        -12    1    6    6    0    0 -0.50745041065E+02  0.55556335324E+02  0.28094875353E+02  0.80317417839E+02  0.00000000000E+00 0.  1.
</event>
<event>
12    1  0.8562501E-002  0.1905807E+03  0.7818608E-02  0.1158005E+00
         21   -1    0    0  501  502  0.00000000000E+00  0.00000000000E+00  0.52427425498E+03  0.52427425498E+03  0.00000000000E+00 0.  1.
         21   -1    0    0  502  503 -0.00000000000E+00 -0.00000000000E+00 -0.17085610887E+03  0.17085610887E+03  0.00000000000E+00 0.  1.
         -6    2    1    2    0  503  0.76742582167E+02  0.27295004386E+02 -0.91367879004E+02  0.21135066763E+03  0.17229792283E+03 0.  0.
        -24    2    3    3    0    0  0.24705530035E+02 -0.40565507389E+02 -0.96516156597E+01  0.92976086115E+02  0.79344031284E+02 0.  0.
          6    2    1    2  501    0 -0.76742582167E+02 -0.27295004386E+02  0.44478602511E+03  0.48377969622E+03  0.17197018682E+03 0.  0.
         24    2    5    5    0    0 -0.74100990411E+02  0.15086124461E+02  0.15400126307E+03  0.18987323844E+03  0.81344389576E+02 0.  0.
          5    1    5    5  501    0 -0.26415917560E+01 -0.42381128847E+02  0.29078476204E+03  0.29390645778E+03  0.47000000000E+01 0. -1.
        -11    1    6    6    0    0 -0.37810343159E+02 -0.33128947432E+02  0.78524880638E+02  0.93237900486E+02  0.00000000000E+00 0.  1.
         12    1    6    6    0    0 -0.36290647252E+02  0.48215071893E+02  0.75476382433E+02  0.96635337951E+02  0.00000000000E+00 0. -1.
         -5    1    3    3    0  503  0.52037052132E+02  0.67860511775E+02 -0.81716263345E+02  0.11837458151E+03  0.47000000000E+01 0.  1.
         11    1    4    4    0    0  0.18303887543E+02  0.22516802823E+02 -0.44449943431E+01  0.29356373810E+02  0.00000000000E+00 0. -1.
        -12    1    4    4    0    0  0.64016424912E+01 -0.63082310212E+02 -0.52066213166E+01  0.63619712305E+02  0.00000000000E+00 0.  1.
</event>
<event>
12    1  0.8562501E-002  0.1971520E+03  0.7818608E-02  0.1152435E+00
         21   -1    0    0  501  502  0.00000000000E+00  0.00000000000E+00  0.52221964451E+02  0.52221964451E+02  0.00000000000E+00 0. -1.
         21   -1    0    0  502  503 -0.00000000000E+00 -0.00000000000E+00 -0.10701681613E+04  0.10701681613E+04  0.00000000000E+00 0. -1.
         -6    2    1    2    0  503  0.92138610962E+02 -0.21737258030E+02 -0.81976624936E+03  0.84284729743E+03  0.17150169435E+03 0.  0.
        -24    2    3    3    0    0  0.98549724024E+02  0.36996692857E+02 -0.46584497857E+03  0.48399755829E+03  0.78493878643E+02 0.  0.
          6    2    1    2  501    0 -0.92138610962E+02  0.21737258030E+02 -0.19817994746E+03  0.27954282830E+03  0.17293602650E+03 0.  0.
         24    2    5    5    0    0 -0.64573439574E+02 -0.53910149646E+02 -0.13662694938E+03  0.17808726890E+03  0.77279484418E+02 0.  0.
          5    1    5    5  501    0 -0.27565171388E+02  0.75647407676E+02 -0.61552998077E+02  0.10145555940E+03  0.47000000000E+01 0. -1.
        -11    1    6    6    0    0 -0.10813806748E+02 -0.25773492346E+02  0.69312326781E+00  0.27958750758E+02  0.00000000000E+00 0.  1.
         12    1    6    6    0    0 -0.53759632826E+02 -0.28136657300E+02 -0.13732007265E+03  0.15012851814E+03  0.00000000000E+00 0. -1.
         -5    1    3    3    0  503 -0.64111130617E+01 -0.58733950887E+02 -0.35392127080E+03  0.35884973914E+03  0.47000000000E+01 0.  1.
         11    1    4    4    0    0  0.21333795306E+02  0.48541821862E+01 -0.27199778173E+03  0.27287632212E+03  0.00000000000E+00 0. -1.
        -12    1    4    4    0    0  0.77215928718E+02  0.32142510671E+02 -0.19384719684E+03  0.21112123617E+03  0.00000000000E+00 0.  1.
</event>
<event>
12    1  0.8562501E-002  0.2235992E+03  0.7818608E-02  0.1131308E+00
         21   -1    0    0  501  502  0.00000000000E+00  0.00000000000E+00  0.66059451829E+03  0.66059451829E+03  0.00000000000E+00 0.  1.
         21   -1    0    0  502  503 -0.00000000000E+00 -0.00000000000E+00 -0.98110342782E+02  0.98110342782E+02  0.00000000000E+00 0. -1.
         -6    2    1    2    0  503 -0.14176994566E+03 -0.12205659776E+02  0.99061742181E+02  0.24415949157E+03  0.17190966505E+03 0.  0.
        -24    2    3    3    0    0 -0.95661808097E+02  0.32898143880E+02  0.49761054512E+01  0.12999071084E+03  0.81482230461E+02 0.  0.
          6    2    1    2  501    0  0.14176994566E+03  0.12205659776E+02  0.46342243333E+03  0.51454536950E+03  0.17247866519E+03 0.  0.
         24    2    5    5    0    0  0.16023390566E+03  0.10478699737E+02  0.29942989904E+03  0.34944073143E+03  0.81644673284E+02 0.  0.
          5    1    5    5  501    0 -0.18463960003E+02  0.17269600389E+01  0.16399253429E+03  0.16510463807E+03  0.47000000000E+01 0. -1.
        -11    1    6    6    0    0  0.88904251714E+02 -0.11707451873E+02  0.23230814977E+03  0.24901427038E+03  0.00000000000E+00 0.  1.
         12    1    6    6    0    0  0.71329653945E+02  0.22186151610E+02  0.67121749265E+02  0.10042646105E+03  0.00000000000E+00 0. -1.
         -5    1    3    3    0  503 -0.46108137560E+02 -0.45103803657E+02  0.94085636730E+02  0.11416878073E+03  0.47000000000E+01 0.  1.
         13    1    4    4    0    0 -0.76791255620E+02 -0.11292038359E+02  0.19051287656E+02  0.79920952393E+02  0.00000000000E+00 0. -1.
        -14    1    4    4    0    0 -0.18870552476E+02  0.44190182239E+02 -0.14075182205E+02  0.50069758450E+02  0.00000000000E+00 0.  1.
</event>
<event>
12    1  0.8562501E-002  0.2131084E+03  0.7818608E-02  0.1139669E+00
         21   -1    0    0  503  502  0.00000000000E+00  0.00000000000E+00  0.45709319563E+03  0.45709319563E+03  0.00000000000E+00 0.  1.
         21   -1    0    0  501  503 -0.00000000000E+00 -0.00000000000E+00 -0.59552349175E+03  0.59552349175E+03  0.00000000000E+00 0.  1.
          6    2    1    2  501    0 -0.10052621702E+03 -0.67399993741E+02 -0.55031162147E+03  0.59013394039E+03  0.17540498113E+03 0.  0.
         24    2    3    3    0    0 -0.42679979166E+02  0.24616593962E+02 -0.33834620663E+03  0.35188057370E+03  0.83151820720E+02 0.  0.
         -6    2    1    2    0  502  0.10052621702E+03  0.67399993741E+02  0.41188132535E+03  0.46248274700E+03  0.17203425716E+03 0.  0.
        -24    2    5    5    0    0  0.73889281298E+02  0.78312542734E+02  0.15805716376E+03  0.20698831442E+03  0.79180900803E+02 0.  0.
          5    1    3    3  501    0 -0.57846237857E+02 -0.92016587703E+02 -0.21196541484E+03  0.23825336669E+03  0.47000000000E+01 0. -1.
        -11    1    4    4    0    0 -0.22637653915E+01  0.16328141855E+02 -0.27964818830E+03  0.28013361467E+03  0.00000000000E+00 0.  1.
         12    1    4    4    0    0 -0.40416213775E+02  0.82884521070E+01 -0.58698018326E+02  0.71746959027E+02  0.00000000000E+00 0. -1.
         -5    1    5    5    0  502  0.26636935725E+02 -0.10912548993E+02  0.25382416159E+03  0.25549443257E+03  0.47000000000E+01 0.  1.
         13    1    6    6    0    0  0.23693863863E+02 -0.10247542016E+00  0.17096021168E+00  0.23694702221E+02  0.00000000000E+00 0. -1.
        -14    1    6    6    0    0  0.50195417436E+02  0.78415018154E+02  0.15788620355E+03  0.18329361220E+03  0.00000000000E+00 0.  1.
</event>
<event>
12    1  0.8562501E-002  0.2388984E+03  0.7818608E-02  0.1122041E+00
         21   -1    0    0  501  502  0.00000000000E+00  0.00000000000E+00  0.74878972180E+03  0.74878972180E+03  0.00000000000E+00 0. -1.
         21   -1    0    0  502  503 -0.00000000000E+00 -0.00000000000E+00 -0.12550174010E+03  0.12550174010E+03  0.00000000000E+00 0.  1.
         -6    2    1    2    0  503 -0.15259524260E+03 -0.17781693145E+02  0.58977339030E+03  0.63305369433E+03  0.17123910570E+03 0.  0.
        -24    2    3    3    0    0 -0.89669105426E+02 -0.10737618219E+02  0.53802685796E+03  0.55114452915E+03  0.78304196645E+02 0.  0.
          6    2    1    2  501    0  0.15259524260E+03  0.17781693145E+02  0.33514591393E+02  0.24123776756E+03  0.18295063812E+03 0.  0.
         24    2    5    5    0    0  0.15253541313E+03 -0.25613067003E+02 -0.16577883239E+02  0.17479640392E+03  0.79723742717E+02 0.  0.
          5    1    5    5  501    0  0.59829474870E-01  0.43394760148E+02  0.50092474632E+02  0.66441363642E+02  0.47000000000E+01 0. -1.
        -13    1    6    6    0    0  0.75993291232E+02  0.14811852860E+02  0.21315879380E+02  0.80304034837E+02  0.00000000000E+00 0.  1.
         14    1    6    6    0    0  0.76542121894E+02 -0.40424919863E+02 -0.37893762619E+02  0.94492369085E+02  0.00000000000E+00 0. -1.
         -5    1    3    3    0  503 -0.62926137175E+02 -0.70440749261E+01  0.51746532343E+02  0.81909165182E+02  0.47000000000E+01 0.  1.
         13    1    4    4    0    0 -0.48865716931E+02 -0.87436336198E+01  0.46353959287E+03  0.46619015817E+03  0.00000000000E+00 0. -1.
        -14    1    4    4    0    0 -0.40803388495E+02 -0.19939845988E+01  0.74487265089E+02  0.84954370975E+02  0.00000000000E+00 0.  1.
</event>
<event>
12    1  0.8562501E-002  0.2493332E+03  0.7818608E-02  0.1115174E+00
         21   -1    0    0  503  502  0.00000000000E+00  0.00000000000E+00  0.15339226767E+04  0.15339226767E+04  0.00000000000E+00 0. -1.
         21   -1    0    0  501  503 -0.00000000000E+00 -0.00000000000E+00 -0.39576546869E+02  0.39576546869E+02  0.00000000000E+00 0.  1.
          6    2    1    2  501    0  0.15109011631E+03  0.99923229755E+02  0.64611173589E+03  0.68937896688E+03  0.15801933309E+03 0.  0.
         24    2    3    3    0    0  0.13340692361E+03  0.99349926672E+02  0.64509025385E+03  0.67104437100E+03  0.80568585944E+02 0.  0.
         -6    2    1    2    0  502 -0.15109011631E+03 -0.99923229755E+02  0.84823439389E+03  0.88412025664E+03  0.17133057557E+03 0.  0.
        -24    2    5    5    0    0 -0.57100101427E+02 -0.42345695812E+02  0.19872471712E+03  0.22530753246E+03  0.78856778110E+02 0.  0.
          5    1    3    3  501    0  0.17683192704E+02  0.57330308265E+00  0.10214820417E+01  0.18334595883E+02  0.47000000000E+01 0. -1.
        -11    1    4    4    0    0  0.83196527501E+02  0.36455162670E+02  0.21356972134E+03  0.23208331898E+03  0.00000000000E+00 0.  1.
         12    1    4    4    0    0  0.50210396108E+02  0.62894764003E+02  0.43152053251E+03  0.43896105202E+03  0.00000000000E+00 0. -1.
         -5    1    5    5    0  502 -0.93990014886E+02 -0.57577533943E+02  0.64950967677E+03  0.65881272417E+03  0.47000000000E+01 0.  1.
         11    1    6    6    0    0  0.18066821302E+02  0.13489260138E+01  0.47981947014E+02  0.51288369760E+02  0.00000000000E+00 0. -1.
        -12    1    6    6    0    0 -0.75166922729E+02 -0.43694621826E+02  0.15074277010E+03  0.17401916270E+03  0.00000000000E+00 0.  1.
</event>
<event>
12    1  0.8562501E-002  0.2084014E+03  0.7818608E-02  0.1143074E+00
         21   -1    0    0  501  502  0.00000000000E+00  0.00000000000E+00  0.26908892104E+03  0.26908892104E+03  0.00000000000E+00 0. -1.
         21   -1    0    0  502  503 -0.00000000000E+00 -0.00000000000E+00 -0.24052957370E+03  0.24052957370E+03  0.00000000000E+00 0.  1.
         -6    2    1    2    0  503 -0.10325962801E+01 -0.11657597548E+03 -0.13268040336E+03  0.24705307914E+03  0.17274290192E+03 0.  0.
        -24    2    3    3    0    0 -0.35864070296E+02 -0.63050251669E+01 -0.84727149031E+02  0.12177531309E+03  0.79527053356E+02 0.  0.
          6    2    1    2  501    0  0.10325962801E+01  0.11657597548E+03  0.16123975070E+03  0.26256541560E+03  0.17132225760E+03 0.  0.
         24    2    5    5    0    0 -0.39060377608E+02  0.11147082537E+03  0.62169784853E+02  0.15546519503E+03  0.79704998031E+02 0.  0.
          5    1    5    5  501    0  0.40092973888E+02  0.51051501179E+01  0.99069965843E+02  0.10710022056E+03  0.47000000000E+01 0. -1.
        -11    1    6    6    0    0  0.61675834955E+01  0.93694415399E+02  0.41072021916E+02  0.10248704088E+03  0.00000000000E+00 0.  1.
         12    1    6    6    0    0 -0.45227961103E+02  0.17776409966E+02  0.21097762937E+02  0.52978154156E+02  0.00000000000E+00 0. -1.
         -5    1    3    3    0  503  0.34831474016E+02 -0.11027095032E+03 -0.47953254333E+02  0.12527776605E+03  0.47000000000E+01 0.  1.
         13    1    4    4    0    0  0.22820228622E+02 -0.15836961342E+02 -0.22889985403E+02  0.35993382873E+02  0.00000000000E+00 0. -1.
        -14    1    4    4    0    0 -0.58684298918E+02  0.95319361751E+01 -0.61837163628E+02  0.85781930220E+02  0.00000000000E+00 0.  1.
</event>
<event>
12    1  0.8562501E-002  0.1952598E+03  0.7818608E-02  0.1155932E+00
         21   -1    0    0  501  502  0.00000000000E+00  0.00000000000E+00  0.61531262568E+02  0.61531262568E+02  0.00000000000E+00 0. -1.
         21   -1    0    0  502  503 -0.00000000000E+00 -0.00000000000E+00 -0.59197471627E+03  0.59197471627E+03  0.00000000000E+00 0.  1.
         -6    2    1    2    0  503 -0.69052294456E+02  0.18567272305E+02 -0.23852220839E+03  0.30230175365E+03  0.17140753599E+03 0.  0.
        -24    2    3    3    0    0  0.12442733073E+02  0.53054034999E+02 -0.13563771600E+03  0.16651484306E+03  0.79749926156E+02 0.  0.
          6    2    1    2  501    0  0.69052294456E+02 -0.18567272305E+02 -0.29192124531E+03  0.35120422519E+03  0.18169598607E+03 0.  0.
         24    2    5    5    0    0 -0.16416207777E+02  0.18905934223E+02 -0.21289066833E+03  0.22882355605E+03  0.80067826952E+02 0.  0.
          5    1    5    5  501    0  0.85468502233E+02 -0.37473206527E+02 -0.79030576979E+02  0.12238066914E+03  0.47000000000E+01 0. -1.
        -13    1    6    6    0    0 -0.25032297300E+02 -0.19078272322E+02 -0.16041086956E+03  0.16346939608E+03  0.00000000000E+00 0.  1.
         14    1    6    6    0    0  0.86160895224E+01  0.37984206544E+02 -0.52479798771E+02  0.65354159963E+02  0.00000000000E+00 0. -1.
         -5    1    3    3    0  503 -0.81495027529E+02 -0.34486762694E+02 -0.10288449240E+03  0.13578691059E+03  0.47000000000E+01 0.  1.
         11    1    4    4    0    0  0.38077082727E+02  0.88483549162E+00 -0.60978060127E+02  0.71895556050E+02  0.00000000000E+00 0. -1.
        -12    1    4    4    0    0 -0.25634349654E+02  0.52169199507E+02 -0.74659655871E+02  0.94619287009E+02  0.00000000000E+00 0.  1.
</event>
<event>
12    1  0.8562501E-002  0.2112069E+03  0.7818608E-02  0.1141206E+00
         21   -1    0    0  503  502  0.00000000000E+00  0.00000000000E+00  0.10559494864E+03  0.10559494864E+03  0.00000000000E+00 0.  1.
         21   -1    0    0  501  503 -0.00000000000E+00 -0.00000000000E+00 -0.44960082754E+03  0.44960082754E+03  0.00000000000E+00 0.  1.
          6    2    1    2  501    0  0.29152559047E+02  0.11201496718E+03 -0.24846869807E+03  0.32610590084E+03  0.17666674864E+03 0.  0.
         24    2    3    3    0    0  0.16554292127E+02  0.14735747931E+03 -0.22674943998E+03  0.28249826775E+03  0.80010570864E+02 0.  0.
         -6    2    1    2    0  502 -0.29152559047E+02 -0.11201496718E+03 -0.95537180829E+02  0.22908987534E+03  0.17308262041E+03 0.  0.
        -24    2    5    5    0    0 -0.54831630224E+02 -0.29631892415E+02 -0.21140913460E+01  0.10182499662E+03  0.80494122980E+02 0.  0.
          5    1    3    3  501    0  0.12598266919E+02 -0.35342512126E+02 -0.21719258083E+02  0.43607633098E+02  0.47000000000E+01 0. -1.
        -13    1    4    4    0    0 -0.13081908026E+02  0.78109768560E+02 -0.17206943444E+03  0.18942059690E+03  0.00000000000E+00 0.  1.
         14    1    4    4    0    0  0.29636200153E+02  0.69247710750E+02 -0.54680005547E+02  0.93077670847E+02  0.00000000000E+00 0. -1.
         -5    1    5    5    0  502  0.25679071178E+02 -0.82383074769E+02 -0.93423089483E+02  0.12726487871E+03  0.47000000000E+01 0.  1.
         11    1    6    6    0    0 -0.14090706925E+02  0.27729343137E+02  0.31951472277E+01  0.31267770279E+02  0.00000000000E+00 0. -1.
        -12    1    6    6    0    0 -0.40740923299E+02 -0.57361235552E+02 -0.53092385737E+01  0.70557226346E+02  0.00000000000E+00 0.  1.
</event>
<event>
12    1  0.8562501E-002  0.1889006E+03  0.7818608E-02  0.1159878E+00
         21   -1    0    0  501  502  0.00000000000E+00  0.00000000000E+00  0.19458238444E+04  0.19458238444E+04  0.00000000000E+00 0. -1.
         21   -1    0    0  502  503 -0.00000000000E+00 -0.00000000000E+00 -0.19493317543E+02  0.19493317543E+02  0.00000000000E+00 0. -1.
         -6    2    1    2    0  503  0.44443545534E+02  0.61988029618E+02  0.70174343449E+03  0.72624614214E+03  0.17079773585E+03 0.  0.
        -24    2    3    3    0    0  0.62661148004E+02  0.89244574677E+02  0.65608112036E+03  0.66983747951E+03  0.79679350429E+02 0.  0.
          6    2    1    2  501    0 -0.44443545534E+02 -0.61988029618E+02  0.12245870923E+04  0.12390710198E+04  0.17281695738E+03 0.  0.
         24    2    5    5    0    0  0.14749784446E+02  0.19217682969E+02  0.42887002467E+03  0.43701992424E+03  0.80436562821E+02 0.  0.
          5    1    5    5  501    0 -0.59193329980E+02 -0.81205712586E+02  0.79571706764E+03  0.80205109551E+03  0.47000000000E+01 0. -1.
        -11    1    6    6    0    0  0.25122997011E+02 -0.26248687336E+02  0.15449987681E+03  0.15871474569E+03  0.00000000000E+00 0.  1.
         12    1    6    6    0    0 -0.10373212565E+02  0.45466370304E+02  0.27437014787E+03  0.27830517855E+03  0.00000000000E+00 0. -1.
         -5    1    3    3    0  503 -0.18217602470E+02 -0.27256545059E+02  0.45662314132E+02  0.56408662634E+02  0.47000000000E+01 0.  1.
         13    1    4    4    0    0  0.52873337890E+02  0.16884773816E+02  0.18552551472E+03  0.19365020542E+03  0.00000000000E+00 0. -1.
        -14    1    4    4    0    0  0.97878101136E+01  0.72359800861E+02  0.47055560564E+03  0.47618727409E+03  0.00000000000E+00 0.  1.
</event>
<event>
12    1  0.8562501E-002  0.2276508E+03  0.7818608E-02  0.1128610E+00
         21   -1    0    0  503  502  0.00000000000E+00  0.00000000000E+00  0.13424708229E+03  0.13424708229E+03  0.00000000000E+00 0.  1.
         21   -1    0    0  501  503 -0.00000000000E+00 -0.00000000000E+00 -0.39633684271E+03  0.39633684271E+03  0.00000000000E+00 0.  1.
          6    2    1    2  501    0  0.14565463340E+03  0.13501296255E+02 -0.82182782806E+02  0.24042638584E+03  0.17220127754E+03 0.  0.
         24    2    3    3    0    0  0.16231448138E+03 -0.57365302130E+01 -0.30474215892E+02  0.18260329016E+03  0.77694176728E+02 0.  0.
         -6    2    1    2    0  502 -0.14565463340E+03 -0.13501296255E+02 -0.17990697762E+03  0.29015753916E+03  0.17443428478E+03 0.  0.
        -24    2    5    5    0    0 -0.11049254430E+02 -0.38530035532E+02 -0.86792526685E+02  0.12451504217E+03  0.79777210886E+02 0.  0.
          5    1    3    3  501    0 -0.16659847978E+02  0.19237826468E+02 -0.51708566914E+02  0.57823095681E+02  0.47000000000E+01 0. -1.
        -13    1    4    4    0    0  0.59227637224E+02 -0.78853825957E+01 -0.49697974707E+02  0.77717314414E+02  0.00000000000E+00 0.  1.
         14    1    4    4    0    0  0.10308684416E+03  0.21488523827E+01  0.19223758815E+02  0.10488597574E+03  0.00000000000E+00 0. -1.
         -5    1    5    5    0  502 -0.13460537897E+03  0.25028739277E+02 -0.93114450935E+02  0.16564249699E+03  0.47000000000E+01 0.  1.
         11    1    6    6    0    0  0.27809457980E+02  0.72709334633E+01 -0.34240942104E+02  0.44706538031E+02  0.00000000000E+00 0. -1.
        -12    1    6    6    0    0 -0.38858712409E+02 -0.45800968995E+02 -0.52551584581E+02  0.79808504139E+02  0.00000000000E+00 0.  1.
</event>
<event>
12    1  0.8562501E-002  0.2085239E+03  0.7818608E-02  0.1143496E+00
         21   -1    0    0  501  502  0.00000000000E+00  0.00000000000E+00  0.11028955278E+03  0.11028955278E+03  0.00000000000E+00 0.  1.
         21   -1    0    0  502  503 -0.00000000000E+00 -0.00000000000E+00 -0.44159428492E+03  0.44159428492E+03  0.00000000000E+00 0. -1.
         -6    2    1    2    0  503 -0.10295649291E+02 -0.11785660822E+03 -0.67495054383E+02  0.21561348660E+03  0.16714488547E+03 0.  0.
        -24    2    3    3    0    0  0.24077367992E+02 -0.19264284963E+01 -0.35462941421E+02  0.90435784312E+02  0.79608919686E+02 0.  0.
          6    2    1    2  501    0  0.10295649291E+02  0.11785660822E+03 -0.26380967775E+03  0.33627035110E+03  0.17171494536E+03 0.  0.
         24    2    5    5    0    0 -0.53149363833E+02  0.10315708009E+03 -0.19494458029E+03  0.24137126014E+03  0.82404234035E+02 0.  0.
          5    1    5    5  501    0  0.63445013124E+02  0.14699528135E+02 -0.68865097455E+02  0.94899090960E+02  0.47000000000E+01 0. -1.
        -13    1    6    6    0    0 -0.13948272668E+02  0.28689308263E+02 -0.33089255365E+01  0.32071478095E+02  0.00000000000E+00 0.  1.
         14    1    6    6    0    0 -0.39201091165E+02  0.74467771827E+02 -0.19163565476E+03  0.20929978204E+03  0.00000000000E+00 0. -1.
         -5    1    3    3    0  503 -0.34373017282E+02 -0.11593017973E+03 -0.32032112962E+02  0.12517770229E+03  0.47000000000E+01 0.  1.
         13    1    4    4    0    0 -0.10643305337E+02 -0.74774516506E+01 -0.50533401166E+02  0.52180617715E+02  0.00000000000E+00 0. -1.
        -14    1    4    4    0    0  0.34720673328E+02  0.55510231543E+01  0.15070459745E+02  0.38255166597E+02  0.00000000000E+00 0.  1.
</event>
<event>
12    1  0.8562501E-002  0.1805241E+03  0.7818608E-02  0.1167385E+00
         21   -1    0    0  501  502  0.00000000000E+00  0.00000000000E+00  0.30804287563E+02  0.30804287563E+02  0.00000000000E+00 0.  1.
         21   -1    0    0  502  503 -0.00000000000E+00 -0.00000000000E+00 -0.14718933361E+04  0.14718933361E+04  0.00000000000E+00 0.  1.
         -6    2    1    2    0  503  0.39270078557E+02 -0.34827711812E+02 -0.11205582230E+04  0.11350064691E+04  0.17272476723E+03 0.  0.
        -24    2    3    3    0    0  0.36159623803E+02 -0.50560904276E+02 -0.35814485962E+03  0.37240996051E+03  0.80978483436E+02 0.  0.
          6    2    1    2  501    0 -0.39270078557E+02  0.34827711812E+02 -0.32053082557E+03  0.36769115458E+03  0.17234171415E+03 0.  0.
         24    2    5    5    0    0 -0.29209956464E+02  0.87245212986E+02 -0.25279898614E+03  0.28132859001E+03  0.82301272295E+02 0.  0.
          5    1    5    5  501    0 -0.10060122093E+02 -0.52417501174E+02 -0.67731839428E+02  0.86362564564E+02  0.47000000000E+01 0. -1.
        -13    1    6    6    0    0  0.55910675806E+01  0.38915007277E+02 -0.26716216726E+02  0.47533083891E+02  0.00000000000E+00 0.  1.
         14    1    6    6    0    0 -0.34801024045E+02  0.48330205709E+02 -0.22608276941E+03  0.23379550612E+03  0.00000000000E+00 0. -1.
         -5    1    3    3    0  503  0.31104547532E+01  0.15733192464E+02 -0.76241336337E+03  0.76259650860E+03  0.47000000000E+01 0.  1.
         11    1    4    4    0    0  0.59032067228E+02 -0.16986387960E+02 -0.22018534535E+03  0.22859332589E+03  0.00000000000E+00 0. -1.
        -12    1    4    4    0    0 -0.22872443424E+02 -0.33574516316E+02 -0.13795951427E+03  0.14381663462E+03  0.00000000000E+00 0.  1.
</event>
<event>
12    1  0.8562501E-002  0.1823934E+03  0.7818608E-02  0.1165652E+00
         21   -1    0    0  503  502  0.00000000000E+00  0.00000000000E+00  0.74351801538E+03  0.74351801538E+03  0.00000000000E+00 0.  1.
         21   -1    0    0  501  503 -0.00000000000E+00 -0.00000000000E+00 -0.45389111785E+02  0.45389111785E+02  0.00000000000E+00 0.  1.
          6    2    1    2  501    0  0.14599308853E+02 -0.57979598438E+02  0.29741380508E+03  0.34888725975E+03  0.17231533568E+03 0.  0.
         24    2    3    3    0    0 -0.46258228923E+02  0.56633555597E+01  0.12686024780E+03  0.15688551133E+03  0.79672102095E+02 0.  0.
         -6    2    1    2    0  502 -0.14599308853E+02  0.57979598438E+02  0.40071509852E+03  0.44001986742E+03  0.17166863397E+03 0.  0.
        -24    2    5    5    0    0  0.48823721868E+01 -0.14324006276E+02  0.32168544771E+03  0.33104683013E+03  0.76690688812E+02 0.  0.
          5    1    3    3  501    0  0.60857537776E+02 -0.63642953997E+02  0.17055355728E+03  0.19200174842E+03  0.47000000000E+01 0. -1.
        -13    1    4    4    0    0 -0.24595473871E+01 -0.29793191230E+02  0.19669945472E+02  0.35785337387E+02  0.00000000000E+00 0.  1.
         14    1    4    4    0    0 -0.43798681536E+02  0.35456546789E+02  0.10719030233E+03  0.12110017394E+03  0.00000000000E+00 0. -1.
         -5    1    5    5    0  502 -0.19481681040E+02  0.72303604714E+02  0.79029650805E+02  0.10897303729E+03  0.47000000000E+01 0.  1.
         11    1    6    6    0    0  0.25253794500E+02 -0.24530032152E+02  0.28938471271E+03  0.29151841891E+03  0.00000000000E+00 0. -1.
        -12    1    6    6    0    0 -0.20371422314E+02  0.10206025876E+02  0.32300735003E+02  0.39528411213E+02  0.00000000000E+00 0.  1.
</event>
<event>
12    1  0.8562501E-002  0.2568515E+03  0.7818608E-02  0.1109314E+00
         21   -1    0    0  501  502  0.00000000000E+00  0.00000000000E+00  0.20011104532E+03  0.20011104532E+03  0.00000000000E+00 0. -1.
         21   -1    0    0  502  503 -0.00000000000E+00 -0.00000000000E+00 -0.37976726588E+03  0.37976726588E+03  0.00000000000E+00 0. -1.
         -6    2    1    2    0  503  0.57499183518E+02  0.18381555369E+03  0.17501330413E+02  0.25744710843E+03  0.16993646809E+03 0.  0.
        -24    2    3    3    0    0  0.77189161753E+02  0.58696323632E+02  0.55383668299E+01  0.13013756648E+03  0.86612283208E+02 0.  0.
          6    2    1    2  501    0 -0.57499183518E+02 -0.18381555369E+03 -0.19715755098E+03  0.32243120277E+03  0.16732144731E+03 0.  0.
         24    2    5    5    0    0 -0.34800015019E+01 -0.51733612067E+01 -0.64664220825E+02  0.93503970894E+02  0.67250702907E+02 0.  0.
          5    1    5    5  501    0 -0.54019182016E+02 -0.17864219248E+03 -0.13249333015E+03  0.22892723188E+03  0.47000000000E+01 0. -1.
        -11    1    6    6    0    0  0.31379857694E+02 -0.79055202978E+01 -0.27389770034E+02  0.42395662781E+02  0.00000000000E+00 0.  1.
         12    1    6    6    0    0 -0.34859859196E+02  0.27321590911E+01 -0.37274450791E+02  0.51108308114E+02  0.00000000000E+00 0. -1.
         -5    1    3    3    0  503 -0.19689978235E+02  0.12511923005E+03  0.11962963583E+02  0.12730954194E+03  0.47000000000E+01 0.  1.
         13    1    4    4    0    0  0.21612147985E+02  0.33047385953E+02 -0.38173371188E+02  0.54921953049E+02  0.00000000000E+00 0. -1.
        -14    1    4    4    0    0  0.55577013767E+02  0.25648937679E+02  0.43711738018E+02  0.75215613432E+02  0.00000000000E+00 0.  1.
</event>
<event>
12    1  0.8562501E-002  0.1826808E+03  0.7818608E-02  0.1165421E+00
         21   -1    0    0  501  502  0.00000000000E+00  0.00000000000E+00  0.12898861645E+04  0.12898861645E+04  0.00000000000E+00 0.  1.
         21   -1    0    0  502  503 -0.00000000000E+00 -0.00000000000E+00 -0.11280694927E+03  0.11280694927E+03  0.00000000000E+00 0.  1.
         -6    2    1    2    0  503  0.51018152544E+02  0.31309393167E+02  0.12043321759E+04  0.12179906272E+04  0.17176160264E+03 0.  0.
        -24    2    3    3    0    0  0.70768383825E+01 -0.19574109460E+02  0.98834526157E+03  0.99173323600E+03  0.79216336120E+02 0.  0.
          6    2    1    2  501    0 -0.51018152544E+02 -0.31309393167E+02 -0.27252960697E+02  0.18470248651E+03  0.17259534949E+03 0.  0.
         24    2    5    5    0    0 -0.54392284843E+02 -0.62393394110E+02  0.31959248830E+02  0.11757741190E+03  0.77146600215E+02 0.  0.
          5    1    5    5  501    0  0.33741322995E+01  0.31084000943E+02 -0.59212209528E+02  0.67125074604E+02  0.47000000000E+01 0. -1.
        -13    1    6    6    0    0 -0.34225873173E+02  0.11846797835E+02  0.10553914303E+02  0.37724555936E+02  0.00000000000E+00 0.  1.
         14    1    6    6    0    0 -0.20166411670E+02 -0.74240191946E+02  0.21405334527E+02  0.79852855966E+02  0.00000000000E+00 0. -1.
         -5    1    3    3    0  503  0.43941314161E+02  0.50883502627E+02  0.21598691432E+03  0.22625739124E+03  0.47000000000E+01 0.  1.
         13    1    4    4    0    0 -0.14237957770E+02 -0.24777267656E+02  0.12983666990E+03  0.13294432400E+03  0.00000000000E+00 0. -1.
        -14    1    4    4    0    0  0.21314796152E+02  0.52031581959E+01  0.85850859168E+03  0.85878891200E+03  0.00000000000E+00 0.  1.
</event>
<event>
12    1  0.8562501E-002  0.2182211E+03  0.7818608E-02  0.1135344E+00
         21   -1    0    0  503  502  0.00000000000E+00  0.00000000000E+00  0.18158420712E+03  0.18158420712E+03  0.00000000000E+00 0.  1.
         21   -1    0    0  501  503 -0.00000000000E+00 -0.00000000000E+00 -0.26381171967E+03  0.26381171967E+03  0.00000000000E+00 0. -1.
          6    2    1    2  501    0  0.11671816056E+03 -0.60750792826E+02 -0.62165753637E+02  0.22625462662E+03  0.17324199060E+03 0.  0.
         24    2    3    3    0    0  0.10238931304E+03  0.70341658077E+01  0.48933164122E+01  0.12971900954E+03  0.79183495617E+02 0.  0.
         -6    2    1    2    0  502 -0.11671816056E+03  0.60750792826E+02 -0.20061758912E+02  0.21914130018E+03  0.17408804508E+03 0.  0.
        -24    2    5    5    0    0 -0.25309959609E+02  0.33523831352E+02 -0.67800687453E+02  0.11238053055E+03  0.79170759151E+02 0.  0.
          5    1    3    3  501    0  0.14328847525E+02 -0.67784958633E+02 -0.67059070049E+02  0.96535617076E+02  0.47000000000E+01 0. -1.
        -13    1    4    4    0    0 -0.22818817337E+01  0.10791531128E+02  0.21027613434E+02  0.23744992210E+02  0.00000000000E+00 0.  1.
         14    1    4    4    0    0  0.10467119477E+03 -0.37573653200E+01 -0.16134297022E+02  0.10597401733E+03  0.00000000000E+00 0. -1.
         -5    1    5    5    0  502 -0.91408200953E+02  0.27226961473E+02  0.47738928541E+02  0.10676076962E+03  0.47000000000E+01 0.  1.
         13    1    6    6    0    0 -0.38909440928E+01  0.57406589105E+02 -0.44104546807E+02  0.72497358350E+02  0.00000000000E+00 0. -1.
        -14    1    6    6    0    0 -0.21419015516E+02 -0.23882757753E+02 -0.23696140645E+02  0.39883172204E+02  0.00000000000E+00 0.  1.
</event>
<event>
12    1  0.8562501E-002  0.2707980E+03  0.7818608E-02  0.1101738E+00
         21   -1    0    0  501  502  0.00000000000E+00  0.00000000000E+00  0.39419568110E+03  0.39419568110E+03  0.00000000000E+00 0.  1.
         21   -1    0    0  502  503 -0.00000000000E+00 -0.00000000000E+00 -0.24826880788E+03  0.24826880788E+03  0.00000000000E+00 0.  1.
         -6    2    1    2    0  503 -0.72825678921E+02  0.18729301786E+03 -0.93994037239E+02  0.28067228347E+03  0.17192962985E+03 0.  0.
        -24    2    3    3    0    0 -0.11333649743E+03  0.10327766049E+03 -0.61757415901E+02  0.18187452820E+03  0.75848063818E+02 0.  0.
          6    2    1    2  501    0  0.72825678921E+02 -0.18729301786E+03  0.23992091045E+03  0.36179220552E+03  0.18151942775E+03 0.  0.
         24    2    5    5    0    0  0.11899208068E+03 -0.10760792352E+03  0.16646571004E+03  0.24389900224E+03  0.77700130018E+02 0.  0.
          5    1    5    5  501    0 -0.46166401759E+02 -0.79685094338E+02  0.73455200417E+02  0.11789320328E+03  0.47000000000E+01 0. -1.
        -13    1    6    6    0    0  0.12419945402E+02 -0.36343105010E+02  0.81498466552E+02  0.90094818807E+02  0.00000000000E+00 0.  1.
         14    1    6    6    0    0  0.10657213528E+03 -0.71264818512E+02  0.84967243486E+02  0.15380418343E+03  0.00000000000E+00 0. -1.
         -5    1    3    3    0  503  0.40510818507E+02  0.84015357372E+02 -0.32236621338E+02  0.98797755267E+02  0.47000000000E+01 0.  1.
         13    1    4    4    0    0  0.20059664394E+01 -0.79972570167E+01 -0.11027189671E+02  0.13768766582E+02  0.00000000000E+00 0. -1.
        -14    1    4    4    0    0 -0.11534246387E+03  0.11127491750E+03 -0.50730226230E+02  0.16810576162E+03  0.00000000000E+00 0.  1.
</event>
<event>
12    1  0.8562501E-002  0.2792771E+03  0.7818608E-02  0.1096175E+00
         21   -1    0    0  503  502  0.00000000000E+00  0.00000000000E+00  0.22934512906E+04  0.22934512906E+04  0.00000000000E+00 0.  1.
         21   -1    0    0  501  503 -0.00000000000E+00 -0.00000000000E+00 -0.34537552067E+02  0.34537552067E+02  0.00000000000E+00 0. -1.
          6    2    1    2  501    0 -0.21260088884E+03  0.56900548555E+02  0.12828665038E+04  0.13127726569E+04  0.17084721745E+03 0.  0.
         24    2    3    3    0    0 -0.11170048860E+03  0.32688270969E+02  0.10253413653E+04  0.10350886420E+04  0.80858266171E+02 0.  0.
         -6    2    1    2    0  502  0.21260088884E+03 -0.56900548555E+02  0.97604723476E+03  0.10152161858E+04  0.17192698771E+03 0.  0.
        -24    2    5    5    0    0  0.23613502263E+03 -0.51281859511E+02  0.88553736856E+03  0.92141026383E+03  0.80192675193E+02 0.  0.
          5    1    3    3  501    0 -0.10090040023E+03  0.24212277586E+02  0.25752513850E+03  0.27768401487E+03  0.47000000000E+01 0. -1.
        -13    1    4    4    0    0 -0.67924970821E+02  0.10414459302E+02  0.28687675113E+03  0.29499242866E+03  0.00000000000E+00 0.  1.
         14    1    4    4    0    0 -0.43775517782E+02  0.22273811667E+02  0.73846461418E+03  0.74009621337E+03  0.00000000000E+00 0. -1.
         -5    1    5    5    0  502 -0.23534133788E+02 -0.56186890443E+01  0.90509866195E+02  0.93805921979E+02  0.47000000000E+01 0.  1.
         13    1    6    6    0    0  0.38283549005E+02 -0.37373460638E+02  0.13799813577E+03  0.14800638892E+03  0.00000000000E+00 0. -1.
        -14    1    6    6    0    0  0.19785147362E+03 -0.13908398873E+02  0.74753923279E+03  0.77340387492E+03  0.00000000000E+00 0.  1.
</event>
<event>
12    1  0.8562501E-002  0.1935855E+03  0.7818608E-02  0.1155453E+00
         21   -1    0    0  501  502  0.00000000000E+00  0.00000000000E+00  0.82648135598E+02  0.82648135598E+02  0.00000000000E+00 0. -1.
         21   -1    0    0  502  503 -0.00000000000E+00 -0.00000000000E+00 -0.64415689126E+03  0.64415689126E+03  0.00000000000E+00 0. -1.
         -6    2    1    2    0  503  0.85871956075E+02 -0.16596094535E+00 -0.47994385876E+03  0.51751467478E+03  0.17349729297E+03 0.  0.
        -24    2    3    3    0    0  0.64660693207E+02 -0.65910305737E+02 -0.26581513960E+03  0.29246926845E+03  0.79720830995E+02 0.  0.
          6    2    1    2  501    0 -0.85871956075E+02  0.16596094535E+00 -0.81564896902E+02  0.20929035208E+03  0.17255607402E+03 0.  0.
         24    2    5    5    0    0 -0.11810622474E+03 -0.11055388340E+02 -0.95821763569E+02  0.17200342403E+03  0.79574277054E+02 0.  0.
          5    1    5    5  501    0  0.32234268668E+02  0.11221349286E+02  0.14256866667E+02  0.37286928052E+02  0.47000000000E+01 0. -1.
        -11    1    6    6    0    0 -0.30966987668E+01  0.49466159832E+01 -0.44787162475E+02  0.45165788773E+02  0.00000000000E+00 0.  1.
         12    1    6    6    0    0 -0.11500952598E+03 -0.16002004324E+02 -0.51034601094E+02  0.12683763525E+03  0.00000000000E+00 0. -1.
         -5    1    3    3    0  503  0.21211262868E+02  0.65744344792E+02 -0.21412871915E+03  0.22504540633E+03  0.47000000000E+01 0.  1.
         13    1    4    4    0    0  0.69506082367E+02 -0.22785769083E+02 -0.20577010093E+03  0.21838411388E+03  0.00000000000E+00 0. -1.
        -14    1    4    4    0    0 -0.48453891601E+01 -0.43124536654E+02 -0.60045038676E+02  0.74085154567E+02  0.00000000000E+00 0.  1.
</event>
<event>
12    1  0.8562501E-002  0.2563940E+03  0.7818608E-02  0.1109703E+00
         21   -1    0    0  501  502  0.00000000000E+00  0.00000000000E+00  0.26516672741E+03  0.26516672741E+03  0.00000000000E+00 0.  1.
         21   -1    0    0  502  503 -0.00000000000E+00 -0.00000000000E+00 -0.15304955932E+04  0.15304955932E+04  0.00000000000E+00 0. -1.
         -6    2    1    2    0  503 -0.11363578920E+03 -0.14510940539E+03 -0.14548354848E+04  0.14768353794E+04  0.17471868235E+03 0.  0.
        -24    2    3    3    0    0 -0.87156890356E+02 -0.31967829534E+02 -0.99556981729E+03  0.10030746892E+04  0.79883072704E+02 0.  0.
          6    2    1    2  501    0  0.11363578920E+03  0.14510940539E+03  0.18950661908E+03  0.31882694112E+03  0.17823587626E+03 0.  0.
         24    2    5    5    0    0  0.34905764740E+02  0.51116404501E+02  0.16614580606E+03  0.19392330405E+03  0.78552655966E+02 0.  0.
          5    1    5    5  501    0  0.78730024464E+02  0.93993000889E+02  0.23360813019E+02  0.12490363707E+03  0.47000000000E+01 0. -1.
        -13    1    6    6    0    0 -0.68973865710E+01  0.57233034228E+02  0.91283009496E+02  0.10796194687E+03  0.00000000000E+00 0.  1.
         14    1    6    6    0    0  0.41803151311E+02 -0.61166297270E+01  0.74862796565E+02  0.85961357180E+02  0.00000000000E+00 0. -1.
         -5    1    3    3    0  503 -0.26478898849E+02 -0.11314157585E+03 -0.45926566753E+03  0.47376069027E+03  0.47000000000E+01 0.  1.
         13    1    4    4    0    0 -0.81661337028E+02 -0.49894806215E+02 -0.92895691203E+03  0.93387312310E+03  0.00000000000E+00 0. -1.
        -14    1    4    4    0    0 -0.54955533280E+01  0.17926976681E+02 -0.66612905266E+02  0.69201566075E+02  0.00000000000E+00 0.  1.
</event>
<event>
12    1  0.8562501E-002  0.1899871E+03  0.7818608E-02  0.1158879E+00
         21   -1    0    0  501  502  0.00000000000E+00  0.00000000000E+00  0.92189874970E+02  0.92189874970E+02  0.00000000000E+00 0.  1.
         21   -1    0    0  502  503 -0.00000000000E+00 -0.00000000000E+00 -0.51175430899E+03  0.51175430899E+03  0.00000000000E+00 0.  1.
         -6    2    1    2    0  503  0.78570202964E+02  0.20272001565E+02 -0.35761706391E+03  0.40411285232E+03  0.16980283323E+03 0.  0.
        -24    2    3    3    0    0 -0.15346191627E+02 -0.24035572474E+02 -0.13219058377E+03  0.15587377756E+03  0.77518189819E+02 0.  0.
          6    2    1    2  501    0 -0.78570202964E+02 -0.20272001565E+02 -0.61947370113E+02  0.19983133164E+03  0.17178723352E+03 0.  0.
         24    2    5    5    0    0 -0.83828488309E+02  0.15891946645E+02 -0.82794315061E+02  0.15749735204E+03  0.10329931206E+03 0.  0.
          5    1    5    5  501    0  0.52582853451E+01 -0.36163948210E+02  0.20846944948E+02  0.42333979598E+02  0.47000000000E+01 0. -1.
        -13    1    6    6    0    0 -0.30173263970E+02 -0.41564400353E+02 -0.14519556375E+02  0.53374551545E+02  0.00000000000E+00 0.  1.
         14    1    6    6    0    0 -0.53655224339E+02  0.57456346998E+02 -0.68274758687E+02  0.10412280050E+03  0.00000000000E+00 0. -1.
         -5    1    3    3    0  503  0.93916394591E+02  0.44307574039E+02 -0.22542648014E+03  0.24823907476E+03  0.47000000000E+01 0.  1.
         11    1    4    4    0    0 -0.16825142327E+01  0.24574521316E+02 -0.16510277171E+02  0.29653451812E+02  0.00000000000E+00 0. -1.
        -12    1    4    4    0    0 -0.13663677394E+02 -0.48610093791E+02 -0.11568030659E+03  0.12622032575E+03  0.00000000000E+00 0.  1.
</event>
<event>
12    1  0.8562501E-002  0.1779896E+03  0.7818608E-02  0.1170792E+00
         21   -1    0    0  503  502  0.00000000000E+00  0.00000000000E+00  0.13633701615E+03  0.13633701615E+03  0.00000000000E+00 0.  1.
         21   -1    0    0  501  503 -0.00000000000E+00 -0.00000000000E+00 -0.26388654698E+03  0.26388654698E+03  0.00000000000E+00 0.  1.
          6    2    1    2  501    0  0.29014237299E+02  0.76076162423E+01 -0.13923583486E+03  0.22597991093E+03  0.17544401000E+03 0.  0.
         24    2    3    3    0    0 -0.46639795059E+02  0.70343607345E+01 -0.11006334084E+03  0.14475808110E+03  0.81340090563E+02 0.  0.
         -6    2    1    2    0  502 -0.29014237299E+02 -0.76076162423E+01  0.11686304032E+02  0.17424365219E+03  0.17124420818E+03 0.  0.
        -24    2    5    5    0    0 -0.33444238475E+02  0.52497824429E+02  0.38933903577E+02  0.10793520183E+03  0.79117762156E+02 0.  0.
          5    1    3    3  501    0  0.75654032358E+02  0.57325550780E+00 -0.29172494024E+02  0.81221829833E+02  0.47000000000E+01 0. -1.
        -13    1    4    4    0    0 -0.47935962147E+02 -0.30266446560E+02 -0.67482318625E+02  0.88134996348E+02  0.00000000000E+00 0.  1.
         14    1    4    4    0    0  0.12961670881E+01  0.37300807294E+02 -0.42581022214E+02  0.56623084751E+02  0.00000000000E+00 0. -1.
         -5    1    5    5    0  502  0.44300011760E+01 -0.60105440671E+02 -0.27247599544E+02  0.66308450363E+02  0.47000000000E+01 0.  1.
         11    1    6    6    0    0 -0.10752540841E+02 -0.20634568794E+02  0.15105801813E+02  0.27741445750E+02  0.00000000000E+00 0. -1.
        -12    1    6    6    0    0 -0.22691697634E+02  0.73132393223E+02  0.23828101764E+02  0.80193756077E+02  0.00000000000E+00 0.  1.
</event>
<event>
12    1  0.8562501E-002  0.1900064E+03  0.7818608E-02  0.1158937E+00
         21   -1    0    0  503  502  0.00000000000E+00  0.00000000000E+00  0.29415502838E+03  0.29415502838E+03  0.00000000000E+00 0. -1.
         21   -1    0    0  501  503 -0.00000000000E+00 -0.00000000000E+00 -0.16232046218E+03  0.16232046218E+03  0.00000000000E+00 0. -1.
          6    2    1    2  501    0  0.79008454325E+02 -0.23785095798E+02 -0.48448117557E+02  0.19608578061E+03  0.17115591321E+03 0.  0.
         24    2    3    3    0    0  0.15171178304E+02 -0.12223041372E+01  0.44975391115E+02  0.80611457275E+02  0.65144167502E+02 0.  0.
         -6    2    1    2    0  502 -0.79008454325E+02  0.23785095798E+02  0.18028268375E+03  0.26038970995E+03  0.16879836595E+03 0.  0.
        -24    2    5    5    0    0 -0.10046471394E+03 -0.18480199744E+02  0.16529868414E+03  0.21045638913E+03  0.80830441149E+02 0.  0.
          5    1    3    3  501    0  0.63837276022E+02 -0.22562791661E+02 -0.93423508672E+02  0.11547432334E+03  0.47000000000E+01 0. -1.
        -11    1    4    4    0    0 -0.62448388903E+00 -0.10366532881E+02  0.57529344277E+02  0.58459220291E+02  0.00000000000E+00 0.  1.
         12    1    4    4    0    0  0.15795662193E+02  0.91442287439E+01 -0.12553953162E+02  0.22152236984E+02  0.00000000000E+00 0. -1.
         -5    1    5    5    0  502  0.21456259613E+02  0.42265295542E+02  0.14983999610E+02  0.49933320820E+02  0.47000000000E+01 0.  1.
         13    1    6    6    0    0 -0.38492868557E+02 -0.31144702409E+02  0.12748405101E+03  0.13676211712E+03  0.00000000000E+00 0. -1.
        -14    1    6    6    0    0 -0.61971845381E+02  0.12664502665E+02  0.37814633135E+02  0.73694272008E+02  0.00000000000E+00 0.  1.
</event>
<event>
12    1  0.8562501E-002  0.2036998E+03  0.7818608E-02  0.1148026E+00
         21   -1    0    0  501  502  0.00000000000E+00  0.00000000000E+00  0.16276610585E+03  0.16276610585E+03  0.00000000000E+00 0. -1.
         21   -1    0    0  502  503 -0.00000000000E+00 -0.00000000000E+00 -0.24996085778E+03  0.24996085778E+03  0.00000000000E+00 0. -1.
         -6    2    1    2    0  503 -0.10770577487E+03  0.12362888992E+02 -0.19699137228E+02  0.19813606314E+03  0.16467078837E+03 0.  0.
        -24    2    3    3    0    0 -0.12670757077E+03 -0.14699620536E+02 -0.44800418831E+02  0.15635554127E+03  0.78543557492E+02 0.  0.
          6    2    1    2  501    0  0.10770577487E+03 -0.12362888992E+02 -0.67495614700E+02  0.21459090049E+03  0.17245353463E+03 0.  0.
         24    2    5    5    0    0  0.24982175581E+02 -0.36274527848E+02  0.15708952765E+02  0.94757472771E+02  0.82415150194E+02 0.  0.
          5    1    5    5  501    0  0.82723599292E+02  0.23911638856E+02 -0.83204567466E+02  0.11983342772E+03  0.47000000000E+01 0. -1.
        -13    1    6    6    0    0  0.30409112535E+02 -0.55788981852E+02 -0.74694607319E+01  0.63975913161E+02  0.00000000000E+00 0.  1.
         14    1    6    6    0    0 -0.54269369545E+01  0.19514454003E+02  0.23178413497E+02  0.30781559609E+02  0.00000000000E+00 0. -1.
         -5    1    3    3    0  503  0.19001795899E+02  0.27062509528E+02  0.25101281603E+02  0.41780521867E+02  0.47000000000E+01 0.  1.
         13    1    4    4    0    0 -0.45898873060E+02 -0.27765967554E+02  0.14151328486E+02  0.55478965386E+02  0.00000000000E+00 0. -1.
        -14    1    4    4    0    0 -0.80808697711E+02  0.13066347018E+02 -0.58951747317E+02  0.10087657588E+03  0.00000000000E+00 0.  1.
</event>
<event>
12    1  0.8562501E-002  0.1911470E+03  0.7818608E-02  0.1157658E+00
         21   -1    0    0  503  502  0.00000000000E+00  0.00000000000E+00  0.47663134019E+02  0.47663134019E+02  0.00000000000E+00 0. -1.
         21   -1    0    0  501  503 -0.00000000000E+00 -0.00000000000E+00 -0.87734511513E+03  0.87734511513E+03  0.00000000000E+00 0. -1.
          6    2    1    2  501    0  0.77421766349E+02  0.19702449366E+02 -0.58312312077E+03  0.61365278164E+03  0.17365150741E+03 0.  0.
         24    2    3    3    0    0 -0.25653753184E+02 -0.10647540272E+02 -0.33102255731E+03  0.33956799787E+03  0.70420214166E+02 0.  0.
         -6    2    1    2    0  502 -0.77421766349E+02 -0.19702449366E+02 -0.24655886035E+03  0.31135546752E+03  0.17253590675E+03 0.  0.
        -24    2    5    5    0    0 -0.10207363408E+03 -0.54069622315E+02 -0.14970723055E+03  0.20556725761E+03  0.80641749074E+02 0.  0.
          5    1    3    3  501    0  0.10307551953E+03  0.30349989638E+02 -0.25210056345E+03  0.27408478376E+03  0.47000000000E+01 0. -1.
        -11    1    4    4    0    0 -0.19155931486E+02 -0.26432947407E+02 -0.62574592632E+02  0.70577829825E+02  0.00000000000E+00 0.  1.
         12    1    4    4    0    0 -0.64978216977E+01  0.15785407135E+02 -0.26844796468E+03  0.26899016805E+03  0.00000000000E+00 0. -1.
         -5    1    5    5    0  502  0.24651867727E+02  0.34367172949E+02 -0.96851629805E+02  0.10578820990E+03  0.47000000000E+01 0.  1.
         13    1    6    6    0    0 -0.62001481600E+02 -0.29467587269E+02 -0.14226328770E+03  0.15796001218E+03  0.00000000000E+00 0. -1.
        -14    1    6    6    0    0 -0.40072152475E+02 -0.24602035046E+02 -0.74439428413E+01  0.47607245430E+02  0.00000000000E+00 0.  1.
</event>
<event>
12    1  0.8562501E-002  0.2065899E+03  0.7818608E-02  0.1144377E+00
         21   -1    0    0  503  502  0.00000000000E+00  0.00000000000E+00  0.27925494400E+03  0.27925494400E+03  0.00000000000E+00 0. -1.
         21   -1    0    0  501  503 -0.00000000000E+00 -0.00000000000E+00 -0.19367023383E+03  0.19367023383E+03  0.00000000000E+00 0. -1.
          6    2    1    2  501    0  0.79993165345E+02 -0.84008253125E+02 -0.66154449962E+02  0.21692350469E+03  0.17094766024E+03 0.  0.
         24    2    3    3    0    0  0.72008368075E+01 -0.10421404907E+03 -0.57574013482E+02  0.14074797598E+03  0.74718174764E+02 0.  0.
         -6    2    1    2    0  502 -0.79993165345E+02  0.84008253125E+02  0.15173916013E+03  0.25600167314E+03  0.17045759250E+03 0.  0.
        -24    2    5    5    0    0 -0.99921221810E+02  0.10570805258E+03  0.93140749321E+02  0.19024551389E+03  0.79747811398E+02 0.  0.
          5    1    3    3  501    0  0.72792328538E+02  0.20205795943E+02 -0.85804364801E+01  0.76175528707E+02  0.47000000000E+01 0. -1.
        -11    1    4    4    0    0 -0.30800366000E+02 -0.24235754187E+02 -0.24530385942E+02  0.46236069915E+02  0.00000000000E+00 0.  1.
         12    1    4    4    0    0  0.38001202808E+02 -0.79978294881E+02 -0.33043627540E+02  0.94511906064E+02  0.00000000000E+00 0. -1.
         -5    1    5    5    0  502  0.19928056465E+02 -0.21699799453E+02  0.58598410807E+02  0.65756159254E+02  0.47000000000E+01 0.  1.
         11    1    6    6    0    0 -0.49040390387E+02  0.56644442976E+02  0.93175224589E+02  0.11956243259E+03  0.00000000000E+00 0. -1.
        -12    1    6    6    0    0 -0.50880831423E+02  0.49063609602E+02 -0.34475267934E-01  0.70683081300E+02  0.00000000000E+00 0.  1.
</event>
<event>
12    1  0.8562501E-002  0.2344917E+03  0.7818608E-02  0.1123619E+00
         21   -1    0    0  501  502  0.00000000000E+00  0.00000000000E+00  0.34012200169E+02  0.34012200169E+02  0.00000000000E+00 0. -1.
         21   -1    0    0  502  503 -0.00000000000E+00 -0.00000000000E+00 -0.17643347100E+04  0.17643347100E+04  0.00000000000E+00 0. -1.
         -6    2    1    2    0  503  0.33670653854E+02  0.15592083327E+03 -0.11278566923E+04  0.11518553041E+04  0.17106988063E+03 0.  0.
        -24    2    3    3    0    0  0.14239380864E+02  0.18242046202E+03 -0.94910395828E+03  0.97004651826E+03  0.81926424450E+02 0.  0.
          6    2    1    2  501    0 -0.33670653854E+02 -0.15592083327E+03 -0.60246581750E+03  0.64649160603E+03  0.17187587449E+03 0.  0.
         24    2    5    5    0    0 -0.49490784862E+02 -0.79719436484E+02 -0.18729915302E+03  0.22406720012E+03  0.79502271073E+02 0.  0.
          5    1    5    5  501    0  0.15820131009E+02 -0.76201396781E+02 -0.41516666447E+03  0.42242440591E+03  0.47000000000E+01 0. -1.
        -13    1    6    6    0    0 -0.53209955467E+02 -0.30116782791E+02 -0.14972804974E+03  0.16173066761E+03  0.00000000000E+00 0.  1.
         14    1    6    6    0    0  0.37191706044E+01 -0.49602653693E+02 -0.37571103286E+02  0.62336532511E+02  0.00000000000E+00 0. -1.
         -5    1    3    3    0  503  0.19431272990E+02 -0.26499628755E+02 -0.17875273402E+03  0.18180878585E+03  0.47000000000E+01 0.  1.
         11    1    4    4    0    0  0.30339580229E+02  0.14424568903E+03 -0.84910963729E+03  0.86180884485E+03  0.00000000000E+00 0. -1.
        -12    1    4    4    0    0 -0.16100199365E+02  0.38174772994E+02 -0.99994320996E+02  0.10823767340E+03  0.00000000000E+00 0.  1.
</event>
<event>
12    1  0.8562501E-002  0.1998312E+03  0.7818608E-02  0.1150183E+00
         21   -1    0    0  503  502  0.00000000000E+00  0.00000000000E+00  0.10691549241E+04  0.10691549241E+04  0.00000000000E+00 0.  1.
         21   -1    0    0  501  503 -0.00000000000E+00 -0.00000000000E+00 -0.53414199788E+02  0.53414199788E+02  0.00000000000E+00 0.  1.
          6    2    1    2  501    0 -0.85049710728E+02 -0.54669421229E+02  0.19625989552E+03  0.27907560295E+03  0.17071334646E+03 0.  0.
         24    2    3    3    0    0 -0.56925694096E+02 -0.99626907951E+02  0.16682563567E+03  0.21824303291E+03  0.81444295468E+02 0.  0.
         -6    2    1    2    0  502  0.85049710728E+02  0.54669421229E+02  0.81948082881E+03  0.84349352096E+03  0.17236673749E+03 0.  0.
        -24    2    5    5    0    0  0.79022479031E+02  0.76901397648E+01  0.75476810176E+03  0.76316166270E+03  0.80231823721E+02 0.  0.
          5    1    3    3  501    0 -0.28124016632E+02  0.44957486723E+02  0.29434259851E+02  0.60832570034E+02  0.47000000000E+01 0. -1.
        -13    1    4    4    0    0 -0.17766669300E+02 -0.77630256477E+02  0.52431754835E+02  0.95347785364E+02  0.00000000000E+00 0.  1.
         14    1    4    4    0    0 -0.39159024796E+02 -0.21996651474E+02  0.11439388083E+03  0.12289524755E+03  0.00000000000E+00 0. -1.
         -5    1    5    5    0  502  0.60272316969E+01  0.46979281464E+02  0.64712727057E+02  0.80331858263E+02  0.47000000000E+01 0.  1.
         11    1    6    6    0    0  0.68619970682E+01  0.33721204613E+02  0.17608428992E+03  0.17941539455E+03  0.00000000000E+00 0. -1.
        -12    1    6    6    0    0  0.72160481963E+02 -0.26031064849E+02  0.57868381183E+03  0.58374626814E+03  0.00000000000E+00 0.  1.
</event>
<event>
12    1  0.8562501E-002  0.2452279E+03  0.7818608E-02  0.1119009E+00
         21   -1    0    0  501  502  0.00000000000E+00  0.00000000000E+00  0.18477900914E+03  0.18477900914E+03  0.00000000000E+00 0. -1.
         21   -1    0    0  502  503 -0.00000000000E+00 -0.00000000000E+00 -0.32368118935E+03  0.32368118935E+03  0.00000000000E+00 0. -1.
         -6    2    1    2    0  503  0.10695918459E+03 -0.11560233237E+03 -0.12859637042E+03  0.26301580822E+03  0.16684160893E+03 0.  0.
        -24    2    3    3    0    0  0.93100747768E+02 -0.14808448356E+03 -0.97592611427E+02  0.21578796167E+03  0.80270561795E+02 0.  0.
          6    2    1    2  501    0 -0.10695918459E+03  0.11560233237E+03 -0.10305809787E+02  0.24544439026E+03  0.18796960547E+03 0.  0.
         24    2    5    5    0    0  0.65799980572E+00  0.88693733224E+02  0.36456885637E+02  0.12496878789E+03  0.80131655157E+02 0.  0.
          5    1    5    5  501    0 -0.10761718440E+03  0.26908599143E+02 -0.46762695424E+02  0.12047560238E+03  0.47000000000E+01 0. -1.
        -11    1    6    6    0    0  0.27402331927E+01  0.77347486827E+02 -0.91413506655E+01  0.77933990585E+02  0.00000000000E+00 0.  1.
         12    1    6    6    0    0 -0.20822333870E+01  0.11346246396E+02  0.45598236303E+02  0.47034797300E+02  0.00000000000E+00 0. -1.
         -5    1    3    3    0  503  0.13858436824E+02  0.32482151198E+02 -0.31003758992E+02  0.47227846545E+02  0.47000000000E+01 0.  1.
         13    1    4    4    0    0  0.68738396771E+02 -0.40388621418E+02 -0.57580113111E+02  0.98344686469E+02  0.00000000000E+00 0. -1.
        -14    1    4    4    0    0  0.24362350996E+02 -0.10769586215E+03 -0.40012498315E+02  0.11744327521E+03  0.00000000000E+00 0.  1.
</event>
<event>
12    1  0.8562501E-002  0.1890597E+03  0.7818608E-02  0.1159357E+00
         21   -1    0    0  501  502  0.00000000000E+00  0.00000000000E+00  0.74004811392E+02  0.74004811392E+02  0.00000000000E+00 0.  1.
         21   -1    0    0  502  503 -0.00000000000E+00 -0.00000000000E+00 -0.20523423387E+04  0.20523423387E+04  0.00000000000E+00 0.  1.
         -6    2    1    2    0  503  0.61255307591E+02  0.51278804662E+02 -0.19188892534E+04  0.19281611666E+04  0.17113675470E+03 0.  0.
        -24    2    3    3    0    0 -0.35018677979E+02  0.15565316346E+02 -0.88149361950E+03  0.88568530361E+03  0.77064057350E+02 0.  0.
          6    2    1    2  501    0 -0.61255307591E+02 -0.51278804662E+02 -0.59448273870E+02  0.19818598352E+03  0.17135302239E+03 0.  0.
         24    2    5    5    0    0 -0.10260906373E+03 -0.64239354060E+02 -0.45779448666E+02  0.15250189690E+03  0.80658267211E+02 0.  0.
          5    1    5    5  501    0  0.41353756138E+02  0.12960549398E+02 -0.13668825204E+02  0.45684086616E+02  0.47000000000E+01 0. -1.
        -11    1    6    6    0    0 -0.83610752037E+01 -0.37518000051E+02  0.10072233625E+02  0.39736101930E+02  0.00000000000E+00 0.  1.
         12    1    6    6    0    0 -0.94247988525E+02 -0.26721354009E+02 -0.55851682291E+02  0.11276579497E+03  0.00000000000E+00 0. -1.
         -5    1    3    3    0  503  0.96273985570E+02  0.35713488316E+02 -0.10373956339E+04  0.10424758629E+04  0.47000000000E+01 0.  1.
         11    1    4    4    0    0  0.41275661776E+01  0.72215137716E+01 -0.89285546354E+01  0.12202710829E+02  0.00000000000E+00 0. -1.
        -12    1    4    4    0    0 -0.39146244157E+02  0.83438025748E+01 -0.87256506486E+03  0.87348259278E+03  0.00000000000E+00 0.  1.
</event>
<event>
12    1  0.8562501E-002  0.2346830E+03  0.7818608E-02  0.1125147E+00
         21   -1    0    0  501  502  0.00000000000E+00  0.00000000000E+00  0.12377245416E+04  0.12377245416E+04  0.00000000000E+00 0. -1.
         21   -1    0    0  502  503 -0.00000000000E+00 -0.00000000000E+00 -0.53032474272E+02  0.53032474272E+02  0.00000000000E+00 0. -1.
         -6    2    1    2    0  503  0.14428574611E+03  0.59191894510E+01  0.29597104702E+03  0.37157195477E+03  0.17208557047E+03 0.  0.
        -24    2    3    3    0    0  0.33795248043E+02  0.16305604533E+02  0.47238263451E+02  0.99163960389E+02  0.78702261573E+02 0.  0.
          6    2    1    2  501    0 -0.14428574611E+03 -0.59191894510E+01  0.88872102033E+03  0.91918506112E+03  0.18499381416E+03 0.  0.
         24    2    5    5    0    0 -0.94147800723E+00  0.30013561154E+02  0.29944245969E+03  0.31164077978E+03  0.80947444185E+02 0.  0.
          5    1    5    5  501    0 -0.14334426811E+03 -0.35932750605E+02  0.58927856064E+03  0.60754428134E+03  0.47000000000E+01 0. -1.
        -13    1    6    6    0    0  0.15497236749E+02 -0.23135019197E+02  0.14078171566E+03  0.14350918063E+03  0.00000000000E+00 0.  1.
         14    1    6    6    0    0 -0.16438714757E+02  0.53148580351E+02  0.15866074403E+03  0.16813159915E+03  0.00000000000E+00 0. -1.
         -5    1    3    3    0  503  0.11049049807E+03 -0.10386415081E+02  0.24873278357E+03  0.27240799438E+03  0.47000000000E+01 0.  1.
         11    1    4    4    0    0  0.39252844650E+02 -0.10731317555E+02  0.56886448136E+02  0.69942940824E+02  0.00000000000E+00 0. -1.
        -12    1    4    4    0    0 -0.54575966072E+01  0.27036922087E+02 -0.96481846856E+01  0.29221019565E+02  0.00000000000E+00 0.  1.
</event>
<event>
12    1  0.8562501E-002  0.1863299E+03  0.7818608E-02  0.1163192E+00
         21   -1    0    0  501  502  0.00000000000E+00  0.00000000000E+00  0.73726651515E+03  0.73726651515E+03  0.00000000000E+00 0.  1.
         21   -1    0    0  502  503 -0.00000000000E+00 -0.00000000000E+00 -0.10694269222E+03  0.10694269222E+03  0.00000000000E+00 0.  1.
         -6    2    1    2    0  503 -0.38960881587E+02 -0.60472518998E+02 -0.23028051895E+01  0.18634412936E+03  0.17188355299E+03 0.  0.
        -24    2    3    3    0    0 -0.50018834717E+02 -0.98536489574E+02  0.22520259243E+02  0.13933967520E+03  0.81835563195E+02 0.  0.
          6    2    1    2  501    0  0.38960881587E+02  0.60472518998E+02  0.63262662812E+03  0.65786507801E+03  0.16551475588E+03 0.  0.
         24    2    5    5    0    0  0.96665833507E+01  0.96020542435E+02  0.35907946825E+03  0.38042687489E+03  0.80455920949E+02 0.  0.
          5    1    5    5  501    0  0.29294298237E+02 -0.35548023437E+02  0.27354715986E+03  0.27743820312E+03  0.47000000000E+01 0. -1.
        -11    1    6    6    0    0  0.31990528868E+02  0.96647659674E+02  0.31449046724E+03  0.33055773783E+03  0.00000000000E+00 0.  1.
         12    1    6    6    0    0 -0.22323945517E+02 -0.62711723909E+00  0.44589001018E+02  0.49869137062E+02  0.00000000000E+00 0. -1.
         -5    1    3    3    0  503  0.11057953130E+02  0.38063970576E+02 -0.24823064433E+02  0.47004454164E+02  0.47000000000E+01 0.  1.
         13    1    4    4    0    0 -0.43109440064E+02 -0.56284971641E+01  0.14503978066E+02  0.45830875867E+02  0.00000000000E+00 0. -1.
        -14    1    4    4    0    0 -0.69093946527E+01 -0.92907992410E+02  0.80162811770E+01  0.93508799329E+02  0.00000000000E+00 0.  1.
</event>
<event>
12    1  0.8562501E-002  0.2419874E+03  0.7818608E-02  0.1118604E+00
         21   -1    0    0  503  502  0.00000000000E+00  0.00000000000E+00  0.11486332302E+03  0.11486332302E+03  0.00000000000E+00 0. -1.
         21   -1    0    0  501  503 -0.00000000000E+00 -0.00000000000E+00 -0.14800916400E+04  0.14800916400E+04  0.00000000000E+00 0.  1.
          6    2    1    2  501    0 -0.16594489521E+03 -0.32342469753E+02 -0.13292220731E+04  0.13510696558E+04  0.17313044656E+03 0.  0.
         24    2    3    3    0    0 -0.45808770645E+02  0.15564346575E+02 -0.33246731739E+03  0.34594783007E+03  0.82490554863E+02 0.  0.
         -6    2    1    2    0  502  0.16594489521E+03  0.32342469753E+02 -0.36006243887E+02  0.24388530726E+03  0.17204606912E+03 0.  0.
        -24    2    5    5    0    0  0.16923282479E+03  0.53465587071E+02  0.82504393982E+01  0.19451182671E+03  0.79173625601E+02 0.  0.
          5    1    3    3  501    0 -0.12013612457E+03 -0.47906816328E+02 -0.99675475569E+03  0.10051218257E+04  0.47000000000E+01 0. -1.
        -13    1    4    4    0    0 -0.50831156798E+02  0.38533624160E+02 -0.29419382266E+03  0.30102932080E+03  0.00000000000E+00 0.  1.
         14    1    4    4    0    0  0.50223861524E+01 -0.22969277585E+02 -0.38273494736E+02  0.44918509266E+02  0.00000000000E+00 0. -1.
         -5    1    5    5    0  502 -0.32879295808E+01 -0.21123117318E+02 -0.44256683285E+02  0.49373480549E+02  0.47000000000E+01 0.  1.
         13    1    6    6    0    0  0.77860155635E+02 -0.15603522465E+02 -0.26611039192E+01  0.79452849054E+02  0.00000000000E+00 0. -1.
        -14    1    6    6    0    0  0.91372669158E+02  0.69069109536E+02  0.10911543317E+02  0.11505897765E+03  0.00000000000E+00 0.  1.
</event>
<event>
12    1  0.8562501E-002  0.1987729E+03  0.7818608E-02  0.1151756E+00
         21   -1    0    0  501  502  0.00000000000E+00  0.00000000000E+00  0.40556592766E+02  0.40556592766E+02  0.00000000000E+00 0.  1.
         21   -1    0    0  502  503 -0.00000000000E+00 -0.00000000000E+00 -0.96387120686E+03  0.96387120686E+03  0.00000000000E+00 0.  1.
         -6    2    1    2    0  503 -0.52394007763E+02 -0.84840685128E+02 -0.52248295395E+03  0.55901618351E+03  0.17195226766E+03 0.  0.
        -24    2    3    3    0    0  0.31583542595E+02 -0.67847179692E+02 -0.31653370543E+03  0.33590591670E+03  0.83895400605E+02 0.  0.
          6    2    1    2  501    0  0.52394007763E+02  0.84840685128E+02 -0.40083166015E+03  0.44541161612E+03  0.16668057505E+03 0.  0.
         24    2    5    5    0    0  0.59346515969E+02  0.10032244329E+02 -0.31913576845E+03  0.33432179253E+03  0.79377373185E+02 0.  0.
          5    1    5    5  501    0 -0.69525082063E+01  0.74808440799E+02 -0.81695891698E+02  0.11108982359E+03  0.47000000000E+01 0. -1.
        -13    1    6    6    0    0  0.18485797246E+02  0.42317325421E+02 -0.12275682358E+03  0.13115532192E+03  0.00000000000E+00 0.  1.
         14    1    6    6    0    0  0.40860718723E+02 -0.32285081092E+02 -0.19637894486E+03  0.20316647061E+03  0.00000000000E+00 0. -1.
         -5    1    3    3    0  503 -0.83977550357E+02 -0.16993505436E+02 -0.20594924852E+03  0.22311026681E+03  0.47000000000E+01 0.  1.
         11    1    4    4    0    0 -0.16135835346E+02  0.72003268355E+01 -0.10439261554E+03  0.10587742002E+03  0.00000000000E+00 0. -1.
        -12    1    4    4    0    0  0.47719377941E+02 -0.75047506527E+02 -0.21214108989E+03  0.23002849668E+03  0.00000000000E+00 0.  1.
</event>
<event>
12    1  0.8562501E-002  0.2444478E+03  0.7818608E-02  0.1117266E+00
         21   -1    0    0  503  502  0.00000000000E+00  0.00000000000E+00  0.13628839900E+03  0.13628839900E+03  0.00000000000E+00 0.  1.
         21   -1    0    0  501  503 -0.00000000000E+00 -0.00000000000E+00 -0.58883849336E+03  0.58883849336E+03  0.00000000000E+00 0. -1.
          6    2    1    2  501    0  0.16973669533E+03  0.74843465799E+01 -0.41300055922E+03  0.47992103485E+03  0.17575032458E+03 0.  0.
         24    2    3    3    0    0  0.19139382265E+03  0.25932114947E+02 -0.39274865012E+03  0.44468495754E+03  0.78671083368E+02 0.  0.
         -6    2    1    2    0  502 -0.16973669533E+03 -0.74843465799E+01 -0.39549535136E+02  0.24520585751E+03  0.17232291096E+03 0.  0.
        -24    2    5    5    0    0 -0.19157575478E+03 -0.67697592877E+01 -0.58027436141E+02  0.21620623719E+03  0.81430057057E+02 0.  0.
          5    1    3    3  501    0 -0.21657127325E+02 -0.18447768367E+02 -0.20251909102E+02  0.35236077307E+02  0.47000000000E+01 0. -1.
        -11    1    4    4    0    0  0.12477520226E+02 -0.11711241216E+02 -0.85138916527E+02  0.86841676569E+02  0.00000000000E+00 0.  1.
         12    1    4    4    0    0  0.17891630243E+03  0.37643356163E+02 -0.30760973359E+03  0.35784328097E+03  0.00000000000E+00 0. -1.
         -5    1    5    5    0  502  0.21839059457E+02 -0.71458729220E+00  0.18477901005E+02  0.28999620317E+02  0.47000000000E+01 0.  1.
         11    1    6    6    0    0 -0.12033359285E+03 -0.33293998824E+02 -0.63338103845E+02  0.14000135473E+03  0.00000000000E+00 0. -1.
        -12    1    6    6    0    0 -0.71242161933E+02  0.26524239536E+02  0.53106677045E+01  0.76204882463E+02  0.00000000000E+00 0.  1.
</event>
<event>
12    1  0.8562501E-002  0.1966607E+03  0.7818608E-02  0.1152630E+00
         21   -1    0    0  503  502  0.00000000000E+00  0.00000000000E+00  0.95941192051E+02  0.95941192051E+02  0.00000000000E+00 0.  1.
         21   -1    0    0  501  503 -0.00000000000E+00 -0.00000000000E+00 -0.83964929078E+03  0.83964929078E+03  0.00000000000E+00 0.  1.
          6    2    1    2  501    0 -0.61110506243E+02  0.73787674894E+02 -0.34308262656E+02  0.19943591830E+03  0.17151826049E+03 0.  0.
         24    2    3    3    0    0  0.53941919375E+01 -0.16842744085E+02 -0.23866863042E+02  0.86440960220E+02  0.81176579857E+02 0.  0.
         -6    2    1    2    0  502  0.61110506243E+02 -0.73787674894E+02 -0.70939983607E+03  0.73615456453E+03  0.17174487045E+03 0.  0.
        -24    2    5    5    0    0  0.36453558915E+02 -0.11662331697E+03 -0.48611463880E+03  0.50741622799E+03  0.78955217402E+02 0.  0.
          5    1    3    3  501    0 -0.66504698181E+02  0.90630418979E+02 -0.10441399614E+02  0.11299495808E+03  0.47000000000E+01 0. -1.
        -13    1    4    4    0    0 -0.99158749665E+01 -0.33067962041E+01  0.28431303601E+02  0.30291888386E+02  0.00000000000E+00 0.  1.
         14    1    4    4    0    0  0.15310066904E+02 -0.13535947881E+02 -0.52298166643E+02  0.56149071834E+02  0.00000000000E+00 0. -1.
         -5    1    5    5    0  502  0.24656947328E+02  0.42835642076E+02 -0.22328519727E+03  0.22873833654E+03  0.47000000000E+01 0.  1.
         13    1    6    6    0    0 -0.22577079452E+02 -0.48175989714E+02 -0.14235476531E+03  0.15197213464E+03  0.00000000000E+00 0. -1.
        -14    1    6    6    0    0  0.59030638368E+02 -0.68447327257E+02 -0.34375987349E+03  0.35544409335E+03  0.00000000000E+00 0.  1.
</event>
<event>
12    1  0.8562501E-002  0.2150211E+03  0.7818608E-02  0.1138446E+00
         21   -1    0    0  503  502  0.00000000000E+00  0.00000000000E+00  0.18626096204E+03  0.18626096204E+03  0.00000000000E+00 0.  1.
         21   -1    0    0  501  503 -0.00000000000E+00 -0.00000000000E+00 -0.81342409461E+03  0.81342409461E+03  0.00000000000E+00 0. -1.
          6    2    1    2  501    0 -0.16443312782E+02  0.12156250160E+03 -0.73106028986E+03  0.76087820689E+03  0.17157702058E+03 0.  0.
         24    2    3    3    0    0  0.14688136662E+02 -0.14533606512E+01 -0.21950597477E+03  0.23379948716E+03  0.79129473788E+02 0.  0.
         -6    2    1    2    0  502  0.16443312782E+02 -0.12156250160E+03  0.10389715728E+03  0.23880684976E+03  0.17659634161E+03 0.  0.
        -24    2    5    5    0    0 -0.33928270082E+02 -0.51000734993E+01  0.30648014043E+02  0.92217898936E+02  0.79923099658E+02 0.  0.
          5    1    3    3  501    0 -0.31131449443E+02  0.12301586225E+03 -0.51155431509E+03  0.52707871973E+03  0.47000000000E+01 0. -1.
        -13    1    4    4    0    0  0.19614877221E+02 -0.27097268469E+02 -0.19545962389E+03  0.19830146227E+03  0.00000000000E+00 0.  1.
         14    1    4    4    0    0 -0.49267405590E+01  0.25643907818E+02 -0.24046350879E+02  0.35498024893E+02  0.00000000000E+00 0. -1.
         -5    1    5    5    0  502  0.50371582863E+02 -0.11646242810E+03  0.73249143242E+02  0.14658895083E+03  0.47000000000E+01 0.  1.
         13    1    6    6    0    0 -0.51387598832E+02 -0.27710497400E+02  0.21644499709E+02  0.62265892329E+02  0.00000000000E+00 0. -1.
        -14    1    6    6    0    0  0.17459328751E+02  0.22610423901E+02  0.90035143334E+01  0.29952006606E+02  0.00000000000E+00 0.  1.
</event>
<event>
12    1  0.8562501E-002  0.2198203E+03  0.7818608E-02  0.1134449E+00
         21   -1    0    0  503  502  0.00000000000E+00  0.00000000000E+00  0.36583609639E+03  0.36583609639E+03  0.00000000000E+00 0. -1.
         21   -1    0    0  501  503 -0.00000000000E+00 -0.00000000000E+00 -0.20288750819E+03  0.20288750819E+03  0.00000000000E+00 0.  1.
          6    2    1    2  501    0 -0.13045606791E+03 -0.41304927345E+02 -0.88414546133E+02  0.23480089226E+03  0.16908413397E+03 0.  0.
         24    2    3    3    0    0 -0.12917911497E+03 -0.48882146521E+02 -0.12120624816E+03  0.20079456077E+03  0.80936969619E+02 0.  0.
         -6    2    1    2    0  502  0.13045606791E+03  0.41304927345E+02  0.25136313433E+03  0.33392271232E+03  0.17203508311E+03 0.  0.
        -24    2    5    5    0    0  0.15212142636E+03  0.54238630485E+02  0.24960418415E+03  0.30819622132E+03  0.81239797495E+02 0.  0.
          5    1    3    3  501    0 -0.12769529446E+01  0.75772191759E+01  0.32791702026E+02  0.34006331484E+02  0.47000000000E+01 0. -1.
        -11    1    4    4    0    0  0.98284098215E+01  0.84048275503E+00 -0.13356576923E+00  0.98651857912E+01  0.00000000000E+00 0.  1.
         12    1    4    4    0    0 -0.13900752479E+03 -0.49722629276E+02 -0.12107268239E+03  0.19092937498E+03  0.00000000000E+00 0. -1.
         -5    1    5    5    0  502 -0.21665358444E+02 -0.12933703140E+02  0.17589501854E+01  0.25726491000E+02  0.47000000000E+01 0.  1.
         11    1    6    6    0    0  0.47655902629E+02 -0.13509774054E+02  0.37043950589E+02  0.61853482729E+02  0.00000000000E+00 0. -1.
        -12    1    6    6    0    0  0.10446552373E+03  0.67748404540E+02  0.21256023356E+03  0.24634273859E+03  0.00000000000E+00 0.  1.
</event>
<event>
12    1  0.8562501E-002  0.2543942E+03  0.7818608E-02  0.1110651E+00
         21   -1    0    0  501  502  0.00000000000E+00  0.00000000000E+00  0.21770391410E+03  0.21770391410E+03  0.00000000000E+00 0.  1.
         21   -1    0    0  502  503 -0.00000000000E+00 -0.00000000000E+00 -0.77248626789E+03  0.77248626789E+03  0.00000000000E+00 0.  1.
         -6    2    1    2    0  503 -0.29931059018E+02 -0.18420877394E+03 -0.66586981498E+03  0.71259905396E+03  0.17200598978E+03 0.  0.
        -24    2    3    3    0    0 -0.70851355772E+02 -0.14989839850E+03 -0.60070323457E+03  0.62821632024E+03  0.79510530740E+02 0.  0.
          6    2    1    2  501    0  0.29931059018E+02  0.18420877394E+03  0.11108746119E+03  0.27759112803E+03  0.17288050681E+03 0.  0.
         24    2    5    5    0    0 -0.88608555804E+01  0.19079992652E+03  0.76352813064E+02  0.22489538141E+03  0.90912341286E+02 0.  0.
          5    1    5    5  501    0  0.38791914598E+02 -0.65911525737E+01  0.34734648129E+02  0.52695746613E+02  0.47000000000E+01 0. -1.
        -13    1    6    6    0    0  0.27096402890E+01  0.81851442650E+01  0.36658037503E+02  0.37658338395E+02  0.00000000000E+00 0.  1.
         14    1    6    6    0    0 -0.11570495869E+02  0.18261478225E+03  0.39694775562E+02  0.18723704302E+03  0.00000000000E+00 0. -1.
         -5    1    3    3    0  503  0.40920296754E+02 -0.34310375440E+02 -0.65166580407E+02  0.84382733727E+02  0.47000000000E+01 0.  1.
         13    1    4    4    0    0 -0.34877177846E+02 -0.85244083560E+01 -0.16066038755E+03  0.16462333735E+03  0.00000000000E+00 0. -1.
        -14    1    4    4    0    0 -0.35974177926E+02 -0.14137399015E+03 -0.44004284702E+03  0.46359298289E+03  0.00000000000E+00 0.  1.
</event>
<event>
12    1  0.8562501E-002  0.1999608E+03  0.7818608E-02  0.1149784E+00
         21   -1    0    0  501  502  0.00000000000E+00  0.00000000000E+00  0.12739808073E+03  0.12739808073E+03  0.00000000000E+00 0.  1.
         21   -1    0    0  502  503 -0.00000000000E+00 -0.00000000000E+00 -0.31702479655E+03  0.31702479655E+03  0.00000000000E+00 0.  1.
         -6    2    1    2    0  503  0.15735758495E+01 -0.10044639460E+03 -0.72280776674E+02  0.21262369452E+03  0.17289410188E+03 0.  0.
        -24    2    3    3    0    0  0.54866243564E+02 -0.94001879311E+02 -0.81671225711E+02  0.15792533310E+03  0.80147137991E+02 0.  0.
          6    2    1    2  501    0 -0.15735758495E+01  0.10044639460E+03 -0.11734593915E+03  0.23179918276E+03  0.17282603207E+03 0.  0.
         24    2    5    5    0    0 -0.47004386752E+02  0.64817820716E+02 -0.14810834582E+02  0.11403292475E+03  0.79833482005E+02 0.  0.
          5    1    5    5  501    0  0.45430810903E+02  0.35628573888E+02 -0.10253510457E+03  0.11776625801E+03  0.47000000000E+01 0. -1.
        -13    1    6    6    0    0 -0.41902898934E+02  0.58072270380E+02  0.23057045805E+02  0.75232100113E+02  0.00000000000E+00 0.  1.
         14    1    6    6    0    0 -0.51014878182E+01  0.67455503366E+01 -0.37867880387E+02  0.38800824634E+02  0.00000000000E+00 0. -1.
         -5    1    3    3    0  503 -0.53292667715E+02 -0.64445152931E+01  0.93904490370E+01  0.54698361426E+02  0.47000000000E+01 0.  1.
         11    1    4    4    0    0 -0.79905810720E+01  0.70864042873E+01 -0.22688577448E+02  0.25076643679E+02  0.00000000000E+00 0. -1.
        -12    1    4    4    0    0  0.62856824636E+02 -0.10108828360E+03 -0.58982648263E+02  0.13284868942E+03  0.00000000000E+00 0.  1.
</event>
<event>
12    1  0.8562501E-002  0.1776964E+03  0.7818608E-02  0.1170278E+00
         21   -1    0    0  503  502  0.00000000000E+00  0.00000000000E+00  0.81073992479E+02  0.81073992479E+02  0.00000000000E+00 0.  1.
         21   -1    0    0  501  503 -0.00000000000E+00 -0.00000000000E+00 -0.91606988893E+03  0.91606988893E+03  0.00000000000E+00 0.  1.
          6    2    1    2  501    0 -0.41632657418E+02 -0.12928174583E+02 -0.79668834761E+03  0.81626485974E+03  0.17226602151E+03 0.  0.
         24    2    3    3    0    0 -0.96119072742E+02  0.26850610704E+01 -0.51232307539E+03  0.52626789316E+03  0.72366263505E+02 0.  0.
         -6    2    1    2    0  502  0.41632657418E+02  0.12928174583E+02 -0.38307548845E+02  0.18087902167E+03  0.17131648000E+03 0.  0.
        -24    2    5    5    0    0  0.46826205134E+02  0.62633564875E+02 -0.60012739950E+02  0.12619077720E+03  0.78784048886E+02 0.  0.
          5    1    3    3  501    0  0.54486415324E+02 -0.15613235654E+02 -0.28436527222E+03  0.28999696658E+03  0.47000000000E+01 0. -1.
        -13    1    4    4    0    0 -0.38437140869E+02 -0.31770761834E+02 -0.15984646667E+03  0.16744458192E+03  0.00000000000E+00 0.  1.
         14    1    4    4    0    0 -0.57681931873E+02  0.34455822904E+02 -0.35247660872E+03  0.35882331124E+03  0.00000000000E+00 0. -1.
         -5    1    5    5    0  502 -0.51935477162E+01 -0.49705390292E+02  0.21705191105E+02  0.54688244467E+02  0.47000000000E+01 0.  1.
         11    1    6    6    0    0  0.68609450123E+02  0.39470163796E+02 -0.40966033359E+02  0.89125565162E+02  0.00000000000E+00 0. -1.
        -12    1    6    6    0    0 -0.21783244989E+02  0.23163401079E+02 -0.19046706592E+02  0.37065212043E+02  0.00000000000E+00 0.  1.
</event>
<event>
12    1  0.8562501E-002  0.2003974E+03  0.7818608E-02  0.1149805E+00
         21   -1    0    0  501  502  0.00000000000E+00  0.00000000000E+00  0.15957243804E+03  0.15957243804E+03  0.00000000000E+00 0. -1.
         21   -1    0    0  502  503 -0.00000000000E+00 -0.00000000000E+00 -0.32769658070E+03  0.32769658070E+03  0.00000000000E+00 0.  1.
         -6    2    1    2    0  503  0.78465783672E+02 -0.57099396039E+02 -0.20292706348E+03  0.28387200214E+03  0.17316668349E+03 0.  0.
        -24    2    3    3    0    0  0.41131787810E+02  0.41095261223E+02 -0.97979689070E+02  0.13530531894E+03  0.72985377980E+02 0.  0.
          6    2    1    2  501    0 -0.78465783672E+02  0.57099396039E+02  0.34802920818E+02  0.20339701660E+03  0.17533363291E+03 0.  0.
         24    2    5    5    0    0 -0.35213025525E+02  0.46802260259E+02 -0.50579721201E+02  0.10701694786E+03  0.73918267025E+02 0.  0.
          5    1    5    5  501    0 -0.43252758147E+02  0.10297135780E+02  0.85382642019E+02  0.96380068742E+02  0.47000000000E+01 0. -1.
        -11    1    6    6    0    0 -0.10886226069E+02 -0.11090033499E+02 -0.40549252667E+02  0.43425115462E+02  0.00000000000E+00 0.  1.
         12    1    6    6    0    0 -0.24326799456E+02  0.57892293758E+02 -0.10030468534E+02  0.63591832395E+02  0.00000000000E+00 0. -1.
         -5    1    3    3    0  503  0.37333995862E+02 -0.98194657262E+02 -0.10494737441E+03  0.14856668320E+03  0.47000000000E+01 0.  1.
         13    1    4    4    0    0 -0.11488730956E+02  0.19227986743E+02 -0.51456714475E+00  0.22404713622E+02  0.00000000000E+00 0. -1.
        -14    1    4    4    0    0  0.52620518766E+02  0.21867274480E+02 -0.97465121926E+02  0.11290060531E+03  0.00000000000E+00 0.  1.
</event>
<event>
12    1  0.8562501E-002  0.2628938E+03  0.7818608E-02  0.1105486E+00
         21   -1    0    0  503  502  0.00000000000E+00  0.00000000000E+00  0.15758565567E+04  0.15758565567E+04  0.00000000000E+00 0. -1.
         21   -1    0    0  501  503 -0.00000000000E+00 -0.00000000000E+00 -0.78853057547E+02  0.78853057547E+02  0.00000000000E+00 0.  1.
          6    2    1    2  501    0 -0.17927763004E+03 -0.83543121504E+02  0.19635279358E+03  0.32775618074E+03  0.17248122415E+03 0.  0.
         24    2    3    3    0    0 -0.16720568366E+03 -0.97541517454E+01  0.11942944529E+03  0.22037910935E+03  0.79061212440E+02 0.  0.
         -6    2    1    2    0  502  0.17927763004E+03  0.83543121504E+02  0.13006507055E+04  0.13269534335E+04  0.17318555081E+03 0.  0.
        -24    2    5    5    0    0  0.12381395479E+03  0.41057597983E+02  0.11569196901E+04  0.11670724347E+04  0.81112740462E+02 0.  0.
          5    1    3    3  501    0 -0.12071946376E+02 -0.73788969759E+02  0.76923348294E+02  0.10737707139E+03  0.47000000000E+01 0. -1.
        -11    1    4    4    0    0 -0.98407142402E+01  0.21470904381E+02  0.75787054263E+01  0.24804760987E+02  0.00000000000E+00 0.  1.
         12    1    4    4    0    0 -0.15736496942E+03 -0.31225056126E+02  0.11185073986E+03  0.19557434837E+03  0.00000000000E+00 0. -1.
         -5    1    5    5    0  502  0.55463675246E+02  0.42485523521E+02  0.14373101544E+03  0.15988099881E+03  0.47000000000E+01 0.  1.
         13    1    6    6    0    0  0.71915375225E+01  0.34648921416E+02  0.34185537226E+03  0.34368206458E+03  0.00000000000E+00 0. -1.
        -14    1    6    6    0    0  0.11662241727E+03  0.64086765672E+01  0.81506431784E+03  0.82339037009E+03  0.00000000000E+00 0.  1.
</event>
<event>
12    1  0.8562501E-002  0.2092818E+03  0.7818608E-02  0.1142362E+00
         21   -1    0    0  503  502  0.00000000000E+00  0.00000000000E+00  0.28970694600E+03  0.28970694600E+03  0.00000000000E+00 0. -1.
         21   -1    0    0  501  503 -0.00000000000E+00 -0.00000000000E+00 -0.44479912673E+03  0.44479912673E+03  0.00000000000E+00 0. -1.
          6    2    1    2  501    0  0.11525353054E+03  0.23625209416E+02 -0.37641543581E+03  0.43068256161E+03  0.17308195094E+03 0.  0.
         24    2    3    3    0    0  0.10909044034E+03  0.76080650486E+02 -0.28400024770E+03  0.32413579267E+03  0.81968785794E+02 0.  0.
         -6    2    1    2    0  502 -0.11525353054E+03 -0.23625209416E+02  0.22132325508E+03  0.30382351112E+03  0.17170677286E+03 0.  0.
        -24    2    5    5    0    0 -0.10796147362E+03 -0.62759778114E+02  0.10700210620E+03  0.18267854159E+03  0.79545768528E+02 0.  0.
          5    1    3    3  501    0  0.61630901976E+01 -0.52455441070E+02 -0.92415188111E+02  0.10654676894E+03  0.47000000000E+01 0. -1.
        -11    1    4    4    0    0  0.52154168699E+02  0.20296877736E+00 -0.52730401884E+02  0.74165988107E+02  0.00000000000E+00 0.  1.
         12    1    4    4    0    0  0.56936271643E+02  0.75877681708E+02 -0.23126984582E+03  0.24996980457E+03  0.00000000000E+00 0. -1.
         -5    1    5    5    0  502 -0.72920569216E+01  0.39134568698E+02  0.11432114888E+03  0.12114496953E+03  0.47000000000E+01 0.  1.
         13    1    6    6    0    0 -0.13071473715E+02  0.18553033646E+02  0.11783857780E+02  0.25572207310E+02  0.00000000000E+00 0. -1.
        -14    1    6    6    0    0 -0.94889999903E+02 -0.81312811760E+02  0.95218248424E+02  0.15710633428E+03  0.00000000000E+00 0.  1.
</event>
<event>
12    1  0.8562501E-002  0.2546397E+03  0.7818608E-02  0.1110497E+00
         21   -1    0    0  503  502  0.00000000000E+00  0.00000000000E+00  0.23067600918E+03  0.23067600918E+03  0.00000000000E+00 0. -1.
         21   -1    0    0  501  503 -0.00000000000E+00 -0.00000000000E+00 -0.28236516048E+03  0.28236516048E+03  0.00000000000E+00 0. -1.
          6    2    1    2  501    0  0.27074404406E+02 -0.18413865929E+03 -0.47486374482E+01  0.25468397912E+03  0.17378524230E+03 0.  0.
         24    2    3    3    0    0 -0.22211394463E+02 -0.17148433800E+03 -0.36691993969E+02  0.19442047571E+03  0.80949334340E+02 0.  0.
         -6    2    1    2    0  502 -0.27074404406E+02  0.18413865929E+03 -0.46940513857E+02  0.25835719054E+03  0.17293049715E+03 0.  0.
        -24    2    5    5    0    0 -0.38205212674E+02  0.18355509576E+03  0.46005104954E+01  0.20541568858E+03  0.83799337469E+02 0.  0.
          5    1    3    3  501    0  0.49285798869E+02 -0.12654321292E+02  0.31943356521E+02  0.60263503411E+02  0.47000000000E+01 0. -1.
        -13    1    4    4    0    0 -0.23084901180E+02 -0.48758938897E+01 -0.10250234361E+02  0.25724585676E+02  0.00000000000E+00 0.  1.
         14    1    4    4    0    0  0.87350671690E+00 -0.16660844411E+03 -0.26441759608E+02  0.16869589003E+03  0.00000000000E+00 0. -1.
         -5    1    5    5    0  502  0.11130808269E+02  0.58356352913E+00 -0.51541024352E+02  0.52941501965E+02  0.47000000000E+01 0.  1.
         13    1    6    6    0    0 -0.46818596558E+02  0.11050426634E+03 -0.30625311414E+02  0.12385912789E+03  0.00000000000E+00 0. -1.
        -14    1    6    6    0    0  0.86133838839E+01  0.73050829426E+02  0.35225821910E+02  0.81556560686E+02  0.00000000000E+00 0.  1.
</event>
<event>
12    1  0.8562501E-002  0.2621358E+03  0.7818608E-02  0.1105979E+00
         21   -1    0    0  501  502  0.00000000000E+00  0.00000000000E+00  0.29388604979E+02  0.29388604979E+02  0.00000000000E+00 0.  1.
         21   -1    0    0  502  503 -0.00000000000E+00 -0.00000000000E+00 -0.26579076866E+04  0.26579076866E+04  0.00000000000E+00 0.  1.
         -6    2    1    2    0  503 -0.18635366469E+03 -0.63891433448E+02 -0.17835060942E+04  0.18025578439E+04  0.17178762717E+03 0.  0.
        -24    2    3    3    0    0 -0.26847374367E+02 -0.30185301593E+02 -0.42950939852E+03  0.43877358605E+03  0.80074980202E+02 0.  0.
          6    2    1    2  501    0  0.18635366469E+03  0.63891433448E+02 -0.84501298744E+03  0.88473844773E+03  0.17293168688E+03 0.  0.
         24    2    5    5    0    0  0.12492681178E+03 -0.28894048430E+02 -0.45784192432E+03  0.48186635137E+03  0.78322273835E+02 0.  0.
          5    1    5    5  501    0  0.61426852910E+02  0.92785481878E+02 -0.38717106312E+03  0.40287209636E+03  0.47000000000E+01 0. -1.
        -13    1    6    6    0    0  0.13367263747E+03 -0.18975280846E+02 -0.38894570317E+03  0.41171251536E+03  0.00000000000E+00 0.  1.
         14    1    6    6    0    0 -0.87458256909E+01 -0.99187675844E+01 -0.68896221152E+02  0.70153836007E+02  0.00000000000E+00 0. -1.
         -5    1    3    3    0  503 -0.15950629032E+03 -0.33706131855E+02 -0.13539966957E+04  0.13637842578E+04  0.47000000000E+01 0.  1.
         11    1    4    4    0    0 -0.73090871623E+01 -0.42822674019E+02 -0.39356171182E+03  0.39595204908E+03  0.00000000000E+00 0. -1.
        -12    1    4    4    0    0 -0.19538287205E+02  0.12637372426E+02 -0.35947686703E+02  0.42821536965E+02  0.00000000000E+00 0.  1.
</event>
<event>
12    1  0.8562501E-002  0.1728769E+03  0.7818608E-02  0.1174952E+00
         21   -1    0    0  501  502  0.00000000000E+00  0.00000000000E+00  0.20091456791E+04  0.20091456791E+04  0.00000000000E+00 0.  1.
         21   -1    0    0  502  503 -0.00000000000E+00 -0.00000000000E+00 -0.40662193408E+02  0.40662193408E+02  0.00000000000E+00 0.  1.
         -6    2    1    2    0  503 -0.11203009054E+02  0.30006533932E+01  0.16738787925E+03  0.24043455305E+03  0.17220790008E+03 0.  0.
        -24    2    3    3    0    0 -0.46077607585E+02  0.49953366644E+02  0.70795270588E+02  0.12741678032E+03  0.81268572099E+02 0.  0.
          6    2    1    2  501    0  0.11203009054E+02 -0.30006533932E+01  0.18010956065E+04  0.18093733195E+04  0.17248743224E+03 0.  0.
         24    2    5    5    0    0  0.12547266252E+02 -0.17185847300E+02  0.17862605335E+04  0.17882736479E+04  0.82116738474E+02 0.  0.
          5    1    5    5  501    0 -0.13442571980E+01  0.14185193907E+02  0.14835072942E+02  0.21099671627E+02  0.47000000000E+01 0. -1.
        -13    1    6    6    0    0  0.35687181041E+02 -0.11420729075E+01  0.15391394565E+04  0.15395535540E+04  0.00000000000E+00 0.  1.
         14    1    6    6    0    0 -0.23139914789E+02 -0.16043774393E+02  0.24712107706E+03  0.24872009385E+03  0.00000000000E+00 0. -1.
         -5    1    3    3    0  503  0.34874598531E+02 -0.46952713250E+02  0.96592608664E+02  0.11301777273E+03  0.47000000000E+01 0.  1.
         11    1    4    4    0    0  0.12400485502E+02  0.50962486237E+00  0.44890865491E+02  0.46574902713E+02  0.00000000000E+00 0. -1.
        -12    1    4    4    0    0 -0.58478093087E+02  0.49443741781E+02  0.25904405097E+02  0.80841877612E+02  0.00000000000E+00 0.  1.
</event>
<event>
12    1  0.8562501E-002  0.3476519E+03  0.7818608E-02  0.1063730E+00
         21   -1    0    0  503  502  0.00000000000E+00  0.00000000000E+00  0.51734612633E+03  0.51734612633E+03  0.00000000000E+00 0.  1.
         21   -1    0    0  501  503 -0.00000000000E+00 -0.00000000000E+00 -0.24950373299E+03  0.24950373299E+03  0.00000000000E+00 0. -1.
          6    2    1    2  501    0 -0.29400138274E+03  0.67840585790E+02  0.34570064415E+02  0.34936646875E+03  0.17269244918E+03 0.  0.
         24    2    3    3    0    0 -0.27581052027E+03  0.11069129511E+02  0.20840198390E+02  0.28801090709E+03  0.79511005645E+02 0.  0.
         -6    2    1    2    0  502  0.29400138274E+03 -0.67840585790E+02  0.23327232893E+03  0.41748339057E+03  0.16981532271E+03 0.  0.
        -24    2    5    5    0    0  0.27480046953E+03 -0.39427680348E+02  0.24696756048E+03  0.38025950535E+03  0.80836102375E+02 0.  0.
          5    1    3    3  501    0 -0.18190862470E+02  0.56771456279E+02  0.13729866025E+02  0.61355561659E+02  0.47000000000E+01 0. -1.
        -13    1    4    4    0    0 -0.10062182830E+03 -0.33443510593E+02 -0.20849105085E+00  0.10603425956E+03  0.00000000000E+00 0.  1.
         14    1    4    4    0    0 -0.17518869197E+03  0.44512640104E+02  0.21048689441E+02  0.18197664754E+03  0.00000000000E+00 0. -1.
         -5    1    5    5    0  502  0.19200913207E+02 -0.28412905443E+02 -0.13695231554E+02  0.37223885222E+02  0.47000000000E+01 0.  1.
         13    1    6    6    0    0  0.23191411163E+03 -0.62572294324E+02  0.19984833033E+03  0.31247208248E+03  0.00000000000E+00 0. -1.
        -14    1    6    6    0    0  0.42886357896E+02  0.23144613976E+02  0.47119230149E+02  0.67787422871E+02  0.00000000000E+00 0.  1.
</event>
<event>
12    1  0.8562501E-002  0.2930176E+03  0.7818608E-02  0.1089987E+00
         21   -1    0    0  501  502  0.00000000000E+00  0.00000000000E+00  0.72745262801E+03  0.72745262801E+03  0.00000000000E+00 0. -1.
         21   -1    0    0  502  503 -0.00000000000E+00 -0.00000000000E+00 -0.24278756845E+03  0.24278756845E+03  0.00000000000E+00 0.  1.
         -6    2    1    2    0  503 -0.19845727140E+03 -0.10940634898E+03 -0.11229375527E+03  0.30524460298E+03  0.17090740887E+03 0.  0.
        -24    2    3    3    0    0 -0.14832891504E+03 -0.66556844113E+02 -0.10465534704E+02  0.18383616554E+03  0.85175864007E+02 0.  0.
          6    2    1    2  501    0  0.19845727140E+03  0.10940634898E+03  0.59695881482E+03  0.66499559348E+03  0.18575326374E+03 0.  0.
         24    2    5    5    0    0  0.11540081935E+03  0.14593610241E+03  0.41146423651E+03  0.45844505319E+03  0.79084472387E+02 0.  0.
          5    1    5    5  501    0  0.83056452047E+02 -0.36529753429E+02  0.18549457832E+03  0.20655054030E+03  0.47000000000E+01 0. -1.
        -11    1    6    6    0    0  0.96690453298E+02  0.11761915070E+03  0.38901831296E+03  0.41775418153E+03  0.00000000000E+00 0.  1.
         12    1    6    6    0    0  0.18710366052E+02  0.28316951713E+02  0.22445923550E+02  0.40690871655E+02  0.00000000000E+00 0. -1.
         -5    1    3    3    0  503 -0.50128356361E+02 -0.42849504872E+02 -0.10182822056E+03  0.12140843744E+03  0.47000000000E+01 0.  1.
         13    1    4    4    0    0 -0.62951348744E+02 -0.56120949726E+02  0.29025910973E+02  0.89190452486E+02  0.00000000000E+00 0. -1.
        -14    1    4    4    0    0 -0.85377566291E+02 -0.10435894387E+02 -0.39491445677E+02  0.94645713052E+02  0.00000000000E+00 0.  1.
</event>
<event>
12    1  0.8562501E-002  0.2597477E+03  0.7818608E-02  0.1107364E+00
         21   -1    0    0  503  502  0.00000000000E+00  0.00000000000E+00  0.53345123327E+02  0.53345123327E+02  0.00000000000E+00 0. -1.
         21   -1    0    0  501  503 -0.00000000000E+00 -0.00000000000E+00 -0.12863355491E+04  0.12863355491E+04  0.00000000000E+00 0. -1.
          6    2    1    2  501    0 -0.17277229752E+03  0.86499170716E+02 -0.70817397344E+03  0.75430711629E+03  0.17359860514E+03 0.  0.
         24    2    3    3    0    0 -0.12757965858E+03  0.10371429504E+01 -0.31544119666E+03  0.34982317748E+03  0.81212449784E+02 0.  0.
         -6    2    1    2    0  502  0.17277229752E+03 -0.86499170716E+02 -0.52481645237E+03  0.58537355617E+03  0.17290898838E+03 0.  0.
        -24    2    5    5    0    0  0.12742232748E+03  0.21108902288E+00 -0.22081298977E+03  0.26597492719E+03  0.75814189565E+02 0.  0.
          5    1    3    3  501    0 -0.45192638940E+02  0.85462027766E+02 -0.39273277677E+03  0.40448393881E+03  0.47000000000E+01 0. -1.
        -13    1    4    4    0    0 -0.92224298932E+02  0.36195563988E+02 -0.23702350892E+03  0.25689605670E+03  0.00000000000E+00 0.  1.
         14    1    4    4    0    0 -0.35355359646E+02 -0.35158421038E+02 -0.78417687743E+02  0.92927120780E+02  0.00000000000E+00 0. -1.
         -5    1    5    5    0  502  0.45349970032E+02 -0.86710259739E+02 -0.30400346259E+03  0.31939862898E+03  0.47000000000E+01 0.  1.
         11    1    6    6    0    0  0.91589141136E+01 -0.58095005679E+01  0.42592165125E+01  0.11652335813E+02  0.00000000000E+00 0. -1.
        -12    1    6    6    0    0  0.11826341337E+03  0.60205895907E+01 -0.22507220628E+03  0.25432259137E+03  0.00000000000E+00 0.  1.
</event>
<event>
12    1  0.8562501E-002  0.1912662E+03  0.7818608E-02  0.1160394E+00
         21   -1    0    0  503  502  0.00000000000E+00  0.00000000000E+00  0.38350260218E+02  0.38350260218E+02  0.00000000000E+00 0.  1.
         21   -1    0    0  501  503 -0.00000000000E+00 -0.00000000000E+00 -0.12525943598E+04  0.12525943598E+04  0.00000000000E+00 0.  1.
          6    2    1    2  501    0 -0.43376828368E+02  0.18353462831E+02 -0.97008156679E+03  0.98875729910E+03  0.18537624298E+03 0.  0.
         24    2    3    3    0    0  0.39157802383E+02  0.34363580793E+02 -0.39273902715E+03  0.40530654091E+03  0.85529290236E+02 0.  0.
         -6    2    1    2    0  502  0.43376828368E+02 -0.18353462831E+02 -0.24416253282E+03  0.30218732095E+03  0.17170741298E+03 0.  0.
        -24    2    5    5    0    0  0.69009347360E+02 -0.58048904764E+02 -0.21451754022E+03  0.24620813083E+03  0.80428249126E+02 0.  0.
          5    1    3    3  501    0 -0.82534630751E+02 -0.16010117962E+02 -0.57734253964E+03  0.58345075819E+03  0.47000000000E+01 0. -1.
        -11    1    4    4    0    0  0.18691932536E+02 -0.33295787167E+01 -0.32214651741E+03  0.32270552074E+03  0.00000000000E+00 0.  1.
         12    1    4    4    0    0  0.20465869847E+02  0.37693159510E+02 -0.70592509739E+02  0.82601020173E+02  0.00000000000E+00 0. -1.
         -5    1    5    5    0  502 -0.25632518992E+02  0.39695441933E+02 -0.29644992608E+02  0.55979190124E+02  0.47000000000E+01 0.  1.
         13    1    6    6    0    0  0.21966934912E+02 -0.24032783539E+02 -0.16989697065E+03  0.17298873244E+03  0.00000000000E+00 0. -1.
        -14    1    6    6    0    0  0.47042412448E+02 -0.34016121224E+02 -0.44620569564E+02  0.73219398388E+02  0.00000000000E+00 0.  1.
</event>
<event>
12    1  0.8562501E-002  0.1930358E+03  0.7818608E-02  0.1155857E+00
         21   -1    0    0  503  502  0.00000000000E+00  0.00000000000E+00  0.12417030212E+03  0.12417030212E+03  0.00000000000E+00 0.  1.
         21   -1    0    0  501  503 -0.00000000000E+00 -0.00000000000E+00 -0.55137847630E+03  0.55137847630E+03  0.00000000000E+00 0.  1.
          6    2    1    2  501    0 -0.98890360157E+01 -0.82681148367E+02 -0.44182256510E+03  0.48196055699E+03  0.17362267747E+03 0.  0.
         24    2    3    3    0    0 -0.27950277381E+02 -0.83972405175E+02 -0.44735512609E+03  0.46245222506E+03  0.76830129432E+02 0.  0.
         -6    2    1    2    0  502  0.98890360157E+01  0.82681148367E+02  0.14614390921E+02  0.19358822143E+03  0.17415181230E+03 0.  0.
        -24    2    5    5    0    0 -0.15204152735E+02  0.24448702605E+02  0.68014364961E+02  0.11055610061E+03  0.82266592376E+02 0.  0.
          5    1    3    3  501    0  0.18061241365E+02  0.12912568079E+01  0.55325609839E+01  0.19508331933E+02  0.47000000000E+01 0. -1.
        -11    1    4    4    0    0  0.25164088975E+02 -0.12659295722E+02 -0.99283747499E+02  0.10320247894E+03  0.00000000000E+00 0.  1.
         12    1    4    4    0    0 -0.53114366356E+02 -0.71313109453E+02 -0.34807137859E+03  0.35924974612E+03  0.00000000000E+00 0. -1.
         -5    1    5    5    0  502  0.25093188751E+02  0.58232445762E+02 -0.53399974040E+02  0.83032120824E+02  0.47000000000E+01 0.  1.
         11    1    6    6    0    0  0.50252408029E+01  0.33462111225E+02 -0.50472350061E+01  0.34211701419E+02  0.00000000000E+00 0. -1.
        -12    1    6    6    0    0 -0.20229393538E+02 -0.90134086200E+01  0.73061599967E+02  0.76344399189E+02  0.00000000000E+00 0.  1.
</event>
<event>
12    1  0.8562501E-002  0.2484191E+03  0.7818608E-02  0.1114421E+00
         21   -1    0    0  503  502  0.00000000000E+00  0.00000000000E+00  0.13943446681E+04  0.13943446681E+04  0.00000000000E+00 0. -1.
         21   -1    0    0  501  503 -0.00000000000E+00 -0.00000000000E+00 -0.45226635428E+02  0.45226635428E+02  0.00000000000E+00 0.  1.
          6    2    1    2  501    0  0.61165406078E+02  0.16869906981E+03  0.56169181204E+03  0.61388849062E+03  0.17076534821E+03 0.  0.
         24    2    3    3    0    0 -0.28844344009E+02  0.10001196458E+03  0.24511828147E+03  0.27764369320E+03  0.78540812459E+02 0.  0.
         -6    2    1    2    0  502 -0.61165406078E+02 -0.16869906981E+03  0.78742622061E+03  0.82568281288E+03  0.17178903206E+03 0.  0.
        -24    2    5    5    0    0 -0.13182564193E+01 -0.17047100857E+03  0.60330888258E+03  0.63201788252E+03  0.80018082118E+02 0.  0.
          5    1    3    3  501    0  0.90009750087E+02  0.68687105225E+02  0.31657353056E+03  0.33624479741E+03  0.47000000000E+01 0. -1.
        -13    1    4    4    0    0  0.15130655367E+01 -0.13135240550E+02  0.26530208581E+02  0.29642467492E+02  0.00000000000E+00 0.  1.
         14    1    4    4    0    0 -0.30357409545E+02  0.11314720513E+03  0.21858807289E+03  0.24800122571E+03  0.00000000000E+00 0. -1.
         -5    1    5    5    0  502 -0.59847149659E+02  0.17719387644E+01  0.18411733803E+03  0.19366493036E+03  0.47000000000E+01 0.  1.
         11    1    6    6    0    0  0.81215606060E+01 -0.41326270020E+02  0.28942353548E+03  0.29247188452E+03  0.00000000000E+00 0. -1.
        -12    1    6    6    0    0 -0.94398170253E+01 -0.12914473855E+03  0.31388534710E+03  0.33954599801E+03  0.00000000000E+00 0.  1.
</event>
<event>
12    1  0.8562501E-002  0.2006119E+03  0.7818608E-02  0.1149471E+00
         21   -1    0    0  503  502  0.00000000000E+00  0.00000000000E+00  0.16170697521E+03  0.16170697521E+03  0.00000000000E+00 0. -1.
         21   -1    0    0  501  503 -0.00000000000E+00 -0.00000000000E+00 -0.25300974082E+03  0.25300974082E+03  0.00000000000E+00 0.  1.
          6    2    1    2  501    0  0.70002706044E+02 -0.75829905528E+02 -0.14712967211E+02  0.19998170118E+03  0.17066240352E+03 0.  0.
         24    2    3    3    0    0 -0.16007503377E+02 -0.39669526674E+02  0.31362449914E+02  0.95816624562E+02  0.79795430740E+02 0.  0.
         -6    2    1    2    0  502 -0.70002706044E+02  0.75829905528E+02 -0.76589798399E+02  0.21473501485E+03  0.17203074131E+03 0.  0.
        -24    2    5    5    0    0 -0.77179664715E+02  0.10778606837E+03 -0.89738253403E+02  0.17913056360E+03  0.80375789333E+02 0.  0.
          5    1    3    3  501    0  0.86010209422E+02 -0.36160378854E+02 -0.46075417125E+02  0.10416507662E+03  0.47000000000E+01 0. -1.
        -13    1    4    4    0    0  0.12428324617E+02  0.13093462845E+02  0.31005126717E+02  0.35877846993E+02  0.00000000000E+00 0.  1.
         14    1    4    4    0    0 -0.28435827994E+02 -0.52762989518E+02  0.35732319630E+00  0.59938777569E+02  0.00000000000E+00 0. -1.
         -5    1    5    5    0  502  0.71769586703E+01 -0.31956162846E+02  0.13148455004E+02  0.35604451247E+02  0.47000000000E+01 0.  1.
         13    1    6    6    0    0 -0.88815921929E+01  0.23390577147E+02  0.14251281754E+02  0.28794110696E+02  0.00000000000E+00 0. -1.
        -14    1    6    6    0    0 -0.68298072522E+02  0.84395491227E+02 -0.10398953516E+03  0.15033645290E+03  0.00000000000E+00 0.  1.
</event>
<event>
12    1  0.8562501E-002  0.2274695E+03  0.7818608E-02  0.1128833E+00
         21   -1    0    0  501  502  0.00000000000E+00  0.00000000000E+00  0.21995065003E+03  0.21995065003E+03  0.00000000000E+00 0.  1.
         21   -1    0    0  502  503 -0.00000000000E+00 -0.00000000000E+00 -0.87884958412E+03  0.87884958412E+03  0.00000000000E+00 0.  1.
         -6    2    1    2    0  503 -0.37671678144E+02 -0.14295162966E+03 -0.80087036429E+03  0.83254773369E+03  0.17288164945E+03 0.  0.
        -24    2    3    3    0    0  0.80402001285E+01 -0.11161980248E+03 -0.72860526361E+03  0.74135785494E+03  0.78881010385E+02 0.  0.
          6    2    1    2  501    0  0.37671678144E+02  0.14295162966E+03  0.14197143019E+03  0.26625250046E+03  0.16994170547E+03 0.  0.
         24    2    5    5    0    0  0.22319188320E+02  0.13239201652E+03  0.17165273889E+03  0.23089328018E+03  0.76297128776E+02 0.  0.
          5    1    5    5  501    0  0.15352489825E+02  0.10559613138E+02 -0.29681308693E+02  0.35359220285E+02  0.47000000000E+01 0. -1.
        -13    1    6    6    0    0  0.10190770069E+02  0.64601641615E+02  0.27136016560E+02  0.70806689576E+02  0.00000000000E+00 0.  1.
         14    1    6    6    0    0  0.12128418250E+02  0.67790374903E+02  0.14451672233E+03  0.16008659060E+03  0.00000000000E+00 0. -1.
         -5    1    3    3    0  503 -0.45711878273E+02 -0.31331827180E+02 -0.72265100683E+02  0.91189878750E+02  0.47000000000E+01 0.  1.
         13    1    4    4    0    0 -0.71334703554E+01 -0.29428942741E+01 -0.43926811120E+01  0.88793396923E+01  0.00000000000E+00 0. -1.
        -14    1    4    4    0    0  0.15173670484E+02 -0.10867690820E+03 -0.72421258250E+03  0.73247851525E+03  0.00000000000E+00 0.  1.
</event>
<event>
12    1  0.8562501E-002  0.3536038E+03  0.7818608E-02  0.1061151E+00
         21   -1    0    0  501  502  0.00000000000E+00  0.00000000000E+00  0.58924044073E+03  0.58924044073E+03  0.00000000000E+00 0. -1.
         21   -1    0    0  502  503 -0.00000000000E+00 -0.00000000000E+00 -0.51931427272E+03  0.51931427272E+03  0.00000000000E+00 0. -1.
         -6    2    1    2    0  503  0.23844670277E+03 -0.19629638140E+03  0.46123504949E+03  0.58114759971E+03  0.17206296046E+03 0.  0.
        -24    2    3    3    0    0  0.18788750678E+03 -0.72747081511E+02  0.23863895835E+03  0.32154834780E+03  0.76491401205E+02 0.  0.
          6    2    1    2  501    0 -0.23844670277E+03  0.19629638140E+03 -0.39130888148E+03  0.52740711373E+03  0.17218165835E+03 0.  0.
         24    2    5    5    0    0 -0.10263468858E+03  0.36489392521E+02 -0.21181809188E+03  0.25132341185E+03  0.80194751874E+02 0.  0.
          5    1    5    5  501    0 -0.13581201419E+03  0.15980698888E+03 -0.17949078960E+03  0.27608370188E+03  0.47000000000E+01 0. -1.
        -11    1    6    6    0    0  0.33409546618E+01  0.28309346956E+01  0.56077861921E+01  0.71150147772E+01  0.00000000000E+00 0.  1.
         12    1    6    6    0    0 -0.10597564324E+03  0.33658457826E+02 -0.21742587808E+03  0.24420839707E+03  0.00000000000E+00 0. -1.
         -5    1    3    3    0  503  0.50559195991E+02 -0.12354929989E+03  0.22259609115E+03  0.25959925192E+03  0.47000000000E+01 0.  1.
         11    1    4    4    0    0  0.68231976715E+02 -0.64538530411E+02  0.85286896992E+02  0.12686480738E+03  0.00000000000E+00 0. -1.
        -12    1    4    4    0    0  0.11965553006E+03 -0.82085510996E+01  0.15335206135E+03  0.19468354041E+03  0.00000000000E+00 0.  1.
</event>
<event>
12    1  0.8562501E-002  0.3649980E+03  0.7818608E-02  0.1056842E+00
         21   -1    0    0  503  502  0.00000000000E+00  0.00000000000E+00  0.14979765802E+03  0.14979765802E+03  0.00000000000E+00 0.  1.
         21   -1    0    0  501  503 -0.00000000000E+00 -0.00000000000E+00 -0.91480239155E+03  0.91480239155E+03  0.00000000000E+00 0.  1.
          6    2    1    2  501    0  0.25736636376E+03 -0.19086917009E+03 -0.48153487950E+03  0.60423455353E+03  0.17480008643E+03 0.  0.
         24    2    3    3    0    0  0.18754156154E+03 -0.15673083731E+03 -0.45374650619E+03  0.52155920980E+03  0.80010779122E+02 0.  0.
         -6    2    1    2    0  502 -0.25736636376E+03  0.19086917009E+03 -0.28346985403E+03  0.46036549604E+03  0.17003748562E+03 0.  0.
        -24    2    5    5    0    0 -0.10826319797E+03  0.28206186066E+02 -0.75234252805E+02  0.15692661251E+03  0.80307284554E+02 0.  0.
          5    1    3    3  501    0  0.69824802218E+02 -0.34138332785E+02 -0.27788373312E+02  0.82675343734E+02  0.47000000000E+01 0. -1.
        -13    1    4    4    0    0  0.37546103564E+02  0.22458292719E+01 -0.51597371064E+02  0.63851721533E+02  0.00000000000E+00 0.  1.
         14    1    4    4    0    0  0.14999545798E+03 -0.15897666658E+03 -0.40214913512E+03  0.45770748826E+03  0.00000000000E+00 0. -1.
         -5    1    5    5    0  502 -0.14910316579E+03  0.16266298402E+03 -0.20823560122E+03  0.30343888353E+03  0.47000000000E+01 0.  1.
         11    1    6    6    0    0 -0.54397333094E+01  0.30688233185E+02 -0.33978803218E+02  0.46107672058E+02  0.00000000000E+00 0. -1.
        -12    1    6    6    0    0 -0.10282346466E+03 -0.24820471194E+01 -0.41255449587E+02  0.11081894046E+03  0.00000000000E+00 0.  1.
</event>
<event>
12    1  0.8562501E-002  0.1976531E+03  0.7818608E-02  0.1152043E+00
         21   -1    0    0  503  502  0.00000000000E+00  0.00000000000E+00  0.58524019947E+02  0.58524019947E+02  0.00000000000E+00 0.  1.
         21   -1    0    0  501  503 -0.00000000000E+00 -0.00000000000E+00 -0.72029833329E+03  0.72029833329E+03  0.00000000000E+00 0.  1.
          6    2    1    2  501    0  0.50281956537E+02 -0.82421003681E+02 -0.44211655570E+03  0.48428687841E+03  0.17246806887E+03 0.  0.
         24    2    3    3    0    0 -0.49208403164E+01  0.89834266193E+01 -0.26084662309E+03  0.27385162204E+03  0.82757679346E+02 0.  0.
         -6    2    1    2    0  502 -0.50281956537E+02  0.82421003681E+02 -0.21965775764E+03  0.29453547482E+03  0.17082189097E+03 0.  0.
        -24    2    5    5    0    0 -0.81520370276E+02  0.91703104100E+01 -0.15073410796E+03  0.18911222291E+03  0.79454365449E+02 0.  0.
          5    1    3    3  501    0  0.55202796854E+02 -0.91404430301E+02 -0.18126993261E+03  0.21043525638E+03  0.47000000000E+01 0. -1.
        -11    1    4    4    0    0 -0.63580864060E+01 -0.53184801908E+01 -0.25925763616E+03  0.25939011817E+03  0.00000000000E+00 0.  1.
         12    1    4    4    0    0  0.14372460896E+01  0.14301906810E+02 -0.15889869296E+01  0.14461503870E+02  0.00000000000E+00 0. -1.
         -5    1    5    5    0  502  0.31238413739E+02  0.73250693271E+02 -0.68923649683E+02  0.10542325191E+03  0.47000000000E+01 0.  1.
         11    1    6    6    0    0 -0.46427501916E+02  0.32525880737E+02 -0.13064984637E+03  0.14241779456E+03  0.00000000000E+00 0. -1.
        -12    1    6    6    0    0 -0.35092868360E+02 -0.23355570328E+02 -0.20084261590E+02  0.46694428348E+02  0.00000000000E+00 0.  1.
</event>
<event>
12    1  0.8562501E-002  0.2630222E+03  0.7818608E-02  0.1105359E+00
         21   -1    0    0  503  502  0.00000000000E+00  0.00000000000E+00  0.52494140927E+03  0.52494140927E+03  0.00000000000E+00 0. -1.
         21   -1    0    0  501  503 -0.00000000000E+00 -0.00000000000E+00 -0.14999215780E+03  0.14999215780E+03  0.00000000000E+00 0.  1.
          6    2    1    2  501    0 -0.81988547127E+02 -0.18136577016E+03  0.69668274973E+02  0.27197306347E+03  0.17175568192E+03 0.  0.
         24    2    3    3    0    0 -0.88264636696E+02 -0.88600288139E+02  0.92989612595E+02  0.17600015718E+03  0.81782211549E+02 0.  0.
         -6    2    1    2    0  502  0.81988547127E+02  0.18136577016E+03  0.30528097650E+03  0.40296050360E+03  0.17194484116E+03 0.  0.
        -24    2    5    5    0    0  0.46421827547E+02  0.16993770721E+03  0.30900706919E+03  0.36512446349E+03  0.82442068273E+02 0.  0.
          5    1    3    3  501    0  0.62760895692E+01 -0.92765482020E+02 -0.23321337622E+02  0.95972906297E+02  0.47000000000E+01 0. -1.
        -13    1    4    4    0    0 -0.65709864256E+02 -0.96313004949E+02  0.50037234297E+02  0.12687673545E+03  0.00000000000E+00 0.  1.
         14    1    4    4    0    0 -0.22554772440E+02  0.77127168099E+01  0.42952378298E+02  0.49123421724E+02  0.00000000000E+00 0. -1.
         -5    1    5    5    0  502  0.35566719580E+02  0.11428062954E+02 -0.37260926957E+01  0.37836040112E+02  0.47000000000E+01 0.  1.
         11    1    6    6    0    0  0.46077742795E+02  0.41913428963E+02  0.67949985994E+02  0.92179685968E+02  0.00000000000E+00 0. -1.
        -12    1    6    6    0    0  0.34408475217E+00  0.12802427824E+03  0.24105708320E+03  0.27294477752E+03  0.00000000000E+00 0.  1.
</event>
<event>
12    1  0.8562501E-002  0.2355478E+03  0.7818608E-02  0.1122801E+00
         21   -1    0    0  501  502  0.00000000000E+00  0.00000000000E+00  0.16712238361E+04  0.16712238361E+04  0.00000000000E+00 0.  1.
         21   -1    0    0  502  503 -0.00000000000E+00 -0.00000000000E+00 -0.48000176037E+02  0.48000176037E+02  0.00000000000E+00 0.  1.
         -6    2    1    2    0  503  0.14720871528E+03 -0.64205056790E+02  0.33422847101E+03  0.40889048647E+03  0.17230804949E+03 0.  0.
        -24    2    3    3    0    0  0.50774239054E+02 -0.11871231719E+02  0.25629082115E+03  0.27422495741E+03  0.82434172319E+02 0.  0.
          6    2    1    2  501    0 -0.14720871528E+03  0.64205056790E+02  0.12889951891E+04  0.13103335257E+04  0.17225752791E+03 0.  0.
         24    2    5    5    0    0 -0.12632266100E+03  0.28359121569E+01  0.10530904773E+04  0.10656387725E+04  0.10305815402E+03 0.  0.
          5    1    5    5  501    0 -0.20886054281E+02  0.61369144633E+02  0.23590471184E+03  0.24469475320E+03  0.47000000000E+01 0. -1.
        -13    1    6    6    0    0  0.11583928220E+02 -0.19152540567E+02  0.19161567458E+03  0.19291856818E+03  0.00000000000E+00 0.  1.
         14    1    6    6    0    0 -0.13790658922E+03  0.21988452724E+02  0.86147480268E+03  0.87272020433E+03  0.00000000000E+00 0. -1.
         -5    1    3    3    0  503  0.96434476224E+02 -0.52333825071E+02  0.77937649859E+02  0.13466552906E+03  0.47000000000E+01 0.  1.
         13    1    4    4    0    0  0.72186980430E+02 -0.17296538611E+02  0.21407173514E+03  0.22657634073E+03  0.00000000000E+00 0. -1.
        -14    1    4    4    0    0 -0.21412741376E+02  0.54253068921E+01  0.42219086012E+02  0.47648616683E+02  0.00000000000E+00 0.  1.
</event>
<event>
12    1  0.8562501E-002  0.1984262E+03  0.7818608E-02  0.1152236E+00
         21   -1    0    0  501  502  0.00000000000E+00  0.00000000000E+00  0.19159212471E+04  0.19159212471E+04  0.00000000000E+00 0.  1.
         21   -1    0    0  502  503 -0.00000000000E+00 -0.00000000000E+00 -0.22226360241E+02  0.22226360241E+02  0.00000000000E+00 0. -1.
         -6    2    1    2    0  503 -0.74622489588E+02 -0.43693350149E+02  0.12653885642E+04  0.12808517316E+04  0.17859259579E+03 0.  0.
        -24    2    3    3    0    0 -0.49785670739E+02 -0.55531652735E+02  0.39758175137E+03  0.41259614292E+03  0.81252388648E+02 0.  0.
          6    2    1    2  501    0  0.74622489588E+02  0.43693350149E+02  0.62830632271E+03  0.65729587574E+03  0.17260187805E+03 0.  0.
         24    2    5    5    0    0  0.62016553254E+02  0.42093881493E+02  0.19176098048E+03  0.22054034486E+03  0.79043167569E+02 0.  0.
          5    1    5    5  501    0  0.12605936333E+02  0.15994686561E+01  0.43654534223E+03  0.43675553088E+03  0.47000000000E+01 0. -1.
        -13    1    6    6    0    0 -0.16267596889E+01 -0.32760826094E+01  0.99735868108E+02  0.99802918052E+02  0.00000000000E+00 0.  1.
         14    1    6    6    0    0  0.63643312943E+02  0.45369964103E+02  0.92025112372E+02  0.12073742681E+03  0.00000000000E+00 0. -1.
         -5    1    3    3    0  503 -0.24836818849E+02  0.11838302585E+02  0.86780681280E+03  0.86825558871E+03  0.47000000000E+01 0.  1.
         13    1    4    4    0    0 -0.57418312528E+02 -0.71397755748E+02  0.35210188992E+03  0.36382721589E+03  0.00000000000E+00 0. -1.
        -14    1    4    4    0    0  0.76326417892E+01  0.15866103014E+02  0.45479861456E+02  0.48768927029E+02  0.00000000000E+00 0.  1.
</event>
<event>
12    1  0.8562501E-002  0.1952068E+03  0.7818608E-02  0.1155960E+00
         21   -1    0    0  501  502  0.00000000000E+00  0.00000000000E+00  0.51578976371E+03  0.51578976371E+03  0.00000000000E+00 0.  1.
         21   -1    0    0  502  503 -0.00000000000E+00 -0.00000000000E+00 -0.16329006175E+03  0.16329006175E+03  0.00000000000E+00 0.  1.
         -6    2    1    2    0  503  0.21273934778E+02  0.90706570195E+02 -0.81768616654E+02  0.20295518958E+03  0.16069984484E+03 0.  0.
        -24    2    3    3    0    0  0.13263168323E+02  0.44283650105E+02  0.15849972610E+02  0.94462153592E+02  0.80838873872E+02 0.  0.
          6    2    1    2  501    0 -0.21273934778E+02 -0.90706570195E+02  0.43426831861E+03  0.47612463588E+03  0.17153843348E+03 0.  0.
         24    2    5    5    0    0  0.23320336234E+02 -0.10983389218E+02  0.31556558668E+03  0.32626849433E+03  0.78771936448E+02 0.  0.
          5    1    5    5  501    0 -0.44594271012E+02 -0.79723180977E+02  0.11870273193E+03  0.14985614155E+03  0.47000000000E+01 0. -1.
        -13    1    6    6    0    0  0.57338825561E+01 -0.43957068702E+02  0.19820345100E+03  0.20310024442E+03  0.00000000000E+00 0.  1.
         14    1    6    6    0    0  0.17586453678E+02  0.32973679483E+02  0.11736213568E+03  0.12316824990E+03  0.00000000000E+00 0. -1.
         -5    1    3    3    0  503  0.80107664549E+01  0.46422920091E+02 -0.97618589264E+02  0.10849303599E+03  0.47000000000E+01 0.  1.
         13    1    4    4    0    0 -0.21929244723E+02  0.52571320367E+02  0.10222847728E+02  0.57871773041E+02  0.00000000000E+00 0. -1.
        -14    1    4    4    0    0  0.35192413046E+02 -0.82876702628E+01  0.56271248826E+01  0.36590380550E+02  0.00000000000E+00 0.  1.
</event>
<event>
12    1  0.8562501E-002  0.2017841E+03  0.7818608E-02  0.1148243E+00
         21   -1    0    0  501  502  0.00000000000E+00  0.00000000000E+00  0.14753251237E+04  0.14753251237E+04  0.00000000000E+00 0.  1.
         21   -1    0    0  502  503 -0.00000000000E+00 -0.00000000000E+00 -0.10142148854E+03  0.10142148854E+03  0.00000000000E+00 0.  1.
         -6    2    1    2    0  503  0.82361564293E+02  0.67054846998E+02  0.14340631667E+02  0.20229093744E+03  0.17156978135E+03 0.  0.
        -24    2    3    3    0    0  0.18822569838E+02  0.48921289899E+02  0.67527765263E+02  0.11733806291E+03  0.80378107630E+02 0.  0.
          6    2    1    2  501    0 -0.82361564293E+02 -0.67054846998E+02  0.13595630035E+04  0.13744556748E+04  0.17157232221E+03 0.  0.
         24    2    5    5    0    0 -0.11951939777E+03 -0.51621506200E+02  0.87925255663E+03  0.89244000290E+03  0.80090162205E+02 0.  0.
          5    1    5    5  501    0  0.37157833481E+02 -0.15433340797E+02  0.48031044688E+03  0.48201567192E+03  0.47000000000E+01 0. -1.
        -13    1    6    6    0    0 -0.84908045310E+02 -0.38250057032E+02  0.35954329114E+03  0.37140789064E+03  0.00000000000E+00 0.  1.
         14    1    6    6    0    0 -0.34611352464E+02 -0.13371449169E+02  0.51970926549E+03  0.52103211226E+03  0.00000000000E+00 0. -1.
         -5    1    3    3    0  503  0.63538994455E+02  0.18133557098E+02 -0.53187133596E+02  0.84952874522E+02  0.47000000000E+01 0.  1.
         11    1    4    4    0    0  0.18554351764E+01 -0.21944895883E+02  0.23472490395E+02  0.32186626110E+02  0.00000000000E+00 0. -1.
        -12    1    4    4    0    0  0.16967134661E+02  0.70866185783E+02  0.44055274869E+02  0.85151436804E+02  0.00000000000E+00 0.  1.
</event>
<event>
12    1  0.8562501E-002  0.1865274E+03  0.7818608E-02  0.1161811E+00
         21   -1    0    0  501  502  0.00000000000E+00  0.00000000000E+00  0.20638714024E+03  0.20638714024E+03  0.00000000000E+00 0. -1.
         21   -1    0    0  502  503 -0.00000000000E+00 -0.00000000000E+00 -0.16867304370E+03  0.16867304370E+03  0.00000000000E+00 0. -1.
         -6    2    1    2    0  503  0.68616822941E+02  0.18463488546E+02  0.31791466829E+02  0.18921727535E+03  0.17246249194E+03 0.  0.
        -24    2    3    3    0    0  0.10497566786E+03  0.32362059511E+02  0.52389402598E+02  0.14492844113E+03  0.78691866197E+02 0.  0.
          6    2    1    2  501    0 -0.68616822941E+02 -0.18463488546E+02  0.59226297048E+01  0.18584290859E+03  0.17161975508E+03 0.  0.
         24    2    5    5    0    0 -0.49619628980E+02  0.26632945442E+02 -0.50900278473E+02  0.11070626886E+03  0.80582989850E+02 0.  0.
          5    1    5    5  501    0 -0.18997193962E+02 -0.45096433988E+02  0.56822908177E+02  0.75136639735E+02  0.47000000000E+01 0. -1.
        -13    1    6    6    0    0 -0.43728760758E+00 -0.10520890504E+02  0.16371751059E+02  0.19465728607E+02  0.00000000000E+00 0.  1.
         14    1    6    6    0    0 -0.49182341372E+02  0.37153835946E+02 -0.67272029531E+02  0.91240540253E+02  0.00000000000E+00 0. -1.
         -5    1    3    3    0  503 -0.36358844916E+02 -0.13898570965E+02 -0.20597935768E+02  0.44288834218E+02  0.47000000000E+01 0.  1.
         13    1    4    4    0    0  0.99700476284E+02 -0.24707741721E+01  0.41847591979E+02  0.10815503063E+03  0.00000000000E+00 0. -1.
        -14    1    4    4    0    0  0.52751915735E+01  0.34832833683E+02  0.10541810619E+02  0.36773410498E+02  0.00000000000E+00 0.  1.
</event>
<event>
12    1  0.8562501E-002  0.1914689E+03  0.7818608E-02  0.1157759E+00
         21   -1    0    0  503  502  0.00000000000E+00  0.00000000000E+00  0.12346726636E+04  0.12346726636E+04  0.00000000000E+00 0.  1.
         21   -1    0    0  501  503 -0.00000000000E+00 -0.00000000000E+00 -0.33638833269E+02  0.33638833269E+02  0.00000000000E+00 0.  1.
          6    2    1    2  501    0 -0.74890053243E+02 -0.22887764397E+02  0.83283905432E+03  0.85456493402E+03  0.17472254069E+03 0.  0.
         24    2    3    3    0    0 -0.10975160097E+03 -0.49477277459E+02  0.69938770335E+03  0.71401713862E+03  0.78637775649E+02 0.  0.
         -6    2    1    2    0  502  0.74890053243E+02  0.22887764397E+02  0.36819477605E+03  0.41374656288E+03  0.17171620586E+03 0.  0.
        -24    2    5    5    0    0  0.94301045409E+02  0.63521606178E+02  0.32179755757E+03  0.34891842396E+03  0.72544585593E+02 0.  0.
          5    1    3    3  501    0  0.34861547722E+02  0.26589513062E+02  0.13345135097E+03  0.14054779540E+03  0.47000000000E+01 0. -1.
        -13    1    4    4    0    0 -0.11247835072E+03 -0.36623825678E+02  0.48462104544E+03  0.49884891668E+03  0.00000000000E+00 0.  1.
         14    1    4    4    0    0  0.27267497589E+01 -0.12853451781E+02  0.21476665791E+03  0.21516822195E+03  0.00000000000E+00 0. -1.
         -5    1    5    5    0  502 -0.19410992166E+02 -0.40633841780E+02  0.46397218476E+02  0.64828138929E+02  0.47000000000E+01 0.  1.
         13    1    6    6    0    0  0.35809824278E+00 -0.13295731834E+02  0.26248798595E+02  0.29426249285E+02  0.00000000000E+00 0. -1.
        -14    1    6    6    0    0  0.93942947166E+02  0.76817338012E+02  0.29554875898E+03  0.31949217467E+03  0.00000000000E+00 0.  1.
</event>
<event>
12    1  0.8562501E-002  0.2316590E+03  0.7818608E-02  0.1125873E+00
         21   -1    0    0  501  502  0.00000000000E+00  0.00000000000E+00  0.76261935063E+02  0.76261935063E+02  0.00000000000E+00 0.  1.
         21   -1    0    0  502  503 -0.00000000000E+00 -0.00000000000E+00 -0.73422156195E+03  0.73422156195E+03  0.00000000000E+00 0.  1.
         -6    2    1    2    0  503  0.15473321292E+03  0.14962420809E+02 -0.41885450753E+03  0.47756139252E+03  0.16869956707E+03 0.  0.
        -24    2    3    3    0    0  0.71184477070E+02 -0.48307710822E+02 -0.28057818649E+03  0.30399315873E+03  0.79289703767E+02 0.  0.
          6    2    1    2  501    0 -0.15473321292E+03 -0.14962420809E+02 -0.23910511936E+03  0.33292210450E+03  0.17175455843E+03 0.  0.
         24    2    5    5    0    0 -0.11677878696E+03 -0.73645379898E+02 -0.18198994331E+03  0.24254256327E+03  0.81520724152E+02 0.  0.
          5    1    5    5  501    0 -0.37954425962E+02  0.58682959089E+02 -0.57115176049E+02  0.90379541229E+02  0.47000000000E+01 0. -1.
        -11    1    6    6    0    0 -0.18694882921E+02 -0.58000003986E+02 -0.72705460639E+02  0.94866132611E+02  0.00000000000E+00 0.  1.
         12    1    6    6    0    0 -0.98083904038E+02 -0.15645375912E+02 -0.10928448268E+03  0.14767643066E+03  0.00000000000E+00 0. -1.
         -5    1    3    3    0  503  0.83548735851E+02  0.63270131631E+02 -0.13827632104E+03  0.17356823378E+03  0.47000000000E+01 0.  1.
         11    1    4    4    0    0  0.57284570337E+02 -0.50005812701E+02 -0.11526149591E+03  0.13808445148E+03  0.00000000000E+00 0. -1.
        -12    1    4    4    0    0  0.13899906733E+02  0.16981018784E+01 -0.16531669058E+03  0.16590870725E+03  0.00000000000E+00 0.  1.
</event>
<event>
12    1  0.8562501E-002  0.1910982E+03  0.7818608E-02  0.1157849E+00
         21   -1    0    0  501  502  0.00000000000E+00  0.00000000000E+00  0.79148289389E+02  0.79148289389E+02  0.00000000000E+00 0. -1.
         21   -1    0    0  502  503 -0.00000000000E+00 -0.00000000000E+00 -0.13650427852E+04  0.13650427852E+04  0.00000000000E+00 0.  1.
         -6    2    1    2    0  503 -0.75181103560E+02 -0.19156508574E+02 -0.12327119539E+04  0.12474362822E+04  0.17464062148E+03 0.  0.
        -24    2    3    3    0    0 -0.76649497333E+02  0.43744087078E+02 -0.98536556447E+03  0.99216981851E+03  0.75279230336E+02 0.  0.
          6    2    1    2  501    0  0.75181103560E+02  0.19156508574E+02 -0.53182541898E+02  0.19675479239E+03  0.17281462731E+03 0.  0.
         24    2    5    5    0    0  0.74591470437E+02 -0.49342981540E+02 -0.27045527053E+02  0.12328533372E+03  0.80431310362E+02 0.  0.
          5    1    5    5  501    0  0.58963312251E+00  0.68499490114E+02 -0.26137014845E+02  0.73469458676E+02  0.47000000000E+01 0. -1.
        -13    1    6    6    0    0 -0.55729844476E+01  0.97403723854E+00 -0.28067856194E+02  0.28632349808E+02  0.00000000000E+00 0.  1.
         14    1    6    6    0    0  0.80164454885E+02 -0.50317018778E+02  0.10223291414E+01  0.94652983907E+02  0.00000000000E+00 0. -1.
         -5    1    3    3    0  503  0.14683937731E+01 -0.62900595652E+02 -0.24734638941E+03  0.25526646366E+03  0.47000000000E+01 0.  1.
         11    1    4    4    0    0 -0.75294986217E+01  0.19973394667E+02 -0.55933837387E+02  0.59868389062E+02  0.00000000000E+00 0. -1.
        -12    1    4    4    0    0 -0.69119998711E+02  0.23770692411E+02 -0.92943172708E+03  0.93230142945E+03  0.00000000000E+00 0.  1.
</event>
<event>
12    1  0.8562501E-002  0.1723344E+03  0.7818608E-02  0.1175570E+00
         21   -1    0    0  503  502  0.00000000000E+00  0.00000000000E+00  0.14609221545E+03  0.14609221545E+03  0.00000000000E+00 0. -1.
         21   -1    0    0  501  503 -0.00000000000E+00 -0.00000000000E+00 -0.88578300586E+03  0.88578300586E+03  0.00000000000E+00 0. -1.
          6    2    1    2  501    0 -0.13927263681E+02  0.37557484699E+00 -0.82305972489E+03  0.84090810837E+03  0.17177027173E+03 0.  0.
         24    2    3    3    0    0 -0.55086576134E+02  0.44438102698E+02 -0.66748470557E+03  0.67399114698E+03  0.60983261593E+02 0.  0.
         -6    2    1    2    0  502  0.13927263681E+02 -0.37557484699E+00  0.83368934486E+02  0.19096711294E+03  0.17124236992E+03 0.  0.
        -24    2    5    5    0    0  0.30456425121E+02 -0.59355691840E+02  0.71754997892E+02  0.12844638916E+03  0.83060238270E+02 0.  0.
          5    1    3    3  501    0  0.41159312454E+02 -0.44062527851E+02 -0.15557501932E+03  0.16691696138E+03  0.47000000000E+01 0. -1.
        -11    1    4    4    0    0 -0.29351429126E+01 -0.61536431904E+01 -0.79791594040E+01  0.10495207155E+02  0.00000000000E+00 0.  1.
         12    1    4    4    0    0 -0.52151433222E+02  0.50591745888E+02 -0.65950554617E+03  0.66349593983E+03  0.00000000000E+00 0. -1.
         -5    1    5    5    0  502 -0.16529161441E+02  0.58980116993E+02  0.11613936593E+02  0.62520723777E+02  0.47000000000E+01 0.  1.
         11    1    6    6    0    0  0.16025159070E+02 -0.22938523991E+02  0.83083408004E+02  0.87668890102E+02  0.00000000000E+00 0. -1.
        -12    1    6    6    0    0  0.14431266052E+02 -0.36417167849E+02 -0.11328410112E+02  0.40777499061E+02  0.00000000000E+00 0.  1.
</event>
<event>
12    1  0.8562501E-002  0.2320643E+03  0.7818608E-02  0.1125199E+00
         21   -1    0    0  501  502  0.00000000000E+00  0.00000000000E+00  0.45039023202E+03  0.45039023202E+03  0.00000000000E+00 0.  1.
         21   -1    0    0  502  503 -0.00000000000E+00 -0.00000000000E+00 -0.15301780973E+03  0.15301780973E+03  0.00000000000E+00 0. -1.
         -6    2    1    2    0  503 -0.14625902404E+03 -0.54332996797E+02  0.76048010414E+01  0.23216809420E+03  0.17175684648E+03 0.  0.
        -24    2    3    3    0    0 -0.15004422413E+03 -0.15648928938E+02  0.46397946669E+02  0.17705200768E+03  0.80227712149E+02 0.  0.
          6    2    1    2  501    0  0.14625902404E+03  0.54332996797E+02  0.28976762125E+03  0.37123994756E+03  0.17178488783E+03 0.  0.
         24    2    5    5    0    0  0.14788492519E+03  0.10131816837E+02  0.28058082480E+03  0.32582106279E+03  0.73899667821E+02 0.  0.
          5    1    5    5  501    0 -0.16259011547E+01  0.44201179960E+02  0.91867964485E+01  0.45418884766E+02  0.47000000000E+01 0. -1.
        -11    1    6    6    0    0  0.98483628185E+02  0.19716380619E+02  0.24323160798E+03  0.26315276135E+03  0.00000000000E+00 0.  1.
         12    1    6    6    0    0  0.49401297007E+02 -0.95845637829E+01  0.37349216816E+02  0.62668301442E+02  0.00000000000E+00 0. -1.
         -5    1    3    3    0  503  0.37852000884E+01 -0.38684067858E+02 -0.38793145627E+02  0.55116086521E+02  0.47000000000E+01 0.  1.
         13    1    4    4    0    0 -0.64741913910E+02  0.31402937228E+02  0.82368750298E+01  0.72425865501E+02  0.00000000000E+00 0. -1.
        -14    1    4    4    0    0 -0.85302310215E+02 -0.47051866166E+02  0.38161071639E+02  0.10462614218E+03  0.00000000000E+00 0.  1.
</event>
<event>
12    1  0.8562501E-002  0.1894234E+03  0.7818608E-02  0.1159440E+00
         21   -1    0    0  501  502  0.00000000000E+00  0.00000000000E+00  0.10865152502E+03  0.10865152502E+03  0.00000000000E+00 0.  1.
         21   -1    0    0  502  503 -0.00000000000E+00 -0.00000000000E+00 -0.74355874832E+03  0.74355874832E+03  0.00000000000E+00 0.  1.
         -6    2    1    2    0  503  0.28792117107E+02 -0.55606390756E+02 -0.63573609003E+03  0.66278504998E+03  0.17664254757E+03 0.  0.
        -24    2    3    3    0    0  0.62709580087E+02 -0.34020061744E+02 -0.22326321914E+03  0.24833080267E+03  0.82047952431E+02 0.  0.
          6    2    1    2  501    0 -0.28792117107E+02  0.55606390756E+02  0.82886672897E+00  0.18942522336E+03  0.17877407957E+03 0.  0.
         24    2    5    5    0    0 -0.76652736498E+02  0.47290531963E+02 -0.38581216712E+02  0.12669534952E+03  0.80319143919E+02 0.  0.
          5    1    5    5  501    0  0.47860619391E+02  0.83158587929E+01  0.39410083441E+02  0.62729873846E+02  0.47000000000E+01 0. -1.
        -13    1    6    6    0    0  0.96607004267E+01  0.27806962840E+02  0.16715157039E+01  0.29484746563E+02  0.00000000000E+00 0.  1.
         14    1    6    6    0    0 -0.86313436924E+02  0.19483569123E+02 -0.40252732416E+02  0.97210602953E+02  0.00000000000E+00 0. -1.
         -5    1    3    3    0  503 -0.33917462980E+02 -0.21586329012E+02 -0.41247287089E+03  0.41445424731E+03  0.47000000000E+01 0.  1.
         13    1    4    4    0    0  0.10129175055E+02  0.75083513508E+01  0.24833856968E+01  0.12850787206E+02  0.00000000000E+00 0. -1.
        -14    1    4    4    0    0  0.52580405032E+02 -0.41528413094E+02 -0.22574660484E+03  0.23548001546E+03  0.00000000000E+00 0.  1.
</event>
<event>
12    1  0.8562501E-002  0.1911240E+03  0.7818608E-02  0.1157892E+00
         21   -1    0    0  503  502  0.00000000000E+00  0.00000000000E+00  0.60985593439E+03  0.60985593439E+03  0.00000000000E+00 0. -1.
         21   -1    0    0  501  503 -0.00000000000E+00 -0.00000000000E+00 -0.86803283489E+02  0.86803283489E+02  0.00000000000E+00 0. -1.
          6    2    1    2  501    0 -0.66284670451E+02 -0.41918074292E+02  0.64482424937E+02  0.19985438209E+03  0.17214240740E+03 0.  0.
         24    2    3    3    0    0 -0.54877578615E+02  0.41680298764E+02  0.38860290833E+02  0.11155153118E+03  0.78643664499E+02 0.  0.
         -6    2    1    2    0  502  0.66284670451E+02  0.41918074292E+02  0.45857022597E+03  0.49680483579E+03  0.17429173886E+03 0.  0.
        -24    2    5    5    0    0  0.10227476675E+03  0.63256427663E+02  0.40199977011E+03  0.42628591045E+03  0.75195470101E+02 0.  0.
          5    1    3    3  501    0 -0.11407091837E+02 -0.83598373057E+02  0.25622134104E+02  0.88302850905E+02  0.47000000000E+01 0. -1.
        -11    1    4    4    0    0 -0.39706056576E+02  0.48759711719E+02  0.58401994784E+02  0.85818840650E+02  0.00000000000E+00 0.  1.
         12    1    4    4    0    0 -0.15171522039E+02 -0.70794129550E+01 -0.19541703951E+02  0.25732690533E+02  0.00000000000E+00 0. -1.
         -5    1    5    5    0  502 -0.35990096299E+02 -0.21338353370E+02  0.56570455859E+02  0.70518925348E+02  0.47000000000E+01 0.  1.
         11    1    6    6    0    0 -0.29589892588E+01  0.28563761244E+02  0.11779465867E+03  0.12124448723E+03  0.00000000000E+00 0. -1.
        -12    1    6    6    0    0  0.10523375601E+03  0.34692666419E+02  0.28420511144E+03  0.30504142321E+03  0.00000000000E+00 0.  1.
</event>
<event>
12    1  0.8562501E-002  0.2036416E+03  0.7818608E-02  0.1146901E+00
         21   -1    0    0  501  502  0.00000000000E+00  0.00000000000E+00  0.19077287850E+03  0.19077287850E+03  0.00000000000E+00 0.  1.
         21   -1    0    0  502  503 -0.00000000000E+00 -0.00000000000E+00 -0.31198138536E+03  0.31198138536E+03  0.00000000000E+00 0.  1.
         -6    2    1    2    0  503 -0.10807278938E+03 -0.21095531355E+02  0.78469043868E+02  0.21823681212E+03  0.17130430838E+03 0.  0.
        -24    2    3    3    0    0 -0.11006032491E+03 -0.60214690917E+02  0.23640541656E+02  0.15069043104E+03  0.80060269024E+02 0.  0.
          6    2    1    2  501    0  0.10807278938E+03  0.21095531355E+02 -0.19967755073E+03  0.28451745175E+03  0.17015965102E+03 0.  0.
         24    2    5    5    0    0  0.10691915833E+03 -0.40655532021E+02 -0.12722879771E+03  0.18919989562E+03  0.80776573541E+02 0.  0.
          5    1    5    5  501    0  0.11536310549E+01  0.61751063376E+02 -0.72448753013E+02  0.95317556126E+02  0.47000000000E+01 0. -1.
        -13    1    6    6    0    0  0.92626068219E+02 -0.21402322113E+01 -0.59900991109E+02  0.11032813713E+03  0.00000000000E+00 0.  1.
         14    1    6    6    0    0  0.14293090109E+02 -0.38515299810E+02 -0.67327806606E+02  0.78871758486E+02  0.00000000000E+00 0. -1.
         -5    1    3    3    0  503  0.19875355224E+01  0.39119159562E+02  0.54828502212E+02  0.67546381081E+02  0.47000000000E+01 0.  1.
         11    1    4    4    0    0 -0.12243455025E+03 -0.55269138534E+02  0.26838566626E+02  0.13698615050E+03  0.00000000000E+00 0. -1.
        -12    1    4    4    0    0  0.12374225349E+02 -0.49455523826E+01 -0.31980249699E+01  0.13704280538E+02  0.00000000000E+00 0.  1.
</event>
<event>
12    1  0.8562501E-002  0.1753810E+03  0.7818608E-02  0.1172465E+00
         21   -1    0    0  501  502  0.00000000000E+00  0.00000000000E+00  0.55735665640E+03  0.55735665640E+03  0.00000000000E+00 0. -1.
         21   -1    0    0  502  503 -0.00000000000E+00 -0.00000000000E+00 -0.11558524823E+03  0.11558524823E+03  0.00000000000E+00 0. -1.
         -6    2    1    2    0  503  0.24780178099E+02  0.18985930979E+02 -0.22493058172E+02  0.17681751651E+03  0.17258033978E+03 0.  0.
        -24    2    3    3    0    0  0.81287940090E+02 -0.69314008426E+01 -0.21856231230E+02  0.11446905380E+03  0.77263807267E+02 0.  0.
          6    2    1    2  501    0 -0.24780178099E+02 -0.18985930979E+02  0.46426446634E+03  0.49612438811E+03  0.17211447053E+03 0.  0.
         24    2    5    5    0    0  0.49218138751E+02 -0.34892782305E+02  0.28941730859E+03  0.30554003044E+03  0.77151800022E+02 0.  0.
          5    1    5    5  501    0 -0.73998316850E+02  0.15906851326E+02  0.17484715775E+03  0.19058435767E+03  0.47000000000E+01 0. -1.
        -13    1    6    6    0    0  0.35345056910E+02  0.19495142688E+02  0.95946425463E+02  0.10409154719E+03  0.00000000000E+00 0.  1.
         14    1    6    6    0    0  0.13873081841E+02 -0.54387924993E+02  0.19347088313E+03  0.20144848325E+03  0.00000000000E+00 0. -1.
         -5    1    3    3    0  503 -0.56507761991E+02  0.25917331822E+02 -0.63682694181E+00  0.62348462712E+02  0.47000000000E+01 0.  1.
         11    1    4    4    0    0  0.12348102017E+02  0.29797937382E+02 -0.16347934523E+02  0.36161411184E+02  0.00000000000E+00 0. -1.
        -12    1    4    4    0    0  0.68939838073E+02 -0.36729338225E+02 -0.55082967064E+01  0.78307642619E+02  0.00000000000E+00 0.  1.
</event>
<event>
12    1  0.8562501E-002  0.1759676E+03  0.7818608E-02  0.1172078E+00
         21   -1    0    0  501  502  0.00000000000E+00  0.00000000000E+00  0.14326157728E+03  0.14326157728E+03  0.00000000000E+00 0. -1.
         21   -1    0    0  502  503 -0.00000000000E+00 -0.00000000000E+00 -0.33567916496E+03  0.33567916496E+03  0.00000000000E+00 0. -1.
         -6    2    1    2    0  503  0.28598855420E+02 -0.20559497540E+02 -0.23980929045E+03  0.29670307420E+03  0.17112460659E+03 0.  0.
        -24    2    3    3    0    0 -0.12108151623E+02  0.44181305469E+02 -0.16586737669E+03  0.19022336436E+03  0.81082344623E+02 0.  0.
          6    2    1    2  501    0 -0.28598855420E+02  0.20559497540E+02  0.47391702780E+02  0.18223766804E+03  0.17240651580E+03 0.  0.
         24    2    5    5    0    0  0.28145260549E+02  0.58353654303E+01 -0.27332082990E+02  0.87145981108E+02  0.77596211774E+02 0.  0.
          5    1    5    5  501    0 -0.56744115969E+02  0.14724132109E+02  0.74723785770E+02  0.95091686930E+02  0.47000000000E+01 0. -1.
        -13    1    6    6    0    0  0.42655630095E+02 -0.14533908556E+02  0.60144138824E+01  0.45463286848E+02  0.00000000000E+00 0.  1.
         14    1    6    6    0    0 -0.14510369546E+02  0.20369273986E+02 -0.33346496872E+02  0.41682694260E+02  0.00000000000E+00 0. -1.
         -5    1    3    3    0  503  0.40707007043E+02 -0.64740803009E+02 -0.73941913759E+02  0.10647970984E+03  0.47000000000E+01 0.  1.
         13    1    4    4    0    0  0.28710878184E+02 -0.46701146267E+01 -0.44302306130E+02  0.52998290776E+02  0.00000000000E+00 0. -1.
        -14    1    4    4    0    0 -0.40819029807E+02  0.48851420096E+02 -0.12156507056E+03  0.13722507359E+03  0.00000000000E+00 0.  1.
</event>
<event>
12    1  0.8562501E-002  0.2583205E+03  0.7818608E-02  0.1108233E+00
         21   -1    0    0  503  502  0.00000000000E+00  0.00000000000E+00  0.12214436593E+03  0.12214436593E+03  0.00000000000E+00 0.  1.
         21   -1    0    0  501  503 -0.00000000000E+00 -0.00000000000E+00 -0.55665265632E+03  0.55665265632E+03  0.00000000000E+00 0.  1.
          6    2    1    2  501    0 -0.15935839368E+03  0.10607828549E+03 -0.26604714963E+03  0.37082416534E+03  0.17344098559E+03 0.  0.
         24    2    3    3    0    0 -0.13757078558E+03  0.44078119021E+02 -0.25410480392E+03  0.30386574443E+03  0.83045395065E+02 0.  0.
         -6    2    1    2    0  502  0.15935839368E+03 -0.10607828549E+03 -0.16846114075E+03  0.30797285691E+03  0.17268591246E+03 0.  0.
        -24    2    5    5    0    0  0.19096882737E+02 -0.73125138024E+02 -0.10720126066E+03  0.15133932191E+03  0.75495054982E+02 0.  0.
          5    1    3    3  501    0 -0.21787608093E+02  0.62000166471E+02 -0.11942345709E+02  0.66958420904E+02  0.47000000000E+01 0. -1.
        -13    1    4    4    0    0 -0.53392436614E+02  0.59601526636E+02 -0.10611730625E+03  0.13290589510E+03  0.00000000000E+00 0.  1.
         14    1    4    4    0    0 -0.84178348970E+02 -0.15523407615E+02 -0.14798749767E+03  0.17095984934E+03  0.00000000000E+00 0. -1.
         -5    1    5    5    0  502  0.14026151094E+03 -0.32953147467E+02 -0.61259880093E+02  0.15663353501E+03  0.47000000000E+01 0.  1.
         13    1    6    6    0    0 -0.21259644552E+01 -0.13045575379E+01 -0.65643550484E+02  0.65690922625E+02  0.00000000000E+00 0. -1.
        -14    1    6    6    0    0  0.21222847192E+02 -0.71820580486E+02 -0.41557710176E+02  0.85648399281E+02  0.00000000000E+00 0.  1.
</event>
<event>
12    1  0.8562501E-002  0.2135408E+03  0.7818608E-02  0.1141551E+00
         21   -1    0    0  503  502  0.00000000000E+00  0.00000000000E+00  0.72989659753E+03  0.72989659753E+03  0.00000000000E+00 0. -1.
         21   -1    0    0  501  503 -0.00000000000E+00 -0.00000000000E+00 -0.65010277559E+02  0.65010277559E+02  0.00000000000E+00 0. -1.
          6    2    1    2  501    0 -0.64417230781E+02 -0.11009149230E+03  0.19695254934E+03  0.28055128913E+03  0.15378232291E+03 0.  0.
         24    2    3    3    0    0  0.14878982117E+02 -0.50586942605E+02  0.12766169383E+03  0.15950587008E+03  0.79775883876E+02 0.  0.
         -6    2    1    2    0  502  0.64417230781E+02  0.11009149230E+03  0.46793377062E+03  0.51435558596E+03  0.17125985757E+03 0.  0.
        -24    2    5    5    0    0  0.10863299311E+03  0.77038340040E+02  0.29999556322E+03  0.33751419934E+03  0.78628644763E+02 0.  0.
          5    1    3    3  501    0 -0.79296212898E+02 -0.59504549699E+02  0.69290855516E+02  0.12104541905E+03  0.47000000000E+01 0. -1.
        -11    1    4    4    0    0  0.21240648497E+02 -0.39766465461E+02  0.13676245801E+03  0.14400175987E+03  0.00000000000E+00 0.  1.
         12    1    4    4    0    0 -0.63616663804E+01 -0.10820477143E+02 -0.91007641836E+01  0.15504110212E+02  0.00000000000E+00 0. -1.
         -5    1    5    5    0  502 -0.44215762331E+02  0.33053152264E+02  0.16793820740E+03  0.17684138661E+03  0.47000000000E+01 0.  1.
         11    1    6    6    0    0  0.33519758629E+02  0.54376558754E+02  0.20269656041E+03  0.21252359860E+03  0.00000000000E+00 0. -1.
        -12    1    6    6    0    0  0.75113234484E+02  0.22661781286E+02  0.97299002809E+02  0.12499060074E+03  0.00000000000E+00 0.  1.
</event>
<event>
12    1  0.8562501E-002  0.1913354E+03  0.7818608E-02  0.1157643E+00
         21   -1    0    0  503  502  0.00000000000E+00  0.00000000000E+00  0.76565658388E+02  0.76565658388E+02  0.00000000000E+00 0. -1.
         21   -1    0    0  501  503 -0.00000000000E+00 -0.00000000000E+00 -0.60944728280E+03  0.60944728280E+03  0.00000000000E+00 0. -1.
          6    2    1    2  501    0 -0.26845015045E+02  0.78992143488E+02 -0.42911311281E+03  0.46983752023E+03  0.17218832211E+03 0.  0.
         24    2    3    3    0    0  0.51190315008E+02  0.32028064409E+02 -0.22949589476E+03  0.25037394421E+03  0.79827946026E+02 0.  0.
         -6    2    1    2    0  502  0.26845015045E+02 -0.78992143488E+02 -0.10376851161E+03  0.21617542096E+03  0.17030412520E+03 0.  0.
        -24    2    5    5    0    0  0.80621877485E+02 -0.59497639679E+02 -0.90179200020E+02  0.15719452573E+03  0.80857742650E+02 0.  0.
          5    1    3    3  501    0 -0.78035330053E+02  0.46964079078E+02 -0.19961721805E+03  0.21946357603E+03  0.47000000000E+01 0. -1.
        -11    1    4    4    0    0  0.60884129040E+02  0.33308249274E+02 -0.10729928221E+03  0.12778674658E+03  0.00000000000E+00 0.  1.
         12    1    4    4    0    0 -0.96938140322E+01 -0.12801848651E+01 -0.12219661255E+03  0.12258719763E+03  0.00000000000E+00 0. -1.
         -5    1    5    5    0  502 -0.53776862440E+02 -0.19494503808E+02 -0.13589311588E+02  0.58980895230E+02  0.47000000000E+01 0.  1.
         13    1    6    6    0    0  0.82285546544E+02 -0.72397156185E+02 -0.61434428119E+02  0.12564413378E+03  0.00000000000E+00 0. -1.
        -14    1    6    6    0    0 -0.16636690589E+01  0.12899516506E+02 -0.28744771901E+02  0.31550391954E+02  0.00000000000E+00 0.  1.
</event>
<event>
12    1  0.8562501E-002  0.1994131E+03  0.7818608E-02  0.1150544E+00
         21   -1    0    0  503  502  0.00000000000E+00  0.00000000000E+00  0.25967904834E+03  0.25967904834E+03  0.00000000000E+00 0. -1.
         21   -1    0    0  501  503 -0.00000000000E+00 -0.00000000000E+00 -0.16329882905E+03  0.16329882905E+03  0.00000000000E+00 0.  1.
          6    2    1    2  501    0  0.32892807103E+02 -0.94332958838E+02  0.10360988727E+03  0.22343378328E+03  0.17090056433E+03 0.  0.
         24    2    3    3    0    0  0.51138557283E+02 -0.12076135979E+03  0.51466705292E+02  0.16201416749E+03  0.80008191181E+02 0.  0.
         -6    2    1    2    0  502 -0.32892807103E+02  0.94332958838E+02 -0.72296679838E+01  0.19954409410E+03  0.17258312058E+03 0.  0.
        -24    2    5    5    0    0 -0.83460326313E+02  0.93796514471E+02 -0.45904761550E+01  0.14868726462E+03  0.79519921993E+02 0.  0.
          5    1    3    3  501    0 -0.18245750180E+02  0.26428400949E+02  0.52143181981E+02  0.61419615788E+02  0.47000000000E+01 0. -1.
        -11    1    4    4    0    0  0.33044783137E+02 -0.12405739104E+03  0.60032846777E+02  0.14172556811E+03  0.00000000000E+00 0.  1.
         12    1    4    4    0    0  0.18093774146E+02  0.32960312539E+01 -0.85661414855E+01  0.20288599380E+02  0.00000000000E+00 0. -1.
         -5    1    5    5    0  502  0.50567519210E+02  0.53644436752E+00 -0.26391918288E+01  0.50856829483E+02  0.47000000000E+01 0.  1.
         11    1    6    6    0    0 -0.37911370700E+02  0.53469918113E+01  0.23981266678E+02  0.45177024042E+02  0.00000000000E+00 0. -1.
        -12    1    6    6    0    0 -0.45548955612E+02  0.88449522659E+02 -0.28571742833E+02  0.10351024058E+03  0.00000000000E+00 0.  1.
</event>
<event>
12    1  0.8562501E-002  0.1761693E+03  0.7818608E-02  0.1171917E+00
         21   -1    0    0  501  502  0.00000000000E+00  0.00000000000E+00  0.26395934451E+03  0.26395934451E+03  0.00000000000E+00 0.  1.
         21   -1    0    0  502  503 -0.00000000000E+00 -0.00000000000E+00 -0.12487953829E+03  0.12487953829E+03  0.00000000000E+00 0.  1.
         -6    2    1    2    0  503  0.25002713023E+02  0.15707654867E+02  0.19315631535E+02  0.17581522998E+03  0.17223830988E+03 0.  0.
        -24    2    3    3    0    0 -0.49450315064E+01 -0.36013322795E+02  0.56320615581E+02  0.10536392923E+03  0.81290424335E+02 0.  0.
          6    2    1    2  501    0 -0.25002713023E+02 -0.15707654867E+02  0.11976417468E+03  0.21302365281E+03  0.17367715175E+03 0.  0.
         24    2    5    5    0    0  0.41716719771E+02 -0.11203228733E+02  0.96585370818E+02  0.14209326782E+03  0.94847065638E+02 0.  0.
          5    1    5    5  501    0 -0.66719432795E+02 -0.45044261338E+01  0.23178803866E+02  0.70930384998E+02  0.47000000000E+01 0. -1.
        -11    1    6    6    0    0 -0.16372897890E+02  0.29153922997E+02  0.33080302563E+02  0.47035406122E+02  0.00000000000E+00 0.  1.
         12    1    6    6    0    0  0.58089617661E+02 -0.40357151730E+02  0.63505068255E+02  0.95057861694E+02  0.00000000000E+00 0. -1.
         -5    1    3    3    0  503  0.29947744530E+02  0.51720977662E+02 -0.37004984046E+02  0.70451300747E+02  0.47000000000E+01 0.  1.
         11    1    4    4    0    0 -0.14819432319E+01  0.21641316694E+02 -0.37683206550E+01  0.22016879537E+02  0.00000000000E+00 0. -1.
        -12    1    4    4    0    0 -0.34630882746E+01 -0.57654639489E+02  0.60088936236E+02  0.83347049696E+02  0.00000000000E+00 0.  1.
</event>
<event>
12    1  0.8562501E-002  0.1986109E+03  0.7818608E-02  0.1151601E+00
         21   -1    0    0  501  502  0.00000000000E+00  0.00000000000E+00  0.19853304489E+03  0.19853304489E+03  0.00000000000E+00 0. -1.
         21   -1    0    0  502  503 -0.00000000000E+00 -0.00000000000E+00 -0.34145348076E+03  0.34145348076E+03  0.00000000000E+00 0. -1.
         -6    2    1    2    0  503 -0.71900554369E+02 -0.66871844577E+02  0.10538157720E+03  0.22202399750E+03  0.16896107639E+03 0.  0.
        -24    2    3    3    0    0 -0.11507724472E+03 -0.57751830102E+02  0.82914317140E+02  0.17228197272E+03  0.78919249902E+02 0.  0.
          6    2    1    2  501    0  0.71900554369E+02  0.66871844577E+02 -0.24830201307E+03  0.31796252815E+03  0.17264051175E+03 0.  0.
         24    2    5    5    0    0  0.33957762796E+02 -0.24798383856E+02 -0.16852245807E+03  0.19056569299E+03  0.78405197364E+02 0.  0.
          5    1    5    5  501    0  0.37942791573E+02  0.91670228434E+02 -0.79779555000E+02  0.12739683516E+03  0.47000000000E+01 0. -1.
        -11    1    6    6    0    0  0.58231474947E+02 -0.67032296948E+01 -0.10732917119E+03  0.12229222768E+03  0.00000000000E+00 0.  1.
         12    1    6    6    0    0 -0.24273712151E+02 -0.18095154162E+02 -0.61193286880E+02  0.68273465306E+02  0.00000000000E+00 0. -1.
         -5    1    3    3    0  503  0.43176690356E+02 -0.91200144757E+01  0.22467260064E+02  0.49742024777E+02  0.47000000000E+01 0.  1.
         13    1    4    4    0    0 -0.37637627660E+02 -0.47066474858E+01  0.67121252587E+02  0.77097380599E+02  0.00000000000E+00 0. -1.
        -14    1    4    4    0    0 -0.77439617064E+02 -0.53045182616E+02  0.15793064553E+02  0.95184592124E+02  0.00000000000E+00 0.  1.
</event>
<event>
12    1  0.8562501E-002  0.2713477E+03  0.7818608E-02  0.1100572E+00
         21   -1    0    0  501  502  0.00000000000E+00  0.00000000000E+00  0.36469957224E+03  0.36469957224E+03  0.00000000000E+00 0. -1.
         21   -1    0    0  502  503 -0.00000000000E+00 -0.00000000000E+00 -0.32373364504E+03  0.32373364504E+03  0.00000000000E+00 0. -1.
         -6    2    1    2    0  503  0.20624261438E+03  0.35772900118E+02 -0.19097597630E+03  0.33146456080E+03  0.17199190437E+03 0.  0.
        -24    2    3    3    0    0  0.10493195309E+03  0.80675568380E+02 -0.75625161155E+02  0.17143956192E+03  0.78441674388E+02 0.  0.
          6    2    1    2  501    0 -0.20624261438E+03 -0.35772900118E+02  0.23194190351E+03  0.35696865648E+03  0.17266690111E+03 0.  0.
         24    2    5    5    0    0 -0.17768050819E+03 -0.21020545040E+02  0.97263607157E+02  0.21842711254E+03  0.78980807220E+02 0.  0.
          5    1    5    5  501    0 -0.28562106188E+02 -0.14752355079E+02  0.13467829635E+03  0.13854154394E+03  0.47000000000E+01 0. -1.
        -11    1    6    6    0    0  0.15853299590E+01  0.44761514462E+01  0.21715519199E+02  0.22228652162E+02  0.00000000000E+00 0.  1.
         12    1    6    6    0    0 -0.17926583815E+03 -0.25496696486E+02  0.75548087958E+02  0.19619846038E+03  0.00000000000E+00 0. -1.
         -5    1    3    3    0  503  0.10131066129E+03 -0.44902668262E+02 -0.11535081515E+03  0.16002499887E+03  0.47000000000E+01 0.  1.
         11    1    4    4    0    0  0.71199526458E+02  0.71612038535E+01 -0.23962813230E+02  0.75464374551E+02  0.00000000000E+00 0. -1.
        -12    1    4    4    0    0  0.33732426628E+02  0.73514364527E+02 -0.51662347925E+02  0.95975187372E+02  0.00000000000E+00 0.  1.
</event>
<event>
12    1  0.8562501E-002  0.2038786E+03  0.7818608E-02  0.1146669E+00
         21   -1    0    0  503  502  0.00000000000E+00  0.00000000000E+00  0.40245264742E+03  0.40245264742E+03  0.00000000000E+00 0. -1.
         21   -1    0    0  501  503 -0.00000000000E+00 -0.00000000000E+00 -0.13030169373E+03  0.13030169373E+03  0.00000000000E+00 0. -1.
          6    2    1    2  501    0  0.81843993383E+02  0.72410684101E+02  0.14096278580E+02  0.20436530611E+03  0.17211835128E+03 0.  0.
         24    2    3    3    0    0  0.10059648089E+02  0.68491236672E+02 -0.41316885834E+02  0.11347491560E+03  0.79857531858E+02 0.  0.
         -6    2    1    2    0  502 -0.81843993383E+02 -0.72410684101E+02  0.25805467511E+03  0.32838903504E+03  0.17118819049E+03 0.  0.
        -24    2    5    5    0    0  0.20848095407E+02 -0.12137292407E+02  0.96117141897E+02  0.12733083076E+03  0.79954227814E+02 0.  0.
          5    1    3    3  501    0  0.71784345294E+02  0.39194474292E+01  0.55413164413E+02  0.90890390513E+02  0.47000000000E+01 0. -1.
        -11    1    4    4    0    0  0.21901194705E+02  0.34633736402E+01 -0.41866103377E+02  0.47375393386E+02  0.00000000000E+00 0.  1.
         12    1    4    4    0    0 -0.11841546616E+02  0.65027863032E+02  0.54921754342E+00  0.66099522212E+02  0.00000000000E+00 0. -1.
         -5    1    5    5    0  502 -0.10269208879E+03 -0.60273391694E+02  0.16193753322E+03  0.20105820429E+03  0.47000000000E+01 0.  1.
         11    1    6    6    0    0  0.18700650420E+02 -0.44954185909E+02  0.70331716275E+02  0.85540303197E+02  0.00000000000E+00 0. -1.
        -12    1    6    6    0    0  0.21474449864E+01  0.32816893502E+02  0.25785425622E+02  0.41790527558E+02  0.00000000000E+00 0.  1.
</event>
<event>
12    1  0.8562501E-002  0.1956513E+03  0.7818608E-02  0.1153911E+00
         21   -1    0    0  501  502  0.00000000000E+00  0.00000000000E+00  0.68838925285E+03  0.68838925285E+03  0.00000000000E+00 0.  1.
         21   -1    0    0  502  503 -0.00000000000E+00 -0.00000000000E+00 -0.68583069741E+02  0.68583069741E+02  0.00000000000E+00 0.  1.
         -6    2    1    2    0  503  0.25837340273E+02 -0.88089501524E+02  0.47951320540E+03  0.51789219995E+03  0.17277756852E+03 0.  0.
        -24    2    3    3    0    0 -0.22263375061E+02 -0.65421961158E+02  0.14837451117E+03  0.18247839430E+03  0.80670180064E+02 0.  0.
          6    2    1    2  501    0 -0.25837340273E+02  0.88089501524E+02  0.14029297771E+03  0.23908012265E+03  0.17044018604E+03 0.  0.
         24    2    5    5    0    0 -0.68226634732E+02  0.63413376004E+02  0.43753982052E+02  0.13069363300E+03  0.80562303947E+02 0.  0.
          5    1    5    5  501    0  0.42389294459E+02  0.24676125520E+02  0.96538995660E+02  0.10838648965E+03  0.47000000000E+01 0. -1.
        -11    1    6    6    0    0 -0.66304747094E+02  0.32945880582E+02  0.60733142570E+02  0.95761501351E+02  0.00000000000E+00 0.  1.
         12    1    6    6    0    0 -0.19218876372E+01  0.30467495422E+02 -0.16979160518E+02  0.34932131645E+02  0.00000000000E+00 0. -1.
         -5    1    3    3    0  503  0.48100715334E+02 -0.22667540366E+02  0.33113869423E+03  0.33541380564E+03  0.47000000000E+01 0.  1.
         11    1    4    4    0    0  0.15907009073E+02  0.62275417032E+01  0.51434958616E+01  0.17840144702E+02  0.00000000000E+00 0. -1.
        -12    1    4    4    0    0 -0.38170384135E+02 -0.71649502861E+02  0.14323101531E+03  0.16463824960E+03  0.00000000000E+00 0.  1.
</event>
<event>
12    1  0.8562501E-002  0.1887329E+03  0.7818608E-02  0.1160060E+00
         21   -1    0    0  503  502  0.00000000000E+00  0.00000000000E+00  0.11832523698E+03  0.11832523698E+03  0.00000000000E+00 0. -1.
         21   -1    0    0  501  503 -0.00000000000E+00 -0.00000000000E+00 -0.34650364301E+03  0.34650364301E+03  0.00000000000E+00 0. -1.
          6    2    1    2  501    0  0.67131442704E+02 -0.40182644359E+02 -0.27559130978E+02  0.19073444598E+03  0.17175228579E+03 0.  0.
         24    2    3    3    0    0 -0.23268784140E+02 -0.34478829569E+02 -0.41665820641E+02  0.98942163026E+02  0.79519085827E+02 0.  0.
         -6    2    1    2    0  502 -0.67131442704E+02  0.40182644359E+02 -0.20061927506E+03  0.27409443401E+03  0.16958298772E+03 0.  0.
        -24    2    5    5    0    0 -0.15958324389E+02 -0.21387092234E+02 -0.16646772620E+03  0.18692827778E+03  0.80737855660E+02 0.  0.
          5    1    3    3  501    0  0.90400226844E+02 -0.57038147891E+01  0.14106689663E+02  0.91792282953E+02  0.47000000000E+01 0. -1.
        -11    1    4    4    0    0 -0.36594623859E+02 -0.79648144110E+01  0.10527524886E+02  0.38902873212E+02  0.00000000000E+00 0.  1.
         12    1    4    4    0    0  0.13325839719E+02 -0.26514015159E+02 -0.52193345527E+02  0.60039289814E+02  0.00000000000E+00 0. -1.
         -5    1    5    5    0  502 -0.51173118315E+02  0.61569736593E+02 -0.34151548860E+02  0.87166156229E+02  0.47000000000E+01 0.  1.
         13    1    6    6    0    0 -0.37598822869E+02  0.36063645312E+01 -0.35441465940E+02  0.51795509982E+02  0.00000000000E+00 0. -1.
        -14    1    6    6    0    0  0.21640498481E+02 -0.24993456765E+02 -0.13102626026E+03  0.13513276780E+03  0.00000000000E+00 0.  1.
</event>
<event>
12    1  0.8562501E-002  0.2491872E+03  0.7818608E-02  0.1113826E+00
         21   -1    0    0  503  502  0.00000000000E+00  0.00000000000E+00  0.44648809499E+03  0.44648809499E+03  0.00000000000E+00 0.  1.
         21   -1    0    0  501  503 -0.00000000000E+00 -0.00000000000E+00 -0.19259179869E+03  0.19259179869E+03  0.00000000000E+00 0. -1.
          6    2    1    2  501    0 -0.18021189664E+03  0.85559412851E+01 -0.41542405885E+02  0.25258502738E+03  0.17182518077E+03 0.  0.
         24    2    3    3    0    0 -0.44734544360E+02  0.48967657641E+02  0.64974818542E+01  0.10319580215E+03  0.78791784832E+02 0.  0.
         -6    2    1    2    0  502  0.18021189664E+03 -0.85559412851E+01  0.29543870219E+03  0.38649486631E+03  0.17188578508E+03 0.  0.
        -24    2    5    5    0    0  0.43018747666E+02 -0.13946940588E+02  0.19780243788E+03  0.21795420918E+03  0.79580795823E+02 0.  0.
          5    1    3    3  501    0 -0.13547735228E+03 -0.40411716356E+02 -0.48039887739E+02  0.14938922522E+03  0.47000000000E+01 0. -1.
        -13    1    4    4    0    0 -0.30990849758E+02  0.60801269481E+02 -0.19974511744E+02  0.71107019756E+02  0.00000000000E+00 0.  1.
         14    1    4    4    0    0 -0.13743694601E+02 -0.11833611840E+02  0.26471993598E+02  0.32088782394E+02  0.00000000000E+00 0. -1.
         -5    1    5    5    0  502  0.13719314897E+03  0.53909993026E+01  0.97636264304E+02  0.16854065713E+03  0.47000000000E+01 0.  1.
         13    1    6    6    0    0  0.56368008327E+02 -0.34254614470E+02  0.15939791079E+03  0.17250630406E+03  0.00000000000E+00 0. -1.
        -14    1    6    6    0    0 -0.13349260662E+02  0.20307673882E+02  0.38404527091E+02  0.45447905120E+02  0.00000000000E+00 0.  1.
</event>
<event>
12    1  0.8562501E-002  0.1910469E+03  0.7818608E-02  0.1157581E+00
         21   -1    0    0  501  502  0.00000000000E+00  0.00000000000E+00  0.10964840212E+03  0.10964840212E+03  0.00000000000E+00 0. -1.
         21   -1    0    0  502  503 -0.00000000000E+00 -0.00000000000E+00 -0.34956048432E+03  0.34956048432E+03  0.00000000000E+00 0.  1.
         -6    2    1    2    0  503  0.80113710887E+02 -0.16035085472E+02 -0.17091290121E+03  0.25633989344E+03  0.17269507964E+03 0.  0.
        -24    2    3    3    0    0  0.76912310284E+02 -0.18245920925E+02 -0.19868924978E+03  0.22790132281E+03  0.78823713795E+02 0.  0.
          6    2    1    2  501    0 -0.80113710887E+02  0.16035085472E+02 -0.68999180990E+02  0.20286899300E+03  0.17239376643E+03 0.  0.
         24    2    5    5    0    0 -0.27222242539E+02  0.74683909473E+02 -0.31090983956E+02  0.11514035809E+03  0.77278172561E+02 0.  0.
          5    1    5    5  501    0 -0.52891468349E+02 -0.58648824001E+02 -0.37908197034E+02  0.87728634910E+02  0.47000000000E+01 0. -1.
        -11    1    6    6    0    0 -0.29367641325E+02 -0.56071437796E+01 -0.29922381222E+01  0.30047494194E+02  0.00000000000E+00 0.  1.
         12    1    6    6    0    0  0.21453987860E+01  0.80291053253E+02 -0.28098745834E+02  0.85092863895E+02  0.00000000000E+00 0. -1.
         -5    1    3    3    0  503  0.32014006030E+01  0.22108354527E+01  0.27776348576E+02  0.28438570630E+02  0.47000000000E+01 0.  1.
         13    1    4    4    0    0  0.41444738285E+02 -0.11900480009E+02 -0.23624282778E+02  0.49167006140E+02  0.00000000000E+00 0. -1.
        -14    1    4    4    0    0  0.35467572000E+02 -0.63454409158E+01 -0.17506496700E+03  0.17873431667E+03  0.00000000000E+00 0.  1.
</event>
<event>
12    1  0.8562501E-002  0.1898863E+03  0.7818608E-02  0.1159498E+00
         21   -1    0    0  503  502  0.00000000000E+00  0.00000000000E+00  0.28479462087E+03  0.28479462087E+03  0.00000000000E+00 0. -1.
         21   -1    0    0  501  503 -0.00000000000E+00 -0.00000000000E+00 -0.13240531083E+03  0.13240531083E+03  0.00000000000E+00 0. -1.
          6    2    1    2  501    0  0.73240258220E+02  0.31278251594E+02  0.12830427280E+03  0.22579230764E+03  0.16786219147E+03 0.  0.
         24    2    3    3    0    0 -0.22351448053E+02 -0.19068066604E+01  0.74469742121E+02  0.11107845018E+03  0.79306093472E+02 0.  0.
         -6    2    1    2    0  502 -0.73240258220E+02 -0.31278251594E+02  0.24085037229E+02  0.19140762406E+03  0.17237843566E+03 0.  0.
        -24    2    5    5    0    0 -0.44581190277E+01 -0.57878333801E+02  0.50964501851E+02  0.11277466237E+03  0.82164272495E+02 0.  0.
          5    1    3    3  501    0  0.95591706273E+02  0.33185058254E+02  0.53834530684E+02  0.11471385746E+03  0.47000000000E+01 0. -1.
        -13    1    4    4    0    0 -0.21879814757E+02  0.65689391129E+01 -0.10883089453E+02  0.25304523131E+02  0.00000000000E+00 0.  1.
         14    1    4    4    0    0 -0.47163329625E+00 -0.84757457733E+01  0.85352831573E+02  0.85773927052E+02  0.00000000000E+00 0. -1.
         -5    1    5    5    0  502 -0.68782139193E+02  0.26600082207E+02 -0.26879464622E+02  0.78632961687E+02  0.47000000000E+01 0.  1.
         13    1    6    6    0    0 -0.20966325157E+02  0.84056969743E+01 -0.65047560745E+01  0.23506475359E+02  0.00000000000E+00 0. -1.
        -14    1    6    6    0    0  0.16508206130E+02 -0.66284030775E+02  0.57469257925E+02  0.89268187009E+02  0.00000000000E+00 0.  1.
</event>
<event>
12    1  0.8562501E-002  0.2047031E+03  0.7818608E-02  0.1146427E+00
         21   -1    0    0  503  502  0.00000000000E+00  0.00000000000E+00  0.13802942742E+03  0.13802942742E+03  0.00000000000E+00 0.  1.
         21   -1    0    0  501  503 -0.00000000000E+00 -0.00000000000E+00 -0.36165465728E+03  0.36165465728E+03  0.00000000000E+00 0. -1.
          6    2    1    2  501    0 -0.59897078136E+02  0.86840880422E+02 -0.21620184213E+03  0.29773576034E+03  0.17542618950E+03 0.  0.
         24    2    3    3    0    0 -0.43281840926E+02 -0.13884336623E+02 -0.14748474482E+03  0.17458640014E+03  0.81624558804E+02 0.  0.
         -6    2    1    2    0  502  0.59897078136E+02 -0.86840880422E+02 -0.74233877349E+01  0.20194832436E+03  0.17204365883E+03 0.  0.
        -24    2    5    5    0    0 -0.19116672470E+02 -0.79419103621E+02  0.23484519634E+02  0.11665093698E+03  0.79894162799E+02 0.  0.
          5    1    3    3  501    0 -0.16615237210E+02  0.10072521705E+03 -0.68717097311E+02  0.12314936021E+03  0.47000000000E+01 0. -1.
        -11    1    4    4    0    0  0.83992700896E+01  0.26500944183E+02 -0.46211454686E+02  0.53929086074E+02  0.00000000000E+00 0.  1.
         12    1    4    4    0    0 -0.51681111015E+02 -0.40385280807E+02 -0.10127329014E+03  0.12065731406E+03  0.00000000000E+00 0. -1.
         -5    1    5    5    0  502  0.79013750605E+02 -0.74217768011E+01 -0.30907907368E+02  0.85297387378E+02  0.47000000000E+01 0.  1.
         11    1    6    6    0    0 -0.14557512433E+02 -0.27471109265E+02  0.49438464759E+02  0.58401582258E+02  0.00000000000E+00 0. -1.
        -12    1    6    6    0    0 -0.45591600366E+01 -0.51947994356E+02 -0.25953945125E+02  0.58249354721E+02  0.00000000000E+00 0.  1.
</event>
<event>
12    1  0.8562501E-002  0.2266778E+03  0.7818608E-02  0.1129182E+00
         21   -1    0    0  501  502  0.00000000000E+00  0.00000000000E+00  0.70945102370E+03  0.70945102370E+03  0.00000000000E+00 0.  1.
         21   -1    0    0  502  503 -0.00000000000E+00 -0.00000000000E+00 -0.72111711541E+02  0.72111711541E+02  0.00000000000E+00 0.  1.
         -6    2    1    2    0  503  0.14586655964E+03  0.15021713780E+02  0.32346240540E+03  0.39498199371E+03  0.17285873578E+03 0.  0.
        -24    2    3    3    0    0  0.16512762620E+03 -0.96943792588E+01  0.31018973393E+03  0.36062900624E+03  0.80464247823E+02 0.  0.
          6    2    1    2  501    0 -0.14586655964E+03 -0.15021713780E+02  0.31387690676E+03  0.38658074154E+03  0.17153207287E+03 0.  0.
         24    2    5    5    0    0 -0.12097631708E+03  0.66284800714E+01  0.32100067842E+03  0.35250592398E+03  0.80868936283E+02 0.  0.
          5    1    5    5  501    0 -0.24890242565E+02 -0.21650193851E+02 -0.71237716602E+01  0.34074817555E+02  0.47000000000E+01 0. -1.
        -11    1    6    6    0    0 -0.18027243686E+02  0.49676804329E+01  0.16202317626E+03  0.16309864809E+03  0.00000000000E+00 0.  1.
         12    1    6    6    0    0 -0.10294907339E+03  0.16607996385E+01  0.15897750216E+03  0.18940727589E+03  0.00000000000E+00 0. -1.
         -5    1    3    3    0  503 -0.19261066559E+02  0.24716093039E+02  0.13272671471E+02  0.34352987469E+02  0.47000000000E+01 0.  1.
         13    1    4    4    0    0  0.11864427342E+03 -0.40830546058E+02  0.24046773844E+03  0.27123482508E+03  0.00000000000E+00 0. -1.
        -14    1    4    4    0    0  0.46483352786E+02  0.31136166799E+02  0.69721995493E+02  0.89394181157E+02  0.00000000000E+00 0.  1.
</event>
<event>
12    1  0.8562501E-002  0.1767211E+03  0.7818608E-02  0.1173218E+00
         21   -1    0    0  501  502  0.00000000000E+00  0.00000000000E+00  0.45608230295E+03  0.45608230295E+03  0.00000000000E+00 0. -1.
         21   -1    0    0  502  503 -0.00000000000E+00 -0.00000000000E+00 -0.90028100710E+02  0.90028100710E+02  0.00000000000E+00 0. -1.
         -6    2    1    2    0  503 -0.15414005506E+02 -0.35851503278E+02  0.36231900320E+02  0.17192716818E+03  0.16347256254E+03 0.  0.
        -24    2    3    3    0    0 -0.24855513446E+02 -0.71516200793E+02  0.60334063968E+02  0.12760880840E+03  0.83135101980E+02 0.  0.
          6    2    1    2  501    0  0.15414005506E+02  0.35851503278E+02  0.32982230192E+03  0.37418323548E+03  0.17235840861E+03 0.  0.
         24    2    5    5    0    0 -0.25052966291E+02 -0.31198094381E+02  0.11803489473E+03  0.14833102673E+03  0.80429378366E+02 0.  0.
          5    1    5    5  501    0  0.40466971798E+02  0.67049597659E+02  0.21178740720E+03  0.22585220876E+03  0.47000000000E+01 0. -1.
        -13    1    6    6    0    0 -0.80608654434E+01 -0.47531254851E+02  0.11483678539E+03  0.12454591530E+03  0.00000000000E+00 0.  1.
         14    1    6    6    0    0 -0.16992100848E+02  0.16333160471E+02  0.31981093331E+01  0.23785111425E+02  0.00000000000E+00 0. -1.
         -5    1    3    3    0  503  0.94415079400E+01  0.35664697516E+02 -0.24102163648E+02  0.44318359780E+02  0.47000000000E+01 0.  1.
         13    1    4    4    0    0 -0.54404726999E+02 -0.35997484629E+02  0.43619570493E+02  0.78475219971E+02  0.00000000000E+00 0. -1.
        -14    1    4    4    0    0  0.29549213553E+02 -0.35518716165E+02  0.16714493475E+02  0.49133588427E+02  0.00000000000E+00 0.  1.
</event>
<event>
12    1  0.8562501E-002  0.5063800E+03  0.7818608E-02  0.1012190E+00
         21   -1    0    0  501  502  0.00000000000E+00  0.00000000000E+00  0.13146923165E+04  0.13146923165E+04  0.00000000000E+00 0. -1.
         21   -1    0    0  502  503 -0.00000000000E+00 -0.00000000000E+00 -0.20537374339E+03  0.20537374339E+03  0.00000000000E+00 0. -1.
         -6    2    1    2    0  503 -0.43009669519E+03 -0.20322182335E+03  0.38162693650E+03  0.63408190432E+03  0.17360433754E+03 0.  0.
        -24    2    3    3    0    0 -0.33892678856E+03 -0.11492084176E+03  0.21916475065E+03  0.42786583545E+03  0.83413532150E+02 0.  0.
          6    2    1    2  501    0  0.43009669519E+03  0.20322182335E+03  0.72769163658E+03  0.88598415554E+03  0.17073526064E+03 0.  0.
         24    2    5    5    0    0  0.11865208975E+03  0.49831659033E+02  0.15838396684E+03  0.21915614354E+03  0.79890059808E+02 0.  0.
          5    1    5    5  501    0  0.31144460545E+03  0.15339016431E+03  0.56930766973E+03  0.66682801200E+03  0.47000000000E+01 0. -1.
        -13    1    6    6    0    0  0.36491914202E+02 -0.19947746333E+02  0.28737708956E+02  0.50551244317E+02  0.00000000000E+00 0.  1.
         14    1    6    6    0    0  0.82160175544E+02  0.69779405366E+02  0.12964625789E+03  0.16860489923E+03  0.00000000000E+00 0. -1.
         -5    1    3    3    0  503 -0.91169906636E+02 -0.88300981585E+02  0.16246218586E+03  0.20621606887E+03  0.47000000000E+01 0.  1.
         13    1    4    4    0    0 -0.18943702050E+03 -0.10741270656E+03  0.12748395219E+03  0.25234110314E+03  0.00000000000E+00 0. -1.
        -14    1    4    4    0    0 -0.14948976805E+03 -0.75081352039E+01  0.91680798451E+02  0.17552473231E+03  0.00000000000E+00 0.  1.
</event>
<event>
12    1  0.8562501E-002  0.1811547E+03  0.7818608E-02  0.1167532E+00
         21   -1    0    0  503  502  0.00000000000E+00  0.00000000000E+00  0.54654797065E+02  0.54654797065E+02  0.00000000000E+00 0.  1.
         21   -1    0    0  501  503 -0.00000000000E+00 -0.00000000000E+00 -0.59313769346E+03  0.59313769346E+03  0.00000000000E+00 0.  1.
          6    2    1    2  501    0 -0.43282581957E+02 -0.28615163068E+02 -0.29890282982E+03  0.34951384452E+03  0.17356502061E+03 0.  0.
         24    2    3    3    0    0 -0.88313666046E+02  0.12517676540E+02 -0.20976954647E+03  0.24140953735E+03  0.79494064309E+02 0.  0.
         -6    2    1    2    0  502  0.43282581957E+02  0.28615163068E+02 -0.23958006658E+03  0.29827864600E+03  0.16993920355E+03 0.  0.
        -24    2    5    5    0    0  0.40182590127E+02  0.79507064651E+02 -0.20310988239E+03  0.23541562086E+03  0.78935900195E+02 0.  0.
          5    1    3    3  501    0  0.45031084089E+02 -0.41132839608E+02 -0.89133283350E+02  0.10810430717E+03  0.47000000000E+01 0. -1.
        -11    1    4    4    0    0 -0.46142819837E+02  0.42020886206E+02 -0.77662456600E+02  0.99631179183E+02  0.00000000000E+00 0.  1.
         12    1    4    4    0    0 -0.42170846208E+02 -0.29503209666E+02 -0.13210708987E+03  0.14177835817E+03  0.00000000000E+00 0. -1.
         -5    1    5    5    0  502  0.30999918296E+01 -0.50891901583E+02 -0.36470184182E+02  0.62863025145E+02  0.47000000000E+01 0.  1.
         13    1    6    6    0    0 -0.58651681193E+01 -0.14209533964E+01  0.47328716018E+01  0.76693793244E+01  0.00000000000E+00 0. -1.
        -14    1    6    6    0    0  0.46047758246E+02  0.80928018048E+02 -0.20784275400E+03  0.22774624153E+03  0.00000000000E+00 0.  1.
</event>
<event>
12    1  0.8562501E-002  0.1886753E+03  0.7818608E-02  0.1160425E+00
         21   -1    0    0  503  502  0.00000000000E+00  0.00000000000E+00  0.15970993934E+03  0.15970993934E+03  0.00000000000E+00 0.  1.
         21   -1    0    0  501  503 -0.00000000000E+00 -0.00000000000E+00 -0.37438374175E+03  0.37438374175E+03  0.00000000000E+00 0.  1.
          6    2    1    2  501    0 -0.46906802676E+01 -0.71634754828E+02 -0.27882424842E+03  0.33481083025E+03  0.17088531231E+03 0.  0.
         24    2    3    3    0    0  0.41640668732E+02  0.16307064649E+01 -0.19744571416E+03  0.21581932821E+03  0.76528216320E+02 0.  0.
         -6    2    1    2    0  502  0.46906802676E+01  0.71634754828E+02  0.64150446017E+02  0.19928285084E+03  0.17448448164E+03 0.  0.
        -24    2    5    5    0    0 -0.37133487322E+02  0.60863699948E+02  0.98246634211E+02  0.14405680022E+03  0.77567226994E+02 0.  0.
          5    1    3    3  501    0 -0.46331348999E+02 -0.73265461293E+02 -0.81378534262E+02  0.11899150204E+03  0.47000000000E+01 0. -1.
        -13    1    4    4    0    0  0.53606392670E+02 -0.21070975707E+02 -0.16291287485E+03  0.17279535915E+03  0.00000000000E+00 0.  1.
         14    1    4    4    0    0 -0.11965723938E+02  0.22701682172E+02 -0.34532839309E+02  0.43023969059E+02  0.00000000000E+00 0. -1.
         -5    1    5    5    0  502  0.41824167589E+02  0.10771054881E+02 -0.34096188195E+02  0.55226050621E+02  0.47000000000E+01 0.  1.
         13    1    6    6    0    0 -0.56188543399E+02  0.35419695759E+02  0.39546989429E+02  0.77302468459E+02  0.00000000000E+00 0. -1.
        -14    1    6    6    0    0  0.19055056077E+02  0.25444004188E+02  0.58699644782E+02  0.66754331760E+02  0.00000000000E+00 0.  1.
</event>
<event>
12    1  0.8562501E-002  0.3327133E+03  0.7818608E-02  0.1069969E+00
         21   -1    0    0  501  502  0.00000000000E+00  0.00000000000E+00  0.15703302043E+03  0.15703302043E+03  0.00000000000E+00 0. -1.
         21   -1    0    0  502  503 -0.00000000000E+00 -0.00000000000E+00 -0.11454846240E+04  0.11454846240E+04  0.00000000000E+00 0.  1.
         -6    2    1    2    0  503  0.27413770040E+03 -0.77695642904E+02 -0.89823107918E+03  0.95778889195E+03  0.17132541617E+03 0.  0.
        -24    2    3    3    0    0  0.58663551585E+02 -0.35984794448E+02 -0.19875245008E+03  0.22467133913E+03  0.78983267192E+02 0.  0.
          6    2    1    2  501    0 -0.27413770040E+03  0.77695642904E+02 -0.90220524439E+02  0.34472875252E+03  0.17178497629E+03 0.  0.
         24    2    5    5    0    0 -0.96468735631E+02  0.22814324441E+02 -0.93299019420E+02  0.15869169361E+03  0.81557563977E+02 0.  0.
          5    1    5    5  501    0 -0.17766896477E+03  0.54881318463E+02  0.30784949814E+01  0.18603705891E+03  0.47000000000E+01 0. -1.
        -13    1    6    6    0    0 -0.91348626543E+02  0.43425444331E+02 -0.93075102419E+02  0.13745295732E+03  0.00000000000E+00 0.  1.
         14    1    6    6    0    0 -0.51201090878E+01 -0.20611119890E+02 -0.22391700106E+00  0.21238736286E+02  0.00000000000E+00 0. -1.
         -5    1    3    3    0  503  0.21547414881E+03 -0.41710848456E+02 -0.69947862910E+03  0.73311755282E+03  0.47000000000E+01 0.  1.
         11    1    4    4    0    0  0.71316855164E+02 -0.41415305983E+02 -0.12574400407E+03  0.15037578249E+03  0.00000000000E+00 0. -1.
        -12    1    4    4    0    0 -0.12653303579E+02  0.54305115345E+01 -0.73008446016E+02  0.74295556642E+02  0.00000000000E+00 0.  1.
</event>
<event>
12    1  0.8562501E-002  0.2061324E+03  0.7818608E-02  0.1144855E+00
         21   -1    0    0  501  502  0.00000000000E+00  0.00000000000E+00  0.68715322849E+03  0.68715322849E+03  0.00000000000E+00 0. -1.
         21   -1    0    0  502  503 -0.00000000000E+00 -0.00000000000E+00 -0.66437270769E+02  0.66437270769E+02  0.00000000000E+00 0. -1.
         -6    2    1    2    0  503  0.11103245495E+03 -0.16521098393E+02  0.41182601957E+03  0.46011894624E+03  0.17177782614E+03 0.  0.
        -24    2    3    3    0    0  0.59473603985E+02  0.30447843885E+02  0.35744339918E+03  0.37155283505E+03  0.76299048781E+02 0.  0.
          6    2    1    2  501    0 -0.11103245495E+03  0.16521098393E+02  0.20888993815E+03  0.29347155301E+03  0.17288549223E+03 0.  0.
         24    2    5    5    0    0 -0.11051041918E+03 -0.40948035215E+02  0.17812253101E+03  0.22811333103E+03  0.80117172970E+02 0.  0.
          5    1    5    5  501    0 -0.52203577439E+00  0.57469133608E+02  0.30767407142E+02  0.65358221986E+02  0.47000000000E+01 0. -1.
        -11    1    6    6    0    0 -0.47813443959E+02 -0.48714688030E+02  0.13604039770E+03  0.15220458620E+03  0.00000000000E+00 0.  1.
         12    1    6    6    0    0 -0.62696975221E+02  0.77666528158E+01  0.42082133303E+02  0.75908744826E+02  0.00000000000E+00 0. -1.
         -5    1    3    3    0  503  0.51558850969E+02 -0.46968942278E+02  0.54382620385E+02  0.88566111194E+02  0.47000000000E+01 0.  1.
         13    1    4    4    0    0  0.86958080476E+01  0.34917436481E+02  0.61517781478E+02  0.71269080856E+02  0.00000000000E+00 0. -1.
        -14    1    4    4    0    0  0.50777795937E+02 -0.44695925963E+01  0.29592561771E+03  0.30028375419E+03  0.00000000000E+00 0.  1.
</event>
<event>
12    1  0.8562501E-002  0.1761328E+03  0.7818608E-02  0.1171722E+00
         21   -1    0    0  503  502  0.00000000000E+00  0.00000000000E+00  0.90001315078E+03  0.90001315078E+03  0.00000000000E+00 0. -1.
         21   -1    0    0  501  503 -0.00000000000E+00 -0.00000000000E+00 -0.37063046762E+02  0.37063046762E+02  0.00000000000E+00 0. -1.
          6    2    1    2  501    0  0.80811720449E+01  0.35886819016E+02  0.30467312207E+03  0.35167382615E+03  0.17174282975E+03 0.  0.
         24    2    3    3    0    0 -0.44306820783E+02  0.36740606773E+02  0.96590738073E+02  0.13704484564E+03  0.78348914998E+02 0.  0.
         -6    2    1    2    0  502 -0.80811720449E+01 -0.35886819016E+02  0.55827698195E+03  0.58540237139E+03  0.17224859573E+03 0.  0.
        -24    2    5    5    0    0  0.65254421726E+01 -0.30662239086E+02  0.12665207176E+03  0.15347320762E+03  0.80811656806E+02 0.  0.
          5    1    3    3  501    0  0.52387992828E+02 -0.85378775699E+00  0.20808238399E+03  0.21462898051E+03  0.47000000000E+01 0. -1.
        -13    1    4    4    0    0 -0.22913185882E+01  0.27319588224E+02 -0.39245978698E+01  0.27694990703E+02  0.00000000000E+00 0.  1.
         14    1    4    4    0    0 -0.42015502195E+02  0.94210185485E+01  0.10051533594E+03  0.10934985494E+03  0.00000000000E+00 0. -1.
         -5    1    5    5    0  502 -0.14606614218E+02 -0.52245799297E+01  0.43162491019E+03  0.43192916377E+03  0.47000000000E+01 0.  1.
         11    1    6    6    0    0 -0.27594652158E+02 -0.42279875539E+02  0.69451740380E+02  0.85863827921E+02  0.00000000000E+00 0. -1.
        -12    1    6    6    0    0  0.34120094330E+02  0.11617636453E+02  0.57200331376E+02  0.67609379699E+02  0.00000000000E+00 0.  1.
</event>
<event>
12    1  0.8562501E-002  0.1923978E+03  0.7818608E-02  0.1158074E+00
         21   -1    0    0  503  502  0.00000000000E+00  0.00000000000E+00  0.40991798226E+03  0.40991798226E+03  0.00000000000E+00 0.  1.
         21   -1    0    0  501  503 -0.00000000000E+00 -0.00000000000E+00 -0.11482049497E+03  0.11482049497E+03  0.00000000000E+00 0.  1.
          6    2    1    2  501    0 -0.77911459051E+00 -0.86742495288E+02  0.15443722984E+02  0.18529311480E+03  0.16300356532E+03 0.  0.
         24    2    3    3    0    0 -0.38769434301E+02 -0.57717783288E+02 -0.38989962427E+02  0.11269274011E+03  0.79655664955E+02 0.  0.
         -6    2    1    2    0  502  0.77911459051E+00  0.86742495288E+02  0.27965376430E+03  0.33944536242E+03  0.17173252072E+03 0.  0.
        -24    2    5    5    0    0  0.48761991056E+02  0.13264754380E+02  0.10072842349E+03  0.14010218489E+03  0.83238941798E+02 0.  0.
          5    1    3    3  501    0  0.37990319710E+02 -0.29024711999E+02  0.54433685411E+02  0.72600374694E+02  0.47000000000E+01 0. -1.
        -11    1    4    4    0    0  0.19374879942E+02 -0.15779783855E+02 -0.32089193736E+02  0.40670676241E+02  0.00000000000E+00 0.  1.
         12    1    4    4    0    0 -0.58144314243E+02 -0.41937999433E+02 -0.69007686915E+01  0.72022063867E+02  0.00000000000E+00 0. -1.
         -5    1    5    5    0  502 -0.47982876466E+02  0.73477740907E+02  0.17892534081E+03  0.19934317753E+03  0.47000000000E+01 0.  1.
         11    1    6    6    0    0 -0.35503022517E+01 -0.28487603843E+02  0.43066324391E+02  0.51757671078E+02  0.00000000000E+00 0. -1.
        -12    1    6    6    0    0  0.52312293308E+02  0.41752358223E+02  0.57662099101E+02  0.88344513814E+02  0.00000000000E+00 0.  1.
</event>
<event>
12    1  0.8562501E-002  0.1790692E+03  0.7818608E-02  0.1169099E+00
         21   -1    0    0  503  502  0.00000000000E+00  0.00000000000E+00  0.14048876345E+03  0.14048876345E+03  0.00000000000E+00 0.  1.
         21   -1    0    0  501  503 -0.00000000000E+00 -0.00000000000E+00 -0.47458771726E+03  0.47458771726E+03  0.00000000000E+00 0.  1.
          6    2    1    2  501    0  0.14922358501E+02  0.45731632263E+02 -0.38917482533E+03  0.42772888619E+03  0.17082416819E+03 0.  0.
         24    2    3    3    0    0 -0.34213841331E+01 -0.34995949954E+02 -0.15309922670E+03  0.17751455068E+03  0.82677809024E+02 0.  0.
         -6    2    1    2    0  502 -0.14922358501E+02 -0.45731632263E+02  0.55075871521E+02  0.18734759451E+03  0.17248684174E+03 0.  0.
        -24    2    5    5    0    0 -0.26267056358E+02  0.13904980979E+02 -0.19288082502E+02  0.91236640579E+02  0.84076082876E+02 0.  0.
          5    1    3    3  501    0  0.18343742634E+02  0.80727582218E+02 -0.23607559863E+03  0.25021433551E+03  0.47000000000E+01 0. -1.
        -11    1    4    4    0    0 -0.29973614620E+02  0.14187820213E+01 -0.11389506097E+03  0.11778164301E+03  0.00000000000E+00 0.  1.
         12    1    4    4    0    0  0.26552230487E+02 -0.36414731976E+02 -0.39204165726E+02  0.59732907672E+02  0.00000000000E+00 0. -1.
         -5    1    5    5    0  502  0.11344697857E+02 -0.59636613242E+02  0.74363954024E+02  0.96110953936E+02  0.47000000000E+01 0.  1.
         13    1    6    6    0    0 -0.43979790450E+02 -0.11193531613E+02  0.12458171120E+02  0.47060845143E+02  0.00000000000E+00 0. -1.
        -14    1    6    6    0    0  0.17712734092E+02  0.25098512592E+02 -0.31746253622E+02  0.44175795435E+02  0.00000000000E+00 0.  1.
</event>
<event>
12    1  0.8562501E-002  0.2091186E+03  0.7818608E-02  0.1142359E+00
         21   -1    0    0  503  502  0.00000000000E+00  0.00000000000E+00  0.62523959887E+02  0.62523959887E+02  0.00000000000E+00 0.  1.
         21   -1    0    0  501  503 -0.00000000000E+00 -0.00000000000E+00 -0.75573221122E+03  0.75573221122E+03  0.00000000000E+00 0.  1.
          6    2    1    2  501    0 -0.11466456811E+03  0.27017083043E+02 -0.45946148195E+03  0.50461918074E+03  0.17221433803E+03 0.  0.
         24    2    3    3    0    0 -0.12593385012E+03  0.92131103158E+01 -0.45931763400E+03  0.48303008965E+03  0.80007265882E+02 0.  0.
         -6    2    1    2    0  502  0.11466456811E+03 -0.27017083043E+02 -0.23374676938E+03  0.31363699037E+03  0.17277940726E+03 0.  0.
        -24    2    5    5    0    0  0.83500392010E+01 -0.43022870394E+02 -0.60616377371E+02  0.10978609651E+03  0.80361379099E+02 0.  0.
          5    1    3    3  501    0  0.11269282012E+02  0.17803972727E+02 -0.14384794617E+00  0.21589091092E+02  0.47000000000E+01 0. -1.
        -11    1    4    4    0    0 -0.72750695160E+02  0.38597687608E+02 -0.19241778513E+03  0.20930133581E+03  0.00000000000E+00 0.  1.
         12    1    4    4    0    0 -0.53183154960E+02 -0.29384577292E+02 -0.26689984887E+03  0.27372875384E+03  0.00000000000E+00 0. -1.
         -5    1    5    5    0  502  0.10631452891E+03  0.16005787351E+02 -0.17313039201E+03  0.20385089385E+03  0.47000000000E+01 0.  1.
         11    1    6    6    0    0  0.58125249367E+01  0.15253841635E+02 -0.47183548386E+02  0.49927471087E+02  0.00000000000E+00 0. -1.
        -12    1    6    6    0    0  0.25375142642E+01 -0.58276712029E+02 -0.13432828985E+02  0.59858625428E+02  0.00000000000E+00 0.  1.
</event>
<event>
12    1  0.8562501E-002  0.2227280E+03  0.7818608E-02  0.1131960E+00
         21   -1    0    0  503  502  0.00000000000E+00  0.00000000000E+00  0.10137567139E+04  0.10137567139E+04  0.00000000000E+00 0.  1.
         21   -1    0    0  501  503 -0.00000000000E+00 -0.00000000000E+00 -0.66306746652E+02  0.66306746652E+02  0.00000000000E+00 0.  1.
          6    2    1    2  501    0 -0.13390096676E+03  0.46359905027E+02  0.75144450791E+03  0.78375799557E+03  0.17184015087E+03 0.  0.
         24    2    3    3    0    0 -0.93010186692E+02  0.63799770359E+02  0.70796938604E+03  0.72140111127E+03  0.80483577507E+02 0.  0.
         -6    2    1    2    0  502  0.13390096676E+03 -0.46359905027E+02  0.19600545937E+03  0.29630546502E+03  0.17117265788E+03 0.  0.
        -24    2    5    5    0    0  0.63696346283E+02 -0.71756494995E+02  0.18045828116E+03  0.21990206020E+03  0.81151128998E+02 0.  0.
          5    1    3    3  501    0 -0.40890780066E+02 -0.17439865332E+02  0.43475121869E+02  0.62356884293E+02  0.47000000000E+01 0. -1.
        -11    1    4    4    0    0 -0.60921075181E+02 -0.44848711939E+01  0.25670959757E+03  0.26387745064E+03  0.00000000000E+00 0.  1.
         12    1    4    4    0    0 -0.32089111510E+02  0.68284641553E+02  0.45125978847E+03  0.45752366064E+03  0.00000000000E+00 0. -1.
         -5    1    5    5    0  502  0.70204620474E+02  0.25396589968E+02  0.15547178216E+02  0.76403404822E+02  0.47000000000E+01 0.  1.
         13    1    6    6    0    0 -0.10483759863E+02 -0.39903584004E+02  0.87785781029E+02  0.96997673107E+02  0.00000000000E+00 0. -1.
        -14    1    6    6    0    0  0.74180106147E+02 -0.31852910992E+02  0.92672500130E+02  0.12290438709E+03  0.00000000000E+00 0.  1.
</event>
<event>
12    1  0.8562501E-002  0.2123732E+03  0.7818608E-02  0.1140070E+00
         21   -1    0    0  503  502  0.00000000000E+00  0.00000000000E+00  0.12267263784E+03  0.12267263784E+03  0.00000000000E+00 0.  1.
         21   -1    0    0  501  503 -0.00000000000E+00 -0.00000000000E+00 -0.12844233279E+04  0.12844233279E+04  0.00000000000E+00 0. -1.
          6    2    1    2  501    0  0.59144373964E+02  0.10642107808E+03 -0.11755779947E+04  0.11942730605E+04  0.17170037423E+03 0.  0.
         24    2    3    3    0    0 -0.14284553747E+02  0.10165746098E+03 -0.88297977354E+03  0.89252762389E+03  0.80087396454E+02 0.  0.
         -6    2    1    2    0  502 -0.59144373964E+02 -0.10642107808E+03  0.13827304660E+02  0.21282290524E+03  0.17400830960E+03 0.  0.
        -24    2    5    5    0    0 -0.72133349821E+02 -0.10407209230E+03  0.62538935235E+02  0.16213617935E+03  0.79641708184E+02 0.  0.
          5    1    3    3  501    0  0.73428927712E+02  0.47636170951E+01 -0.29259822117E+03  0.30174543659E+03  0.47000000000E+01 0. -1.
        -13    1    4    4    0    0 -0.17992443494E+02  0.39596900652E+02 -0.13204191407E+03  0.13902053674E+03  0.00000000000E+00 0.  1.
         14    1    4    4    0    0  0.37078897468E+01  0.62060560332E+02 -0.75093785948E+03  0.75350708715E+03  0.00000000000E+00 0. -1.
         -5    1    5    5    0  502  0.12988975856E+02 -0.23489857782E+01 -0.48711630575E+02  0.50686725888E+02  0.47000000000E+01 0.  1.
         13    1    6    6    0    0 -0.20306949480E+02 -0.54114727919E+00  0.39022855240E+02  0.43993729878E+02  0.00000000000E+00 0. -1.
        -14    1    6    6    0    0 -0.51826400341E+02 -0.10353094502E+03  0.23516079996E+02  0.11814244947E+03  0.00000000000E+00 0.  1.
</event>
<event>
12    1  0.8562501E-002  0.2784716E+03  0.7818608E-02  0.1096594E+00
         21   -1    0    0  501  502  0.00000000000E+00  0.00000000000E+00  0.43249208590E+03  0.43249208590E+03  0.00000000000E+00 0. -1.
         21   -1    0    0  502  503 -0.00000000000E+00 -0.00000000000E+00 -0.18114571050E+03  0.18114571050E+03  0.00000000000E+00 0.  1.
         -6    2    1    2    0  503 -0.19837349894E+03 -0.91734498099E+02  0.15905826137E+03  0.32027197354E+03  0.17177701622E+03 0.  0.
        -24    2    3    3    0    0 -0.14151528434E+03  0.70655025115E+01  0.77435428016E+02  0.17999127774E+03  0.79524320336E+02 0.  0.
          6    2    1    2  501    0  0.19837349894E+03  0.91734498099E+02  0.92288114030E+02  0.29336582286E+03  0.17256635479E+03 0.  0.
         24    2    5    5    0    0  0.14802142428E+03  0.20395799409E+02  0.11468201026E+03  0.20309889679E+03  0.75966227497E+02 0.  0.
          5    1    5    5  501    0  0.50352074666E+02  0.71338698691E+02 -0.22393896233E+02  0.90266926072E+02  0.47000000000E+01 0. -1.
        -13    1    6    6    0    0  0.35699032576E+02  0.25970022869E+02  0.24449787527E+01  0.44213583160E+02  0.00000000000E+00 0.  1.
         14    1    6    6    0    0  0.11232239170E+03 -0.55742234604E+01  0.11223703151E+03  0.15888531363E+03  0.00000000000E+00 0. -1.
         -5    1    3    3    0  503 -0.56858214607E+02 -0.98800000611E+02  0.81622833350E+02  0.14028069580E+03  0.47000000000E+01 0.  1.
         11    1    4    4    0    0  0.32206977228E+01 -0.11591543235E+01 -0.10085955206E+02  0.10650963571E+02  0.00000000000E+00 0. -1.
        -12    1    4    4    0    0 -0.14473598206E+03  0.82246568350E+01  0.87521383222E+02  0.16934031417E+03  0.00000000000E+00 0.  1.
</event>
<event>
12    1  0.8562501E-002  0.2546710E+03  0.7818608E-02  0.1110504E+00
         21   -1    0    0  501  502  0.00000000000E+00  0.00000000000E+00  0.56042351060E+03  0.56042351060E+03  0.00000000000E+00 0.  1.
         21   -1    0    0  502  503 -0.00000000000E+00 -0.00000000000E+00 -0.15854673328E+03  0.15854673328E+03  0.00000000000E+00 0.  1.
         -6    2    1    2    0  503 -0.80734805635E+02 -0.16942683299E+03  0.13597402767E+02  0.25503376914E+03  0.17214462949E+03 0.  0.
        -24    2    3    3    0    0 -0.81024531145E+02 -0.72456283765E+02  0.57725575896E+02  0.14839063987E+03  0.82901460680E+02 0.  0.
          6    2    1    2  501    0  0.80734805635E+02  0.16942683299E+03  0.38827937455E+03  0.46393647474E+03  0.17103397123E+03 0.  0.
         24    2    5    5    0    0  0.83463538299E+01  0.14988485804E+02  0.10702822014E+03  0.13497508963E+03  0.80429587746E+02 0.  0.
          5    1    5    5  501    0  0.72388451805E+02  0.15443834718E+03  0.28125115441E+03  0.32896138511E+03  0.47000000000E+01 0. -1.
        -13    1    6    6    0    0  0.40411710644E+02  0.91250459228E+01  0.29459172923E+02  0.50835181612E+02  0.00000000000E+00 0.  1.
         14    1    6    6    0    0 -0.32065356814E+02  0.58634398811E+01  0.77569047218E+02  0.84139908017E+02  0.00000000000E+00 0. -1.
         -5    1    3    3    0  503  0.28972550973E+00 -0.96970549223E+02 -0.44128173129E+02  0.10664312927E+03  0.47000000000E+01 0.  1.
         13    1    4    4    0    0 -0.11149220916E+02 -0.32114602419E+02 -0.17362089304E+02  0.38171913242E+02  0.00000000000E+00 0. -1.
        -14    1    4    4    0    0 -0.69875310228E+02 -0.40341681346E+02  0.75087665200E+02  0.11021872662E+03  0.00000000000E+00 0.  1.
</event>
<event>
12    1  0.8562501E-002  0.1887593E+03  0.7818608E-02  0.1160869E+00
         21   -1    0    0  503  502  0.00000000000E+00  0.00000000000E+00  0.57214694984E+03  0.57214694984E+03  0.00000000000E+00 0. -1.
         21   -1    0    0  501  503 -0.00000000000E+00 -0.00000000000E+00 -0.74548127114E+02  0.74548127114E+02  0.00000000000E+00 0.  1.
          6    2    1    2  501    0 -0.72609226967E+02  0.10011825576E+02  0.39238807646E+03  0.43542908638E+03  0.17394755022E+03 0.  0.
         24    2    3    3    0    0 -0.82983017628E+02  0.44575123241E+02  0.36179704032E+03  0.38788817168E+03  0.10337800791E+03 0.  0.
         -6    2    1    2    0  502  0.72609226967E+02 -0.10011825576E+02  0.10521074627E+03  0.21126599057E+03  0.16790378540E+03 0.  0.
        -24    2    5    5    0    0  0.75335817252E+02  0.22648814023E+02  0.12850746489E+03  0.17078168779E+03  0.80397526160E+02 0.  0.
          5    1    3    3  501    0  0.10373790662E+02 -0.34563297665E+02  0.30591036135E+02  0.47540914695E+02  0.47000000000E+01 0. -1.
        -11    1    4    4    0    0  0.12074714387E+02 -0.12946798869E+02  0.13398751716E+02  0.22202361948E+02  0.00000000000E+00 0.  1.
         12    1    4    4    0    0 -0.95057732015E+02  0.57521922110E+02  0.34839828860E+03  0.36568580973E+03  0.00000000000E+00 0. -1.
         -5    1    5    5    0  502 -0.27265902855E+01 -0.32660639599E+02 -0.23296718624E+02  0.40484302788E+02  0.47000000000E+01 0.  1.
         11    1    6    6    0    0  0.37881097972E+02  0.45362027908E+02  0.10640992220E+03  0.12172001767E+03  0.00000000000E+00 0. -1.
        -12    1    6    6    0    0  0.37454719280E+02 -0.22713213885E+02  0.22097542690E+02  0.49061670113E+02  0.00000000000E+00 0.  1.
</event>
<event>
12    1  0.8562501E-002  0.1864783E+03  0.7818608E-02  0.1162282E+00
         21   -1    0    0  503  502  0.00000000000E+00  0.00000000000E+00  0.62901703565E+03  0.62901703565E+03  0.00000000000E+00 0. -1.
         21   -1    0    0  501  503 -0.00000000000E+00 -0.00000000000E+00 -0.59640883764E+02  0.59640883764E+02  0.00000000000E+00 0. -1.
          6    2    1    2  501    0 -0.18476478928E+02 -0.65773829729E+02  0.38746265042E+03  0.43000171263E+03  0.17351250802E+03 0.  0.
         24    2    3    3    0    0 -0.42258282419E+02 -0.94145634181E+02  0.18980136138E+03  0.22884851566E+03  0.75484590936E+02 0.  0.
         -6    2    1    2    0  502  0.18476478928E+02  0.65773829729E+02  0.18191350146E+03  0.25865620678E+03  0.17071301750E+03 0.  0.
        -24    2    5    5    0    0  0.20764934899E+02  0.25742908894E+02  0.16742515141E+02  0.88623103020E+02  0.80497594349E+02 0.  0.
          5    1    3    3  501    0  0.23781803492E+02  0.28371804451E+02  0.19766128904E+03  0.20115319697E+03  0.47000000000E+01 0. -1.
        -11    1    4    4    0    0 -0.50579679678E+02 -0.33247050338E+02  0.59985808975E+02  0.85217179200E+02  0.00000000000E+00 0.  1.
         12    1    4    4    0    0  0.83213972583E+01 -0.60898583843E+02  0.12981555240E+03  0.14363133646E+03  0.00000000000E+00 0. -1.
         -5    1    5    5    0  502 -0.22884559709E+01  0.40030920835E+02  0.16517098632E+03  0.17003310376E+03  0.47000000000E+01 0.  1.
         13    1    6    6    0    0  0.15402244095E+02 -0.26304469699E+02  0.19570637651E+02  0.36223805811E+02  0.00000000000E+00 0. -1.
        -14    1    6    6    0    0  0.53626908031E+01  0.52047378593E+02 -0.28281225101E+01  0.52399297209E+02  0.00000000000E+00 0.  1.
</event>
<event>
12    1  0.8562501E-002  0.1793937E+03  0.7818608E-02  0.1168790E+00
         21   -1    0    0  503  502  0.00000000000E+00  0.00000000000E+00  0.10893681814E+04  0.10893681814E+04  0.00000000000E+00 0. -1.
         21   -1    0    0  501  503 -0.00000000000E+00 -0.00000000000E+00 -0.49949422322E+02  0.49949422322E+02  0.00000000000E+00 0. -1.
          6    2    1    2  501    0 -0.38481039336E+02  0.33158176399E+02  0.15459803284E+03  0.23681779657E+03  0.17205191648E+03 0.  0.
         24    2    3    3    0    0 -0.43242586474E+02  0.20068224775E+02  0.18210587882E+03  0.20562820287E+03  0.82751143703E+02 0.  0.
         -6    2    1    2    0  502  0.38481039336E+02 -0.33158176399E+02  0.88482072622E+03  0.90249980713E+03  0.17034649770E+03 0.  0.
        -24    2    5    5    0    0  0.15410496076E+02 -0.82805769719E+02  0.70189522824E+03  0.71149990845E+03  0.80504219772E+02 0.  0.
          5    1    3    3  501    0  0.47615471379E+01  0.13089951624E+02 -0.27507845980E+02  0.31189593699E+02  0.47000000000E+01 0. -1.
        -13    1    4    4    0    0  0.14725984199E+02  0.58527311075E+01  0.11388911063E+03  0.11498625392E+03  0.00000000000E+00 0.  1.
         14    1    4    4    0    0 -0.57968570673E+02  0.14215493667E+02  0.68216768196E+02  0.90641948949E+02  0.00000000000E+00 0. -1.
         -5    1    5    5    0  502  0.23070543260E+02  0.49647593320E+02  0.18292549798E+03  0.19099989869E+03  0.47000000000E+01 0.  1.
         13    1    6    6    0    0 -0.12852505948E+01 -0.42100955812E+02  0.58636730368E+03  0.58787818226E+03  0.00000000000E+00 0. -1.
        -14    1    6    6    0    0  0.16695746671E+02 -0.40704813907E+02  0.11552792456E+03  0.12362172618E+03  0.00000000000E+00 0.  1.
</event>
<event>
12    1  0.8562501E-002  0.2063232E+03  0.7818608E-02  0.1144793E+00
         21   -1    0    0  501  502  0.00000000000E+00  0.00000000000E+00  0.18480767003E+04  0.18480767003E+04  0.00000000000E+00 0.  1.
         21   -1    0    0  502  503 -0.00000000000E+00 -0.00000000000E+00 -0.46407741740E+02  0.46407741740E+02  0.00000000000E+00 0.  1.
         -6    2    1    2    0  503 -0.38075008563E+01  0.11168946965E+03  0.22487271577E+03  0.30424683111E+03  0.17178288987E+03 0.  0.
        -24    2    3    3    0    0  0.23436077589E+02  0.12582087692E+03  0.11160565800E+03  0.18680141564E+03  0.77838314394E+02 0.  0.
          6    2    1    2  501    0  0.38075008563E+01 -0.11168946965E+03  0.15767962428E+04  0.15902376109E+04  0.17343653948E+03 0.  0.
         24    2    5    5    0    0 -0.37172524218E+02 -0.69419003683E+01  0.10155724501E+04  0.10178342119E+04  0.56294715441E+02 0.  0.
          5    1    5    5  501    0  0.40980025074E+02 -0.10474756928E+03  0.56122379266E+03  0.57240339899E+03  0.47000000000E+01 0. -1.
        -11    1    6    6    0    0 -0.12082108213E+02 -0.23996421952E+02  0.75884434583E+03  0.75931979218E+03  0.00000000000E+00 0.  1.
         12    1    6    6    0    0 -0.25090416005E+02  0.17054521584E+02  0.25672810431E+03  0.25851441976E+03  0.00000000000E+00 0. -1.
         -5    1    3    3    0  503 -0.27243578445E+02 -0.14131407273E+02  0.11326705777E+03  0.11744541547E+03  0.47000000000E+01 0.  1.
         13    1    4    4    0    0 -0.23577627435E+02  0.65821347003E+02  0.33022687799E+02  0.77323037617E+02  0.00000000000E+00 0. -1.
        -14    1    4    4    0    0  0.47013705024E+02  0.59999529921E+02  0.78582970196E+02  0.10947837803E+03  0.00000000000E+00 0.  1.
</event>
<event>
12    1  0.8562501E-002  0.1902265E+03  0.7818608E-02  0.1159207E+00
         21   -1    0    0  503  502  0.00000000000E+00  0.00000000000E+00  0.77501587325E+02  0.77501587325E+02  0.00000000000E+00 0.  1.
         21   -1    0    0  501  503 -0.00000000000E+00 -0.00000000000E+00 -0.47096180111E+03  0.47096180111E+03  0.00000000000E+00 0.  1.
          6    2    1    2  501    0  0.73104006611E+02 -0.31284168047E+02 -0.24650234927E+03  0.31136718696E+03  0.17280978552E+03 0.  0.
         24    2    3    3    0    0  0.98984323634E+01 -0.11192500345E+02 -0.22873371123E+03  0.24254543005E+03  0.79283819005E+02 0.  0.
         -6    2    1    2    0  502 -0.73104006611E+02  0.31284168047E+02 -0.14695786451E+03  0.23709620147E+03  0.16821147361E+03 0.  0.
        -24    2    5    5    0    0  0.44127018925E+01  0.27287208947E+02 -0.13353370421E+03  0.15818413738E+03  0.80167995160E+02 0.  0.
          5    1    3    3  501    0  0.63205574247E+02 -0.20091667702E+02 -0.17768638033E+02  0.68821756912E+02  0.47000000000E+01 0. -1.
        -11    1    4    4    0    0  0.17914359454E+02  0.20289053404E+02 -0.27063105936E+02  0.38275078910E+02  0.00000000000E+00 0.  1.
         12    1    4    4    0    0 -0.80159270908E+01 -0.31481553749E+02 -0.20167060530E+03  0.20427035114E+03  0.00000000000E+00 0. -1.
         -5    1    5    5    0  502 -0.77516708503E+02  0.39969591005E+01 -0.13424160304E+02  0.78912064091E+02  0.47000000000E+01 0.  1.
         13    1    6    6    0    0  0.77235542198E+01  0.55680650206E+02 -0.88524015438E+02  0.10486414738E+03  0.00000000000E+00 0. -1.
        -14    1    6    6    0    0 -0.33108523273E+01 -0.28393441260E+02 -0.45009688772E+02  0.53319989995E+02  0.00000000000E+00 0.  1.
</event>
<event>
12    1  0.8562501E-002  0.1811972E+03  0.7818608E-02  0.1167072E+00
         21   -1    0    0  503  502  0.00000000000E+00  0.00000000000E+00  0.11933837295E+03  0.11933837295E+03  0.00000000000E+00 0. -1.
         21   -1    0    0  501  503 -0.00000000000E+00 -0.00000000000E+00 -0.64305802592E+03  0.64305802592E+03  0.00000000000E+00 0. -1.
          6    2    1    2  501    0 -0.52843811982E+02  0.13286266737E+02 -0.55178245246E+03  0.58077216047E+03  0.17281039951E+03 0.  0.
         24    2    3    3    0    0 -0.90100456614E+01  0.12233527233E+02 -0.52044004099E+03  0.52667092123E+03  0.79332105034E+02 0.  0.
         -6    2    1    2    0  502  0.52843811982E+02 -0.13286266737E+02  0.28062799487E+02  0.18162423840E+03  0.17097031880E+03 0.  0.
        -24    2    5    5    0    0  0.20545509992E+02 -0.33980069702E+02 -0.45509419558E+02  0.98519634389E+02  0.77834747857E+02 0.  0.
          5    1    3    3  501    0 -0.43833766320E+02  0.10527395035E+01 -0.31342411471E+02  0.54101239238E+02  0.47000000000E+01 0. -1.
        -11    1    4    4    0    0 -0.17146351015E+02  0.38484992689E+02 -0.16955385120E+03  0.17471004686E+03  0.00000000000E+00 0.  1.
         12    1    4    4    0    0  0.81363053537E+01 -0.26251465455E+02 -0.35088618979E+03  0.35196087437E+03  0.00000000000E+00 0. -1.
         -5    1    5    5    0  502  0.32298301990E+02  0.20693802965E+02  0.73572219045E+02  0.83104604011E+02  0.47000000000E+01 0.  1.
         11    1    6    6    0    0  0.99703625193E+01  0.25283488906E+02 -0.14000817682E+02  0.30572632137E+02  0.00000000000E+00 0. -1.
        -12    1    6    6    0    0  0.10575147472E+02 -0.59263558608E+02 -0.31508601876E+02  0.67947002252E+02  0.00000000000E+00 0.  1.
</event>
<event>
12    1  0.8562501E-002  0.1812178E+03  0.7818608E-02  0.1166976E+00
         21   -1    0    0  503  502  0.00000000000E+00  0.00000000000E+00  0.67846900921E+02  0.67846900921E+02  0.00000000000E+00 0.  1.
         21   -1    0    0  501  503 -0.00000000000E+00 -0.00000000000E+00 -0.57175835748E+03  0.57175835748E+03  0.00000000000E+00 0.  1.
          6    2    1    2  501    0 -0.17805489926E+02 -0.49336374319E+02 -0.38077531736E+03  0.42169861407E+03  0.17346113540E+03 0.  0.
         24    2    3    3    0    0  0.59401483261E+01 -0.99056983426E+02 -0.26980012765E+03  0.29770838447E+03  0.77398979153E+02 0.  0.
         -6    2    1    2    0  502  0.17805489926E+02  0.49336374319E+02 -0.12313613920E+03  0.21790664433E+03  0.17195837742E+03 0.  0.
        -24    2    5    5    0    0  0.58956401476E+02  0.26523646026E+02 -0.19479206804E+02  0.10397391099E+03  0.79068157907E+02 0.  0.
          5    1    3    3  501    0 -0.23745638252E+02  0.49720609107E+02 -0.11097518971E+03  0.12399022960E+03  0.47000000000E+01 0. -1.
        -11    1    4    4    0    0 -0.20967843122E+02 -0.60508995108E+01 -0.98981359611E+02  0.10135863742E+03  0.00000000000E+00 0.  1.
         12    1    4    4    0    0  0.26907991448E+02 -0.93006083915E+02 -0.17081876804E+03  0.19634974704E+03  0.00000000000E+00 0. -1.
         -5    1    5    5    0  502 -0.41150911550E+02  0.22812728293E+02 -0.10365693239E+03  0.11393273334E+03  0.47000000000E+01 0.  1.
         13    1    6    6    0    0  0.26826492393E+02 -0.18779790999E+02 -0.33337819583E+02  0.46730626559E+02  0.00000000000E+00 0. -1.
        -14    1    6    6    0    0  0.32129909083E+02  0.45303437025E+02  0.13858612779E+02  0.57243284428E+02  0.00000000000E+00 0.  1.
</event>
<event>
12    1  0.8562501E-002  0.2469492E+03  0.7818608E-02  0.1115526E+00
         21   -1    0    0  503  502  0.00000000000E+00  0.00000000000E+00  0.63496361124E+03  0.63496361124E+03  0.00000000000E+00 0.  1.
         21   -1    0    0  501  503 -0.00000000000E+00 -0.00000000000E+00 -0.11222210065E+03  0.11222210065E+03  0.00000000000E+00 0. -1.
          6    2    1    2  501    0  0.90820902320E+02  0.15158249804E+03  0.11583136514E+03  0.27120277505E+03  0.17002455716E+03 0.  0.
         24    2    3    3    0    0  0.66985213461E+02  0.23798281969E+02  0.85722473358E+02  0.13769029884E+03  0.80974680666E+02 0.  0.
         -6    2    1    2    0  502 -0.90820902320E+02 -0.15158249804E+03  0.40691014545E+03  0.47598293683E+03  0.17250565114E+03 0.  0.
        -24    2    5    5    0    0 -0.10393368140E+03 -0.17433020784E+03  0.37856621585E+03  0.43706158509E+03  0.80729287648E+02 0.  0.
          5    1    3    3  501    0  0.23835688859E+02  0.12778421607E+03  0.30108891783E+02  0.13351247621E+03  0.47000000000E+01 0. -1.
        -11    1    4    4    0    0  0.50223012778E+02  0.18483623579E+02  0.35242846854E+01  0.53632228516E+02  0.00000000000E+00 0.  1.
         12    1    4    4    0    0  0.16762200683E+02  0.53146583900E+01  0.82198188673E+02  0.84058070324E+02  0.00000000000E+00 0. -1.
         -5    1    5    5    0  502  0.13112779081E+02  0.22747709798E+02  0.28343929597E+02  0.38921351740E+02  0.47000000000E+01 0.  1.
         13    1    6    6    0    0 -0.89398756556E+02 -0.81605496708E+02  0.25126751232E+03  0.27890313285E+03  0.00000000000E+00 0. -1.
        -14    1    6    6    0    0 -0.14534924845E+02 -0.92724711129E+02  0.12729870353E+03  0.15815845224E+03  0.00000000000E+00 0.  1.
</event>
<event>
12    1  0.8562501E-002  0.1993193E+03  0.7818608E-02  0.1150331E+00
         21   -1    0    0  503  502  0.00000000000E+00  0.00000000000E+00  0.13226122988E+03  0.13226122988E+03  0.00000000000E+00 0. -1.
         21   -1    0    0  501  503 -0.00000000000E+00 -0.00000000000E+00 -0.30570162382E+03  0.30570162382E+03  0.00000000000E+00 0. -1.
          6    2    1    2  501    0 -0.55363767923E+02  0.84090223641E+02 -0.11592780557E+03  0.23051198010E+03  0.17193081269E+03 0.  0.
         24    2    3    3    0    0 -0.65174228485E+02  0.11344961014E+03 -0.12434226693E+03  0.19809112459E+03  0.81612500240E+02 0.  0.
         -6    2    1    2    0  502  0.55363767923E+02 -0.84090223641E+02 -0.57512588377E+02  0.20745087361E+03  0.17202283170E+03 0.  0.
        -24    2    5    5    0    0  0.59523310071E+02 -0.94048587839E+02  0.10853039870E+02  0.13807926606E+03  0.80993419016E+02 0.  0.
          5    1    3    3  501    0  0.98104605622E+01 -0.29359386500E+02  0.84144613580E+01  0.32420855511E+02  0.47000000000E+01 0. -1.
        -13    1    4    4    0    0 -0.16254525208E+02  0.48317350525E+01 -0.60713285614E+02  0.63036959821E+02  0.00000000000E+00 0.  1.
         14    1    4    4    0    0 -0.48919703277E+02  0.10861787509E+03 -0.63628981311E+02  0.13505416476E+03  0.00000000000E+00 0. -1.
         -5    1    5    5    0  502 -0.41595421478E+01  0.99583641981E+01 -0.68365628247E+02  0.69371607549E+02  0.47000000000E+01 0.  1.
         11    1    6    6    0    0  0.35718234127E+01 -0.18587210303E+02  0.36137971008E+02  0.40794549365E+02  0.00000000000E+00 0. -1.
        -12    1    6    6    0    0  0.55951486658E+02 -0.75461377537E+02 -0.25284931138E+02  0.97284716691E+02  0.00000000000E+00 0.  1.
</event>
<event>
12    1  0.8562501E-002  0.2209123E+03  0.7818608E-02  0.1133705E+00
         21   -1    0    0  503  502  0.00000000000E+00  0.00000000000E+00  0.61435210827E+02  0.61435210827E+02  0.00000000000E+00 0. -1.
         21   -1    0    0  501  503 -0.00000000000E+00 -0.00000000000E+00 -0.13637899465E+04  0.13637899465E+04  0.00000000000E+00 0. -1.
          6    2    1    2  501    0  0.62720045217E+02  0.10158499933E+03 -0.11177942778E+04  0.11394148863E+04  0.18587339631E+03 0.  0.
         24    2    3    3    0    0  0.59111465208E+02 -0.23652511128E+02 -0.43628992896E+03  0.44647352992E+03  0.70257413900E+02 0.  0.
         -6    2    1    2    0  502 -0.62720045217E+02 -0.10158499933E+03 -0.18456045782E+03  0.28581027099E+03  0.18267904162E+03 0.  0.
        -24    2    5    5    0    0 -0.11485032818E+02 -0.13507826484E+03 -0.13153477990E+03  0.20468914027E+03  0.78855578163E+02 0.  0.
          5    1    3    3  501    0  0.36085800093E+01  0.12523751046E+03 -0.68150434887E+03  0.69294135640E+03  0.47000000000E+01 0. -1.
        -13    1    4    4    0    0 -0.96738464633E+01 -0.20052868331E+02 -0.61483015257E+02  0.65390075690E+02  0.00000000000E+00 0.  1.
         14    1    4    4    0    0  0.68785311671E+02 -0.35996427968E+01 -0.37480691370E+03  0.38108345423E+03  0.00000000000E+00 0. -1.
         -5    1    5    5    0  502 -0.51235012399E+02  0.33493265511E+02 -0.53025677920E+02  0.81121130718E+02  0.47000000000E+01 0.  1.
         11    1    6    6    0    0  0.31003988654E+02 -0.55106006971E+02 -0.74288771158E+02  0.97553784329E+02  0.00000000000E+00 0. -1.
        -12    1    6    6    0    0 -0.42489021471E+02 -0.79972257874E+02 -0.57246008745E+02  0.10713535594E+03  0.00000000000E+00 0.  1.
</event>
<event>
12    1  0.8562501E-002  0.2112787E+03  0.7818608E-02  0.1141284E+00
         21   -1    0    0  503  502  0.00000000000E+00  0.00000000000E+00  0.39061414773E+03  0.39061414773E+03  0.00000000000E+00 0.  1.
         21   -1    0    0  501  503 -0.00000000000E+00 -0.00000000000E+00 -0.11561560387E+03  0.11561560387E+03  0.00000000000E+00 0.  1.
          6    2    1    2  501    0  0.98273647091E+02 -0.70019182207E+02  0.95840425285E+02  0.23200019163E+03  0.17343098399E+03 0.  0.
         24    2    3    3    0    0  0.69036952860E+02 -0.11602417600E+03  0.80552589680E+02  0.17519304718E+03  0.77305716476E+02 0.  0.
         -6    2    1    2    0  502 -0.98273647091E+02  0.70019182207E+02  0.17915811857E+03  0.27422955997E+03  0.16894917734E+03 0.  0.
        -24    2    5    5    0    0 -0.54333727849E+02  0.39824240580E+02  0.19362318423E+03  0.21878788677E+03  0.76420401761E+02 0.  0.
          5    1    3    3  501    0  0.29236694231E+02  0.46004993791E+02  0.15287835606E+02  0.56807144452E+02  0.47000000000E+01 0. -1.
        -13    1    4    4    0    0  0.73583577419E+01 -0.77092426709E+02  0.63842345085E+02  0.10036549562E+03  0.00000000000E+00 0.  1.
         14    1    4    4    0    0  0.61678595118E+02 -0.38931749289E+02  0.16710244595E+02  0.74827551563E+02  0.00000000000E+00 0. -1.
         -5    1    5    5    0  502 -0.43939919243E+02  0.30194941627E+02 -0.14465065661E+02  0.55441673202E+02  0.47000000000E+01 0.  1.
         11    1    6    6    0    0  0.11145161384E+02 -0.13443853389E+02  0.33561871550E+02  0.37833200210E+02  0.00000000000E+00 0. -1.
        -12    1    6    6    0    0 -0.65478889233E+02  0.53268093969E+02  0.16006131268E+03  0.18095468656E+03  0.00000000000E+00 0.  1.
</event>
<event>
12    1  0.8562501E-002  0.2200671E+03  0.7818608E-02  0.1134103E+00
         21   -1    0    0  501  502  0.00000000000E+00  0.00000000000E+00  0.14474493120E+03  0.14474493120E+03  0.00000000000E+00 0.  1.
         21   -1    0    0  502  503 -0.00000000000E+00 -0.00000000000E+00 -0.34541359669E+03  0.34541359669E+03  0.00000000000E+00 0. -1.
         -6    2    1    2    0  503  0.55122091288E+02  0.12734367373E+03 -0.53069474246E+02  0.22637559229E+03  0.17080598204E+03 0.  0.
        -24    2    3    3    0    0 -0.19952997992E+02  0.24286705853E+02  0.56952370747E+01  0.85903570321E+02  0.79743472827E+02 0.  0.
          6    2    1    2  501    0 -0.55122091288E+02 -0.12734367373E+03 -0.14759919125E+03  0.26378293561E+03  0.16894099465E+03 0.  0.
         24    2    5    5    0    0 -0.11325082197E+02 -0.67200999727E+01 -0.20948180297E+02  0.83419987292E+02  0.79665869678E+02 0.  0.
          5    1    5    5  501    0 -0.43797009090E+02 -0.12062357376E+03 -0.12665101095E+03  0.18036294832E+03  0.47000000000E+01 0. -1.
        -13    1    6    6    0    0 -0.33225761467E+02 -0.22261140652E+02  0.11198749347E+02  0.41532175420E+02  0.00000000000E+00 0.  1.
         14    1    6    6    0    0  0.21900679270E+02  0.15541040680E+02 -0.32146929644E+02  0.41887811872E+02  0.00000000000E+00 0. -1.
         -5    1    3    3    0  503  0.75075089280E+02  0.10305696788E+03 -0.58764711321E+02  0.14047202196E+03  0.47000000000E+01 0.  1.
         13    1    4    4    0    0 -0.37775500423E+01 -0.16770244954E+02  0.30698503405E+02  0.35183932575E+02  0.00000000000E+00 0. -1.
        -14    1    4    4    0    0 -0.16175447950E+02  0.41056950806E+02 -0.25003266330E+02  0.50719637746E+02  0.00000000000E+00 0.  1.
</event>
<event>
12    1  0.8562501E-002  0.2007276E+03  0.7818608E-02  0.1149230E+00
         21   -1    0    0  501  502  0.00000000000E+00  0.00000000000E+00  0.64109809989E+02  0.64109809989E+02  0.00000000000E+00 0. -1.
         21   -1    0    0  502  503 -0.00000000000E+00 -0.00000000000E+00 -0.78923727720E+03  0.78923727720E+03  0.00000000000E+00 0.  1.
         -6    2    1    2    0  503  0.10320671050E+03  0.12904679889E+01 -0.55569664700E+03  0.59067165066E+03  0.17158363850E+03 0.  0.
        -24    2    3    3    0    0  0.11104792558E+03 -0.27254635129E+02 -0.53858804501E+03  0.55615930753E+03  0.78496090431E+02 0.  0.
          6    2    1    2  501    0 -0.10320671050E+03 -0.12904679889E+01 -0.16943082020E+03  0.26267543653E+03  0.17215775243E+03 0.  0.
         24    2    5    5    0    0 -0.35008401791E+02  0.52487635985E+02 -0.13335361650E+03  0.16851202323E+03  0.81440621372E+02 0.  0.
          5    1    5    5  501    0 -0.68198308710E+02 -0.53778103974E+02 -0.36077203698E+02  0.94163413302E+02  0.47000000000E+01 0. -1.
        -13    1    6    6    0    0 -0.92881136794E+00 -0.68087641204E+01  0.85605904474E+01  0.10977507377E+02  0.00000000000E+00 0.  1.
         14    1    6    6    0    0 -0.34079590423E+02  0.59296400106E+02 -0.14191420695E+03  0.15753451585E+03  0.00000000000E+00 0. -1.
         -5    1    3    3    0  503 -0.78412150813E+01  0.28545103118E+02 -0.17108601993E+02  0.34512343127E+02  0.47000000000E+01 0.  1.
         13    1    4    4    0    0  0.42895378055E+02 -0.46304148035E+02 -0.32745185654E+03  0.33347984337E+03  0.00000000000E+00 0. -1.
        -14    1    4    4    0    0  0.68152547527E+02  0.19049512906E+02 -0.21113618847E+03  0.22267946416E+03  0.00000000000E+00 0.  1.
</event>
<event>
12    1  0.8562501E-002  0.1829361E+03  0.7818608E-02  0.1165656E+00
         21   -1    0    0  503  502  0.00000000000E+00  0.00000000000E+00  0.45710725220E+03  0.45710725220E+03  0.00000000000E+00 0. -1.
         21   -1    0    0  501  503 -0.00000000000E+00 -0.00000000000E+00 -0.17581307334E+03  0.17581307334E+03  0.00000000000E+00 0.  1.
          6    2    1    2  501    0  0.13212233399E+02 -0.48436690843E+02 -0.10284678868E+03  0.20744422966E+03  0.17301725448E+03 0.  0.
         24    2    3    3    0    0  0.58200792103E+02 -0.45216634074E+02 -0.11735660350E+03  0.15983158527E+03  0.79634710197E+02 0.  0.
         -6    2    1    2    0  502 -0.13212233399E+02  0.48436690843E+02  0.38414096755E+03  0.42547609588E+03  0.17591176505E+03 0.  0.
        -24    2    5    5    0    0  0.33693874431E+01  0.15330770195E+02  0.37844486885E+03  0.38772046488E+03  0.82826655381E+02 0.  0.
          5    1    3    3  501    0 -0.44988558704E+02 -0.32200567693E+01  0.14509814816E+02  0.47612644390E+02  0.47000000000E+01 0. -1.
        -11    1    4    4    0    0  0.60977219639E+00 -0.27250552500E+02 -0.89170733437E+02  0.93243681477E+02  0.00000000000E+00 0.  1.
         12    1    4    4    0    0  0.57591019906E+02 -0.17966081574E+02 -0.28185870061E+02  0.66587903797E+02  0.00000000000E+00 0. -1.
         -5    1    5    5    0  502 -0.16581620842E+02  0.33105920649E+02  0.56960987018E+01  0.37755631000E+02  0.47000000000E+01 0.  1.
         13    1    6    6    0    0 -0.26864632113E+02 -0.13812630946E+02  0.26565386829E+03  0.26736580740E+03  0.00000000000E+00 0. -1.
        -14    1    6    6    0    0  0.30234019556E+02  0.29143401140E+02  0.11279100056E+03  0.12035465748E+03  0.00000000000E+00 0.  1.
</event>
<event>
12    1  0.8562501E-002  0.1983086E+03  0.7818608E-02  0.1151364E+00
         21   -1    0    0  503  502  0.00000000000E+00  0.00000000000E+00  0.12188898205E+04  0.12188898205E+04  0.00000000000E+00 0. -1.
         21   -1    0    0  501  503 -0.00000000000E+00 -0.00000000000E+00 -0.32355445742E+02  0.32355445742E+02  0.00000000000E+00 0.  1.
          6    2    1    2  501    0  0.81089993252E+02 -0.58695905534E+02  0.54120486921E+03  0.57639309338E+03  0.17118846721E+03 0.  0.
         24    2    3    3    0    0  0.70233630637E+02 -0.29383037591E+00  0.16836944464E+03  0.19882587180E+03  0.79060788020E+02 0.  0.
         -6    2    1    2    0  502 -0.81089993252E+02  0.58695905534E+02  0.64532950555E+03  0.67485217286E+03  0.17016018381E+03 0.  0.
        -24    2    5    5    0    0 -0.42926766691E+01  0.43818677009E+02  0.16829540597E+03  0.19142401695E+03  0.79883083745E+02 0.  0.
          5    1    3    3  501    0  0.10856362615E+02 -0.58402075158E+02  0.37283542458E+03  0.37756722158E+03  0.47000000000E+01 0. -1.
        -11    1    4    4    0    0  0.29472151890E+02  0.32145568538E+02  0.12022817772E+03  0.12789354961E+03  0.00000000000E+00 0.  1.
         12    1    4    4    0    0  0.40761478747E+02 -0.32439398914E+02  0.48141266914E+02  0.70932322192E+02  0.00000000000E+00 0. -1.
         -5    1    5    5    0  502 -0.76797316583E+02  0.14877228525E+02  0.47703409958E+03  0.48342815591E+03  0.47000000000E+01 0.  1.
         11    1    6    6    0    0  0.19164872637E+02  0.19819152838E+02  0.15132844917E+03  0.15381934433E+03  0.00000000000E+00 0. -1.
        -12    1    6    6    0    0 -0.23457549307E+02  0.23999524171E+02  0.16966956796E+02  0.37604672620E+02  0.00000000000E+00 0.  1.
</event>
<event>
12    1  0.8562501E-002  0.2914169E+03  0.7818608E-02  0.1089650E+00
         21   -1    0    0  503  502  0.00000000000E+00  0.00000000000E+00  0.73460863827E+03  0.73460863827E+03  0.00000000000E+00 0.  1.
         21   -1    0    0  501  503 -0.00000000000E+00 -0.00000000000E+00 -0.24640770312E+03  0.24640770312E+03  0.00000000000E+00 0.  1.
          6    2    1    2  501    0  0.10330939261E+03 -0.21113279449E+03 -0.11349599677E+03  0.31246343228E+03  0.17176195073E+03 0.  0.
         24    2    3    3    0    0  0.84295754765E+01 -0.15833742182E+03 -0.98445377011E+02  0.20274496424E+03  0.79197420274E+02 0.  0.
         -6    2    1    2    0  502 -0.10330939261E+03  0.21113279449E+03  0.60169693192E+03  0.66855290912E+03  0.17226115900E+03 0.  0.
        -24    2    5    5    0    0 -0.85413202665E+02  0.18007910847E+03  0.32582541843E+03  0.39032317133E+03  0.80411903916E+02 0.  0.
          5    1    3    3  501    0  0.94879817131E+02 -0.52795372664E+02 -0.15050619761E+02  0.10971846804E+03  0.47000000000E+01 0. -1.
        -11    1    4    4    0    0  0.28696580129E+02 -0.15380416956E+03 -0.86087552660E+02  0.17857850657E+03  0.00000000000E+00 0.  1.
         12    1    4    4    0    0 -0.20267004652E+02 -0.45332522590E+01 -0.12357824351E+02  0.24166457670E+02  0.00000000000E+00 0. -1.
         -5    1    5    5    0  502 -0.17896189942E+02  0.31053686020E+02  0.27587151349E+03  0.27822973778E+03  0.47000000000E+01 0.  1.
         13    1    6    6    0    0  0.99944117772E+01  0.60380550036E+02  0.79808578238E+02  0.10057389447E+03  0.00000000000E+00 0. -1.
        -14    1    6    6    0    0 -0.95407614443E+02  0.11969855843E+03  0.24601684019E+03  0.28974927686E+03  0.00000000000E+00 0.  1.
</event>
<event>
12    1  0.8562501E-002  0.2898953E+03  0.7818608E-02  0.1090643E+00
         21   -1    0    0  501  502  0.00000000000E+00  0.00000000000E+00  0.11891075867E+04  0.11891075867E+04  0.00000000000E+00 0.  1.
         21   -1    0    0  502  503 -0.00000000000E+00 -0.00000000000E+00 -0.71038046493E+02  0.71038046493E+02  0.00000000000E+00 0.  1.
         -6    2    1    2    0  503  0.16955215776E+03 -0.15963976022E+03  0.49357049534E+03  0.57240819741E+03  0.17264565833E+03 0.  0.
        -24    2    3    3    0    0  0.79047113606E+02 -0.34427212990E+02  0.32538318384E+03  0.34398226465E+03  0.70823039401E+02 0.  0.
          6    2    1    2  501    0 -0.16955215776E+03  0.15963976022E+03  0.62449904485E+03  0.68773743577E+03  0.16956101055E+03 0.  0.
         24    2    5    5    0    0 -0.99278283662E+02  0.13541276992E+03  0.55632963784E+03  0.58676950773E+03  0.81258805093E+02 0.  0.
          5    1    5    5  501    0 -0.70273874099E+02  0.24226990302E+02  0.68169407010E+02  0.10096792804E+03  0.47000000000E+01 0. -1.
        -13    1    6    6    0    0 -0.76133401302E+02  0.12177199251E+03  0.34439516871E+03  0.37313904270E+03  0.00000000000E+00 0.  1.
         14    1    6    6    0    0 -0.23144882360E+02  0.13640777411E+02  0.21193446912E+03  0.21363046503E+03  0.00000000000E+00 0. -1.
         -5    1    3    3    0  503  0.90505044156E+02 -0.12521254723E+03  0.16818731151E+03  0.22842593275E+03  0.47000000000E+01 0.  1.
         13    1    4    4    0    0  0.61114233450E+02 -0.56187998711E+02  0.23031749809E+03  0.24482277398E+03  0.00000000000E+00 0. -1.
        -14    1    4    4    0    0  0.17932880156E+02  0.21760785721E+02  0.95065685743E+02  0.99159490679E+02  0.00000000000E+00 0.  1.
</event>
<event>
12    1  0.8562501E-002  0.1898827E+03  0.7818608E-02  0.1158816E+00
         21   -1    0    0  501  502  0.00000000000E+00  0.00000000000E+00  0.56616264547E+03  0.56616264547E+03  0.00000000000E+00 0.  1.
         21   -1    0    0  502  503 -0.00000000000E+00 -0.00000000000E+00 -0.65400856200E+02  0.65400856200E+02  0.00000000000E+00 0.  1.
         -6    2    1    2    0  503  0.38603488551E+01  0.77570340489E+02  0.19330422691E+03  0.27019723420E+03  0.17206964058E+03 0.  0.
        -24    2    3    3    0    0  0.40560366788E+02  0.38421492598E+02  0.19457713118E+03  0.21631556855E+03  0.76228674216E+02 0.  0.
          6    2    1    2  501    0 -0.38603488551E+01 -0.77570340489E+02  0.30745756236E+03  0.36136626747E+03  0.17327252119E+03 0.  0.
         24    2    5    5    0    0 -0.21250108948E+01 -0.93805190272E+02  0.11746322804E+03  0.17061376075E+03  0.80669176419E+02 0.  0.
          5    1    5    5  501    0 -0.17353379603E+01  0.16234849782E+02  0.18999433432E+03  0.19075250672E+03  0.47000000000E+01 0. -1.
        -13    1    6    6    0    0  0.37951049867E+02 -0.40317214458E+02  0.66690154659E+02  0.86679505629E+02  0.00000000000E+00 0.  1.
         14    1    6    6    0    0 -0.40076060762E+02 -0.53487975814E+02  0.50773073377E+02  0.83934255123E+02  0.00000000000E+00 0. -1.
         -5    1    3    3    0  503 -0.36700017933E+02  0.39148847891E+02 -0.12729042683E+01  0.53881665646E+02  0.47000000000E+01 0.  1.
         13    1    4    4    0    0  0.58318587562E+02  0.41584709458E+02  0.12146261043E+03  0.14100890556E+03  0.00000000000E+00 0. -1.
        -14    1    4    4    0    0 -0.17758220774E+02 -0.31632168596E+01  0.73114520753E+02  0.75306662991E+02  0.00000000000E+00 0.  1.
</event>
<event>
12    1  0.8562501E-002  0.2444696E+03  0.7818608E-02  0.1116992E+00
         21   -1    0    0  501  502  0.00000000000E+00  0.00000000000E+00  0.30763765789E+03  0.30763765789E+03  0.00000000000E+00 0.  1.
         21   -1    0    0  502  503 -0.00000000000E+00 -0.00000000000E+00 -0.27221119993E+03  0.27221119993E+03  0.00000000000E+00 0.  1.
         -6    2    1    2    0  503  0.16981819175E+03  0.23631568246E+02 -0.13813053734E+03  0.28003654019E+03  0.17304262257E+03 0.  0.
        -24    2    3    3    0    0  0.12721601206E+03  0.14970457023E+02 -0.16820526076E+03  0.22696546002E+03  0.82536549398E+02 0.  0.
          6    2    1    2  501    0 -0.16981819175E+03 -0.23631568246E+02  0.17355699529E+03  0.29981231763E+03  0.17426625010E+03 0.  0.
         24    2    5    5    0    0 -0.15593492413E+03  0.22905623519E+01  0.19578502290E+03  0.26265216174E+03  0.79582885338E+02 0.  0.
          5    1    5    5  501    0 -0.13883267620E+02 -0.25922130598E+02 -0.22228027605E+02  0.37160155890E+02  0.47000000000E+01 0. -1.
        -13    1    6    6    0    0 -0.85344988877E+02 -0.25684806387E+02  0.61168648050E+02  0.10809754812E+03  0.00000000000E+00 0.  1.
         14    1    6    6    0    0 -0.70589935251E+02  0.27975368739E+02  0.13461637485E+03  0.15455461362E+03  0.00000000000E+00 0. -1.
         -5    1    3    3    0  503  0.42602179686E+02  0.86611112224E+01  0.30074723417E+02  0.53071080168E+02  0.47000000000E+01 0.  1.
         13    1    4    4    0    0 -0.22349654440E+01 -0.61128686771E+01 -0.49939349169E+02  0.50361700026E+02  0.00000000000E+00 0. -1.
        -14    1    4    4    0    0  0.12945097751E+03  0.21083325700E+02 -0.11826591159E+03  0.17660375999E+03  0.00000000000E+00 0.  1.
</event>
<event>
12    1  0.8562501E-002  0.1926974E+03  0.7818608E-02  0.1156069E+00
         21   -1    0    0  503  502  0.00000000000E+00  0.00000000000E+00  0.99811048334E+03  0.99811048334E+03  0.00000000000E+00 0.  1.
         21   -1    0    0  501  503 -0.00000000000E+00 -0.00000000000E+00 -0.38380435707E+02  0.38380435707E+02  0.00000000000E+00 0.  1.
          6    2    1    2  501    0 -0.50791054887E+02 -0.59821634540E+02  0.38837231916E+03  0.43351336580E+03  0.17590457875E+03 0.  0.
         24    2    3    3    0    0 -0.86464381576E+02 -0.15161520281E+01  0.29861232266E+03  0.32059276317E+03  0.78307167946E+02 0.  0.
         -6    2    1    2    0  502  0.50791054887E+02  0.59821634540E+02  0.57135772848E+03  0.60297755325E+03  0.17599408120E+03 0.  0.
        -24    2    5    5    0    0 -0.24543052517E+02 -0.77698469443E+01  0.17448906362E+03  0.19337938033E+03  0.79286943869E+02 0.  0.
          5    1    3    3  501    0  0.35673326689E+02 -0.58305482512E+02  0.89759996499E+02  0.11292060264E+03  0.47000000000E+01 0. -1.
        -11    1    4    4    0    0 -0.37607850919E+02  0.38002133339E+02  0.12480082132E+03  0.13577097477E+03  0.00000000000E+00 0.  1.
         12    1    4    4    0    0 -0.48856530656E+02 -0.39518285367E+02  0.17381150134E+03  0.18482178839E+03  0.00000000000E+00 0. -1.
         -5    1    5    5    0  502  0.75334107404E+02  0.67591481484E+02  0.39686866486E+03  0.40959817291E+03  0.47000000000E+01 0.  1.
         11    1    6    6    0    0 -0.13196928846E+02  0.27879451715E+02  0.13695274347E+03  0.14038332060E+03  0.00000000000E+00 0. -1.
        -12    1    6    6    0    0 -0.11346123670E+02 -0.35649298659E+02  0.37536320151E+02  0.52996059738E+02  0.00000000000E+00 0.  1.
</event>
<event>
12    1  0.8562501E-002  0.1768849E+03  0.7818608E-02  0.1171241E+00
         21   -1    0    0  501  502  0.00000000000E+00  0.00000000000E+00  0.37807836098E+02  0.37807836098E+02  0.00000000000E+00 0.  1.
         21   -1    0    0  502  503 -0.00000000000E+00 -0.00000000000E+00 -0.89536342424E+03  0.89536342424E+03  0.00000000000E+00 0.  1.
         -6    2    1    2    0  503  0.33555336918E+02 -0.97021455536E+01 -0.56216137641E+03  0.58886613902E+03  0.17180752106E+03 0.  0.
        -24    2    3    3    0    0  0.40816846701E+02 -0.61929501898E+02 -0.24953092964E+03  0.27178521477E+03  0.78104032813E+02 0.  0.
          6    2    1    2  501    0 -0.33555336918E+02  0.97021455536E+01 -0.29539421174E+03  0.34430512132E+03  0.17340179923E+03 0.  0.
         24    2    5    5    0    0 -0.33101641601E+02  0.70955098761E+02 -0.15826481451E+03  0.19404304460E+03  0.80464942241E+02 0.  0.
          5    1    5    5  501    0 -0.45369531711E+00 -0.61252953207E+02 -0.13712939723E+03  0.15026207672E+03  0.47000000000E+01 0. -1.
        -13    1    6    6    0    0 -0.56506219394E+02  0.51699740636E+02 -0.13721548317E+03  0.15714294395E+03  0.00000000000E+00 0.  1.
         14    1    6    6    0    0  0.23404577794E+02  0.19255358125E+02 -0.21049331339E+02  0.36900100651E+02  0.00000000000E+00 0. -1.
         -5    1    3    3    0  503 -0.72615097833E+01  0.52227356344E+02 -0.31263044677E+03  0.31708092425E+03  0.47000000000E+01 0.  1.
         13    1    4    4    0    0 -0.56874360050E+01 -0.54866134596E+02 -0.17648745606E+03  0.18490662995E+03  0.00000000000E+00 0. -1.
        -14    1    4    4    0    0  0.46504282706E+02 -0.70633673018E+01 -0.73043473583E+02  0.86878584822E+02  0.00000000000E+00 0.  1.
</event>
<event>
12    1  0.8562501E-002  0.2483350E+03  0.7818608E-02  0.1114490E+00
         21   -1    0    0  503  502  0.00000000000E+00  0.00000000000E+00  0.42700963473E+02  0.42700963473E+02  0.00000000000E+00 0.  1.
         21   -1    0    0  501  503 -0.00000000000E+00 -0.00000000000E+00 -0.14922905570E+04  0.14922905570E+04  0.00000000000E+00 0. -1.
          6    2    1    2  501    0  0.14505317213E+03  0.10365789095E+03 -0.57940871703E+03  0.63006885695E+03  0.17171756471E+03 0.  0.
         24    2    3    3    0    0  0.14014103721E+03  0.88899527295E+02 -0.31366876933E+03  0.36383259314E+03  0.80270933165E+02 0.  0.
         -6    2    1    2    0  502 -0.14505317213E+03 -0.10365789095E+03 -0.87018087646E+03  0.90492266348E+03  0.17287246175E+03 0.  0.
        -24    2    5    5    0    0 -0.94574890323E+01 -0.81778063919E+01 -0.20933631068E+03  0.22357087040E+03  0.77497887102E+02 0.  0.
          5    1    3    3  501    0  0.49121349196E+01  0.14758363650E+02 -0.26573994770E+03  0.26623626381E+03  0.47000000000E+01 0. -1.
        -11    1    4    4    0    0  0.33169845389E+02  0.64941753490E+02 -0.15083693965E+03  0.16753940537E+03  0.00000000000E+00 0.  1.
         12    1    4    4    0    0  0.10697119182E+03  0.23957773805E+02 -0.16283182968E+03  0.19629318776E+03  0.00000000000E+00 0. -1.
         -5    1    5    5    0  502 -0.13559568310E+03 -0.95480084554E+02 -0.66084456577E+03  0.68135179308E+03  0.47000000000E+01 0.  1.
         13    1    6    6    0    0  0.21431894533E+01 -0.12287675250E+02 -0.21080739152E+03  0.21117607947E+03  0.00000000000E+00 0. -1.
        -14    1    6    6    0    0 -0.11600678486E+02  0.41098688579E+01  0.14710808315E+01  0.12394790929E+02  0.00000000000E+00 0.  1.
</event>
<event>
12    1  0.8562501E-002  0.1822039E+03  0.7818608E-02  0.1166416E+00
         21   -1    0    0  503  502  0.00000000000E+00  0.00000000000E+00  0.13367192454E+03  0.13367192454E+03  0.00000000000E+00 0. -1.
         21   -1    0    0  501  503 -0.00000000000E+00 -0.00000000000E+00 -0.24818901525E+03  0.24818901525E+03  0.00000000000E+00 0. -1.
          6    2    1    2  501    0  0.56111870985E+02 -0.55227891941E+01 -0.33642020067E+02  0.18528369161E+03  0.17326054830E+03 0.  0.
         24    2    3    3    0    0  0.16938056364E+02 -0.63156692124E+02  0.93926841527E+01  0.10324510138E+03  0.79345213660E+02 0.  0.
         -6    2    1    2    0  502 -0.56111870985E+02  0.55227891941E+01 -0.80875070650E+02  0.19657724818E+03  0.17006702851E+03 0.  0.
        -24    2    5    5    0    0 -0.23147935631E+02 -0.62390656585E+02 -0.44599746681E+02  0.11269133589E+03  0.79257673625E+02 0.  0.
          5    1    3    3  501    0  0.39173814621E+02  0.57633902929E+02 -0.43034704219E+02  0.82038590225E+02  0.47000000000E+01 0. -1.
        -11    1    4    4    0    0  0.26489165727E+02 -0.79279357560E+02  0.37380821440E+01  0.83671176006E+02  0.00000000000E+00 0.  1.
         12    1    4    4    0    0 -0.95511093628E+01  0.16122665437E+02  0.56546020087E+01  0.19573925378E+02  0.00000000000E+00 0. -1.
         -5    1    5    5    0  502 -0.32963935354E+02  0.67913445779E+02 -0.36275323969E+02  0.83885912290E+02  0.47000000000E+01 0.  1.
         13    1    6    6    0    0 -0.37427902962E+02 -0.29338144384E+02 -0.57343418008E+02  0.74497263204E+02  0.00000000000E+00 0. -1.
        -14    1    6    6    0    0  0.14279967331E+02 -0.33052512201E+02  0.12743671327E+02  0.38194072690E+02  0.00000000000E+00 0.  1.
</event>
<event>
12    1  0.8562501E-002  0.1901340E+03  0.7818608E-02  0.1158437E+00
         21   -1    0    0  501  502  0.00000000000E+00  0.00000000000E+00  0.36588481501E+03  0.36588481501E+03  0.00000000000E+00 0. -1.
         21   -1    0    0  502  503 -0.00000000000E+00 -0.00000000000E+00 -0.99617199560E+02  0.99617199560E+02  0.00000000000E+00 0.  1.
         -6    2    1    2    0  503 -0.52383781916E+02 -0.64076737988E+02  0.15671861531E+03  0.24606653510E+03  0.17069893483E+03 0.  0.
        -24    2    3    3    0    0 -0.81965791596E+02 -0.30941733152E+01  0.12945193788E+03  0.17285772286E+03  0.79962636485E+02 0.  0.
          6    2    1    2  501    0  0.52383781916E+02  0.64076737988E+02  0.10954900013E+03  0.21943547946E+03  0.17117551594E+03 0.  0.
         24    2    5    5    0    0  0.96329479288E+02  0.17403337169E+02  0.83168153976E+02  0.14995404521E+03  0.77375894927E+02 0.  0.
          5    1    5    5  501    0 -0.43945697372E+02  0.46673400819E+02  0.26380846157E+02  0.69481434250E+02  0.47000000000E+01 0. -1.
        -11    1    6    6    0    0  0.69880637074E+02  0.45329165073E+02  0.40864709687E+02  0.92779098627E+02  0.00000000000E+00 0.  1.
         12    1    6    6    0    0  0.26448842214E+02 -0.27925827904E+02  0.42303444289E+02  0.57174946588E+02  0.00000000000E+00 0. -1.
         -5    1    3    3    0  503  0.29582009680E+02 -0.60982564673E+02  0.27266677437E+02  0.73208812238E+02  0.47000000000E+01 0.  1.
         11    1    4    4    0    0 -0.87336110688E+02 -0.23426024926E+02  0.11876194888E+03  0.14926746255E+03  0.00000000000E+00 0. -1.
        -12    1    4    4    0    0  0.53703190921E+01  0.20331851611E+02  0.10689988999E+02  0.23590260318E+02  0.00000000000E+00 0.  1.
</event>
<event>
12    1  0.8562501E-002  0.1853899E+03  0.7818608E-02  0.1163037E+00
         21   -1    0    0  501  502  0.00000000000E+00  0.00000000000E+00  0.22325654200E+03  0.22325654200E+03  0.00000000000E+00 0. -1.
         21   -1    0    0  502  503 -0.00000000000E+00 -0.00000000000E+00 -0.17967825635E+03  0.17967825635E+03  0.00000000000E+00 0. -1.
         -6    2    1    2    0  503 -0.65924429590E+02 -0.91106342648E+01 -0.56346898123E+02  0.19232980047E+03  0.17142562571E+03 0.  0.
        -24    2    3    3    0    0 -0.77078281203E+02 -0.24479021782E+02  0.29668675008E+02  0.10411775729E+03  0.58480707645E+02 0.  0.
          6    2    1    2  501    0  0.65924429590E+02  0.91106342648E+01  0.99925183773E+02  0.21060499788E+03  0.17303291221E+03 0.  0.
         24    2    5    5    0    0  0.29869129379E+02 -0.61802767852E+02  0.54186794055E+02  0.11872036605E+03  0.80290532825E+02 0.  0.
          5    1    5    5  501    0  0.36055300211E+02  0.70913402117E+02  0.45738389718E+02  0.91884631833E+02  0.47000000000E+01 0. -1.
        -11    1    6    6    0    0  0.49319934101E+02 -0.60284000132E+02  0.21750130730E+02  0.80868317396E+02  0.00000000000E+00 0.  1.
         12    1    6    6    0    0 -0.19450804722E+02 -0.15187677203E+01  0.32436663325E+02  0.37852048655E+02  0.00000000000E+00 0. -1.
         -5    1    3    3    0  503  0.11153851613E+02  0.15368387517E+02 -0.86015573132E+02  0.88212043179E+02  0.47000000000E+01 0.  1.
         11    1    4    4    0    0 -0.29938261190E+02 -0.40054259396E+02  0.17724802904E+02  0.53054800129E+02  0.00000000000E+00 0. -1.
        -12    1    4    4    0    0 -0.47140020013E+02  0.15575237614E+02  0.11943872104E+02  0.51062957165E+02  0.00000000000E+00 0.  1.
</event>
<event>
12    1  0.8562501E-002  0.2781980E+03  0.7818608E-02  0.1096915E+00
         21   -1    0    0  501  502  0.00000000000E+00  0.00000000000E+00  0.17949845339E+04  0.17949845339E+04  0.00000000000E+00 0.  1.
         21   -1    0    0  502  503 -0.00000000000E+00 -0.00000000000E+00 -0.43421316410E+02  0.43421316410E+02  0.00000000000E+00 0.  1.
         -6    2    1    2    0  503 -0.21655324095E+03  0.82158961535E+01  0.97845959000E+03  0.10167713058E+04  0.17169132728E+03 0.  0.
        -24    2    3    3    0    0 -0.53581492292E+02  0.98496164439E+01  0.55140909295E+03  0.55965351249E+03  0.78689738829E+02 0.  0.
          6    2    1    2  501    0  0.21655324095E+03 -0.82158961535E+01  0.77310362752E+03  0.82163454456E+03  0.17444569019E+03 0.  0.
         24    2    5    5    0    0  0.15401284328E+03 -0.43994113791E+02  0.68253966866E+03  0.70581009619E+03  0.81560128972E+02 0.  0.
          5    1    5    5  501    0  0.62540397674E+02  0.35778217637E+02  0.90563958854E+02  0.11582444838E+03  0.47000000000E+01 0. -1.
        -11    1    6    6    0    0  0.85072406474E+02  0.24852426495E-02  0.21586911034E+03  0.23202755687E+03  0.00000000000E+00 0.  1.
         12    1    6    6    0    0  0.68940436802E+02 -0.43996599033E+02  0.46667055832E+03  0.47378253931E+03  0.00000000000E+00 0. -1.
         -5    1    3    3    0  503 -0.16297174866E+03 -0.16337202904E+01  0.42705049705E+03  0.45711779328E+03  0.47000000000E+01 0.  1.
         13    1    4    4    0    0 -0.82553970844E+01 -0.16288597045E+02  0.26731606344E+02  0.32373581087E+02  0.00000000000E+00 0. -1.
        -14    1    4    4    0    0 -0.45326095208E+02  0.26138213489E+02  0.52467748661E+03  0.52727993140E+03  0.00000000000E+00 0.  1.
</event>
<event>
12    1  0.8562501E-002  0.1845693E+03  0.7818608E-02  0.1164395E+00
         21   -1    0    0  501  502  0.00000000000E+00  0.00000000000E+00  0.51521207139E+02  0.51521207139E+02  0.00000000000E+00 0. -1.
         21   -1    0    0  502  503 -0.00000000000E+00 -0.00000000000E+00 -0.10000199023E+04  0.10000199023E+04  0.00000000000E+00 0. -1.
         -6    2    1    2    0  503  0.47599834706E+02  0.52409998218E+02 -0.78326876883E+03  0.80381800456E+03  0.16613508973E+03 0.  0.
        -24    2    3    3    0    0 -0.49912741453E+01  0.59716352552E+02 -0.68274582998E+03  0.69003681639E+03  0.80112321423E+02 0.  0.
          6    2    1    2  501    0 -0.47599834706E+02 -0.52409998218E+02 -0.16522992631E+03  0.24772310486E+03  0.17045015681E+03 0.  0.
         24    2    5    5    0    0  0.17062405073E+02 -0.68292170772E+02 -0.56817431146E+02  0.12040928878E+03  0.79468421949E+02 0.  0.
          5    1    5    5  501    0 -0.64662239779E+02  0.15882172555E+02 -0.10841249516E+03  0.12731381608E+03  0.47000000000E+01 0. -1.
        -11    1    6    6    0    0  0.16170969343E+02 -0.69238809051E+02 -0.74322523228E+02  0.10285596914E+03  0.00000000000E+00 0.  1.
         12    1    6    6    0    0  0.89143572918E+00  0.94663827847E+00  0.17505092082E+02  0.17553319643E+02  0.00000000000E+00 0. -1.
         -5    1    3    3    0  503  0.52591108851E+02 -0.73063543346E+01 -0.10052293886E+03  0.11378118816E+03  0.47000000000E+01 0.  1.
         13    1    4    4    0    0  0.51949469992E+01  0.29899383153E+01 -0.45734673338E+03  0.45738600956E+03  0.00000000000E+00 0. -1.
        -14    1    4    4    0    0 -0.10186221144E+02  0.56726414237E+02 -0.22539909659E+03  0.23265080683E+03  0.00000000000E+00 0.  1.
</event>
<event>
12    1  0.8562501E-002  0.1886464E+03  0.7818608E-02  0.1160221E+00
         21   -1    0    0  501  502  0.00000000000E+00  0.00000000000E+00  0.48329668994E+03  0.48329668994E+03  0.00000000000E+00 0.  1.
         21   -1    0    0  502  503 -0.00000000000E+00 -0.00000000000E+00 -0.15031732362E+03  0.15031732362E+03  0.00000000000E+00 0.  1.
         -6    2    1    2    0  503  0.21109277424E+02 -0.73044585778E+02 -0.60616658989E+02  0.19814603311E+03  0.17264517944E+03 0.  0.
        -24    2    3    3    0    0 -0.36390795206E+02  0.12603804201E+01 -0.49153388997E+02  0.10337798515E+03  0.83337108360E+02 0.  0.
          6    2    1    2  501    0 -0.21109277424E+02  0.73044585778E+02  0.39359602531E+03  0.43546798044E+03  0.17009825910E+03 0.  0.
         24    2    5    5    0    0  0.13076188637E+01  0.32098522375E+02  0.37477995464E+03  0.38491867913E+03  0.81672211582E+02 0.  0.
          5    1    5    5  501    0 -0.22416896288E+02  0.40946063402E+02  0.18816070673E+02  0.50549301310E+02  0.47000000000E+01 0. -1.
        -11    1    6    6    0    0 -0.12772327652E+02  0.57064843899E+02  0.22905638380E+03  0.23640295201E+03  0.00000000000E+00 0.  1.
         12    1    6    6    0    0  0.14079946516E+02 -0.24966321524E+02  0.14572357084E+03  0.14851572712E+03  0.00000000000E+00 0. -1.
         -5    1    3    3    0  503  0.57500072631E+02 -0.74304966198E+02 -0.11463269992E+02  0.94768047954E+02  0.47000000000E+01 0.  1.
         11    1    4    4    0    0 -0.62286302037E+02 -0.91750991435E+01 -0.32205013874E+02  0.70717245310E+02  0.00000000000E+00 0. -1.
        -12    1    4    4    0    0  0.25895506830E+02  0.10435479564E+02 -0.16948375124E+02  0.32660739842E+02  0.00000000000E+00 0.  1.
</event>
<event>
12    1  0.8562501E-002  0.2645000E+03  0.7818608E-02  0.1105034E+00
         21   -1    0    0  501  502  0.00000000000E+00  0.00000000000E+00  0.20252509216E+02  0.20252509216E+02  0.00000000000E+00 0.  1.
         21   -1    0    0  502  503 -0.00000000000E+00 -0.00000000000E+00 -0.34059978315E+04  0.34059978315E+04  0.00000000000E+00 0.  1.
         -6    2    1    2    0  503  0.15552480423E+03 -0.11775434191E+03 -0.17131775372E+04  0.17328976732E+04  0.17292490254E+03 0.  0.
        -24    2    3    3    0    0  0.82196786898E+02 -0.13917639959E+03 -0.13342964971E+04  0.13463632824E+04  0.78870552735E+02 0.  0.
          6    2    1    2  501    0 -0.15552480423E+03  0.11775434191E+03 -0.16725677851E+04  0.16933526676E+04  0.17862309828E+03 0.  0.
         24    2    5    5    0    0 -0.41016558602E+02  0.41947045643E+02 -0.10990520462E+04  0.11036058768E+04  0.81170304176E+02 0.  0.
          5    1    5    5  501    0 -0.11450824563E+03  0.75807296264E+02 -0.57351573890E+03  0.58974679079E+03  0.47000000000E+01 0. -1.
        -13    1    6    6    0    0 -0.60005805002E+02  0.46170263302E+02 -0.98510229648E+03  0.98800755280E+03  0.00000000000E+00 0.  1.
         14    1    6    6    0    0  0.18989246400E+02 -0.42232176583E+01 -0.11394974972E+03  0.11559832398E+03  0.00000000000E+00 0. -1.
         -5    1    3    3    0  503  0.73328017336E+02  0.21422057687E+02 -0.37888104007E+03  0.38653439071E+03  0.47000000000E+01 0.  1.
         13    1    4    4    0    0  0.24786561220E+02 -0.29194149271E+02 -0.63447376338E+03  0.63562853019E+03  0.00000000000E+00 0. -1.
        -14    1    4    4    0    0  0.57410225678E+02 -0.10998225032E+03 -0.69982273374E+03  0.71073475225E+03  0.00000000000E+00 0.  1.
</event>
<event>
12    1  0.8562501E-002  0.3041573E+03  0.7818608E-02  0.1083239E+00
         21   -1    0    0  503  502  0.00000000000E+00  0.00000000000E+00  0.13969668616E+04  0.13969668616E+04  0.00000000000E+00 0. -1.
         21   -1    0    0  501  503 -0.00000000000E+00 -0.00000000000E+00 -0.12301755765E+03  0.12301755765E+03  0.00000000000E+00 0. -1.
          6    2    1    2  501    0  0.58684752226E+02  0.24305639244E+03  0.12038334482E+03  0.32711440713E+03  0.17318018244E+03 0.  0.
         24    2    3    3    0    0  0.34782161856E+02  0.13852112957E+03  0.14315540459E+03  0.21738924266E+03  0.79791671520E+02 0.  0.
         -6    2    1    2    0  502 -0.58684752226E+02 -0.24305639244E+03  0.11535659591E+04  0.11928700121E+04  0.17234887215E+03 0.  0.
        -24    2    5    5    0    0  0.15759334449E+02 -0.19093408313E+03  0.89638259758E+03  0.92006233513E+03  0.79427693986E+02 0.  0.
          5    1    3    3  501    0  0.23902590371E+02  0.10453526288E+03 -0.22772059760E+02  0.10972516447E+03  0.47000000000E+01 0. -1.
        -13    1    4    4    0    0  0.15435338254E+02  0.95851279069E+01  0.60138813193E+02  0.62823571980E+02  0.00000000000E+00 0.  1.
         14    1    4    4    0    0  0.19346823601E+02  0.12893600166E+03  0.83016591392E+02  0.15456567068E+03  0.00000000000E+00 0. -1.
         -5    1    5    5    0  502 -0.74444086675E+02 -0.52122309318E+02  0.25718336152E+03  0.27280767696E+03  0.47000000000E+01 0.  1.
         13    1    6    6    0    0  0.23051588334E+02 -0.11857135887E+03  0.38417384963E+03  0.40271589192E+03  0.00000000000E+00 0. -1.
        -14    1    6    6    0    0 -0.72922538850E+01 -0.72362724258E+02  0.51220874795E+03  0.51734644321E+03  0.00000000000E+00 0.  1.
</event>
<event>
12    1  0.8562501E-002  0.2061612E+03  0.7818608E-02  0.1144719E+00
         21   -1    0    0  501  502  0.00000000000E+00  0.00000000000E+00  0.11988415047E+03  0.11988415047E+03  0.00000000000E+00 0. -1.
         21   -1    0    0  502  503 -0.00000000000E+00 -0.00000000000E+00 -0.35572533578E+03  0.35572533578E+03  0.00000000000E+00 0. -1.
         -6    2    1    2    0  503  0.48648383520E+02 -0.10318239874E+03 -0.13514499114E+03  0.24650884370E+03  0.17172410653E+03 0.  0.
        -24    2    3    3    0    0  0.51315205140E+02 -0.96352700611E+01 -0.18780011529E+02  0.97106448471E+02  0.79692438750E+02 0.  0.
          6    2    1    2  501    0 -0.48648383520E+02  0.10318239874E+03 -0.10069619417E+03  0.22910064255E+03  0.17127203002E+03 0.  0.
         24    2    5    5    0    0  0.36804955038E+02  0.44052466863E+02 -0.69230943058E+02  0.12042325786E+03  0.80085036093E+02 0.  0.
          5    1    5    5  501    0 -0.85453338558E+02  0.59129931875E+02 -0.31465251115E+02  0.10867738469E+03  0.47000000000E+01 0. -1.
        -13    1    6    6    0    0  0.52255084035E+02  0.52671704362E+02 -0.35316246600E+02  0.82171403309E+02  0.00000000000E+00 0.  1.
         14    1    6    6    0    0 -0.15450128997E+02 -0.86192374993E+01 -0.33914696457E+02  0.38251854555E+02  0.00000000000E+00 0. -1.
         -5    1    3    3    0  503 -0.26668216203E+01 -0.93547128677E+02 -0.11636497961E+03  0.14940239523E+03  0.47000000000E+01 0.  1.
         11    1    4    4    0    0  0.51083457368E+02 -0.39536398082E+02 -0.18537970074E+02  0.67203442802E+02  0.00000000000E+00 0. -1.
        -12    1    4    4    0    0  0.23174777229E+00  0.29901128021E+02 -0.24204145488E+00  0.29903005669E+02  0.00000000000E+00 0.  1.
</event>
<event>
12    1  0.8562501E-002  0.2288459E+03  0.7818608E-02  0.1127772E+00
         21   -1    0    0  501  502  0.00000000000E+00  0.00000000000E+00  0.76780722888E+03  0.76780722888E+03  0.00000000000E+00 0. -1.
         21   -1    0    0  502  503 -0.00000000000E+00 -0.00000000000E+00 -0.65992759762E+03  0.65992759762E+03  0.00000000000E+00 0. -1.
         -6    2    1    2    0  503  0.14692948996E+03 -0.19386532232E+02 -0.62235417685E+03  0.66248200774E+03  0.17202783636E+03 0.  0.
        -24    2    3    3    0    0  0.13230746367E+02 -0.16452972117E+02 -0.15549497710E+03  0.17682414236E+03  0.81500530529E+02 0.  0.
          6    2    1    2  501    0 -0.14692948996E+03  0.19386532232E+02  0.73023380812E+03  0.76525281876E+03  0.17437416508E+03 0.  0.
         24    2    5    5    0    0 -0.10805201905E+03  0.40431532707E+01  0.25356544882E+03  0.28673250385E+03  0.78920884563E+02 0.  0.
          5    1    5    5  501    0 -0.38877470908E+02  0.15343378962E+02  0.47666835930E+03  0.47852031491E+03  0.47000000000E+01 0. -1.
        -11    1    6    6    0    0 -0.36189218029E+02  0.39220102063E+02  0.89630319409E+02  0.10431428505E+03  0.00000000000E+00 0.  1.
         12    1    6    6    0    0 -0.71862801022E+02 -0.35176948792E+02  0.16393512941E+03  0.18241821880E+03  0.00000000000E+00 0. -1.
         -5    1    3    3    0  503  0.13369874359E+03 -0.29335601150E+01 -0.46685919976E+03  0.48565786539E+03  0.47000000000E+01 0.  1.
         11    1    4    4    0    0 -0.67819338861E+01 -0.37550200271E+02 -0.13734153975E+03  0.14254371508E+03  0.00000000000E+00 0. -1.
        -12    1    4    4    0    0  0.20012680253E+02  0.21097228154E+02 -0.18153437345E+02  0.34280427274E+02  0.00000000000E+00 0.  1.
</event>
<event>
12    1  0.8562501E-002  0.1737324E+03  0.7818608E-02  0.1174500E+00
         21   -1    0    0  501  502  0.00000000000E+00  0.00000000000E+00  0.11998300140E+03  0.11998300140E+03  0.00000000000E+00 0. -1.
         21   -1    0    0  502  503 -0.00000000000E+00 -0.00000000000E+00 -0.25391238339E+03  0.25391238339E+03  0.00000000000E+00 0. -1.
         -6    2    1    2    0  503  0.11224347794E+02  0.26865121801E+02 -0.40764206937E+02  0.17845075895E+03  0.17127531068E+03 0.  0.
        -24    2    3    3    0    0  0.40107325667E+02  0.73062934435E+02 -0.51758234192E+02  0.12267062863E+03  0.73636800324E+02 0.  0.
          6    2    1    2  501    0 -0.11224347794E+02 -0.26865121801E+02 -0.93165175048E+02  0.19544462584E+03  0.16932551838E+03 0.  0.
         24    2    5    5    0    0 -0.71500213251E+02 -0.87083121689E+01 -0.66331159585E+02  0.12685159355E+03  0.80643591550E+02 0.  0.
          5    1    5    5  501    0  0.60275865457E+02 -0.18156809632E+02 -0.26834015463E+02  0.68593032288E+02  0.47000000000E+01 0. -1.
        -13    1    6    6    0    0 -0.40119488324E+01  0.29675000994E+02 -0.12915087338E+02  0.32611361492E+02  0.00000000000E+00 0.  1.
         14    1    6    6    0    0 -0.67488264419E+02 -0.38383313163E+02 -0.53416072248E+02  0.94240232056E+02  0.00000000000E+00 0. -1.
         -5    1    3    3    0  503 -0.28882977873E+02 -0.46197812634E+02  0.10994027255E+02  0.55780130317E+02  0.47000000000E+01 0.  1.
         11    1    4    4    0    0  0.53855434246E+02  0.23572414945E+02 -0.36034424049E+02  0.68953217914E+02  0.00000000000E+00 0. -1.
        -12    1    4    4    0    0 -0.13748108578E+02  0.49490519490E+02 -0.15723810143E+02  0.53717410718E+02  0.00000000000E+00 0.  1.
</event>
<event>
12    1  0.8562501E-002  0.1996947E+03  0.7818608E-02  0.1150141E+00
         21   -1    0    0  503  502  0.00000000000E+00  0.00000000000E+00  0.11305263219E+03  0.11305263219E+03  0.00000000000E+00 0. -1.
         21   -1    0    0  501  503 -0.00000000000E+00 -0.00000000000E+00 -0.35281015319E+03  0.35281015319E+03  0.00000000000E+00 0. -1.
          6    2    1    2  501    0 -0.92269869809E+02 -0.41156443559E+02 -0.10609742732E+03  0.22612968170E+03  0.17225094235E+03 0.  0.
         24    2    3    3    0    0  0.95614090390E+01 -0.42386053532E+02 -0.82329096685E+02  0.12144852373E+03  0.77997856880E+02 0.  0.
         -6    2    1    2    0  502  0.92269869809E+02  0.41156443559E+02 -0.13366009369E+03  0.23973310368E+03  0.17146241173E+03 0.  0.
        -24    2    5    5    0    0  0.51639883298E+02  0.94635526452E+02 -0.85016726475E+02  0.15667243137E+03  0.75470832500E+02 0.  0.
          5    1    3    3  501    0 -0.10183127885E+03  0.12296099727E+01 -0.23768330630E+02  0.10468115797E+03  0.47000000000E+01 0. -1.
        -11    1    4    4    0    0 -0.20419401065E+01 -0.51559749964E+02 -0.16793164969E+02  0.54264055556E+02  0.00000000000E+00 0.  1.
         12    1    4    4    0    0  0.11603349145E+02  0.91736964315E+01 -0.65535931716E+02  0.67184468172E+02  0.00000000000E+00 0. -1.
         -5    1    5    5    0  502  0.40629986511E+02 -0.53479082892E+02 -0.48643367213E+02  0.83060672311E+02  0.47000000000E+01 0.  1.
         11    1    6    6    0    0  0.60577448272E+02  0.39252929716E+02 -0.64919003219E+02  0.97081907220E+02  0.00000000000E+00 0. -1.
        -12    1    6    6    0    0 -0.89375649747E+01  0.55382596735E+02 -0.20097723256E+02  0.59590524154E+02  0.00000000000E+00 0.  1.
</event>
<event>
12    1  0.8562501E-002  0.2070514E+03  0.7818608E-02  0.1144318E+00
         21   -1    0    0  503  502  0.00000000000E+00  0.00000000000E+00  0.10159786337E+03  0.10159786337E+03  0.00000000000E+00 0.  1.
         21   -1    0    0  501  503 -0.00000000000E+00 -0.00000000000E+00 -0.43468118213E+03  0.43468118213E+03  0.00000000000E+00 0.  1.
          6    2    1    2  501    0 -0.87942913572E+02  0.77040727437E+02 -0.11476774176E+03  0.23673170250E+03  0.17088310241E+03 0.  0.
         24    2    3    3    0    0 -0.10260779632E+03  0.40957784469E+02 -0.13698450334E+03  0.19164609444E+03  0.75878662248E+02 0.  0.
         -6    2    1    2    0  502  0.87942913572E+02 -0.77040727437E+02 -0.21831557700E+03  0.29954734300E+03  0.16851614109E+03 0.  0.
        -24    2    5    5    0    0 -0.11084389878E+02 -0.63295675819E+02 -0.13374837827E+03  0.16851668104E+03  0.79875132701E+02 0.  0.
          5    1    3    3  501    0  0.14664882750E+02  0.36082942968E+02  0.22216761578E+02  0.45085608062E+02  0.47000000000E+01 0. -1.
        -13    1    4    4    0    0 -0.84247450735E+02  0.30673573046E+02 -0.14385598070E+03  0.16950824234E+03  0.00000000000E+00 0.  1.
         14    1    4    4    0    0 -0.18360345588E+02  0.10284211423E+02  0.68714773555E+01  0.22137852103E+02  0.00000000000E+00 0. -1.
         -5    1    5    5    0  502  0.99027303451E+02 -0.13745051619E+02 -0.84567198729E+02  0.13103066196E+03  0.47000000000E+01 0.  1.
         13    1    6    6    0    0 -0.12105699698E+02  0.39643844839E+01  0.54974930620E+01  0.13873959041E+02  0.00000000000E+00 0. -1.
        -14    1    6    6    0    0  0.10213098191E+01 -0.67260060302E+02 -0.13924587133E+03  0.15464272200E+03  0.00000000000E+00 0.  1.
</event>
<event>
12    1  0.8562501E-002  0.2527272E+03  0.7818608E-02  0.1111893E+00
         21   -1    0    0  501  502  0.00000000000E+00  0.00000000000E+00  0.17048613053E+03  0.17048613053E+03  0.00000000000E+00 0.  1.
         21   -1    0    0  502  503 -0.00000000000E+00 -0.00000000000E+00 -0.59672872569E+03  0.59672872569E+03  0.00000000000E+00 0.  1.
         -6    2    1    2    0  503 -0.15166119538E+03  0.10581616108E+03 -0.44812784593E+03  0.51354187900E+03  0.16943587891E+03 0.  0.
        -24    2    3    3    0    0 -0.40649158324E+02  0.10667964881E+03 -0.24113630954E+03  0.27861209349E+03  0.80281238894E+02 0.  0.
          6    2    1    2  501    0  0.15166119538E+03 -0.10581616108E+03  0.21885250770E+02  0.25367297721E+03  0.17225805362E+03 0.  0.
         24    2    5    5    0    0  0.78956550285E+02 -0.76866889974E+02  0.79758506317E+02  0.15622848315E+03  0.76832701437E+02 0.  0.
          5    1    5    5  501    0  0.72704645092E+02 -0.28949271107E+02 -0.57873255547E+02  0.97444494063E+02  0.47000000000E+01 0. -1.
        -13    1    6    6    0    0  0.26092214242E+02 -0.39153939010E+01  0.57743399843E+02  0.63485700586E+02  0.00000000000E+00 0.  1.
         14    1    6    6    0    0  0.52864336044E+02 -0.72951496073E+02  0.22015106474E+02  0.92742782564E+02  0.00000000000E+00 0. -1.
         -5    1    3    3    0  503 -0.11101203705E+03 -0.86348773317E+00 -0.20699153639E+03  0.23492978551E+03  0.47000000000E+01 0.  1.
         11    1    4    4    0    0 -0.25706836609E+02 -0.55513312732E+01 -0.42800514949E+02  0.50234876403E+02  0.00000000000E+00 0. -1.
        -12    1    4    4    0    0 -0.14942321715E+02  0.11223098009E+03 -0.19833579459E+03  0.22837721709E+03  0.00000000000E+00 0.  1.
</event>
<event>
12    1  0.8562501E-002  0.2475292E+03  0.7818608E-02  0.1115697E+00
         21   -1    0    0  501  502  0.00000000000E+00  0.00000000000E+00  0.21568392759E+03  0.21568392759E+03  0.00000000000E+00 0.  1.
         21   -1    0    0  502  503 -0.00000000000E+00 -0.00000000000E+00 -0.54795458199E+03  0.54795458199E+03  0.00000000000E+00 0. -1.
         -6    2    1    2    0  503  0.23312962608E+01  0.17057722421E+03 -0.43485889108E+03  0.50037281334E+03  0.17935627340E+03 0.  0.
        -24    2    3    3    0    0  0.27333655173E+02  0.87104260104E+02 -0.37650889416E+03  0.39539821722E+03  0.79034941426E+02 0.  0.
          6    2    1    2  501    0 -0.23312962608E+01 -0.17057722421E+03  0.10258823668E+03  0.26326569625E+03  0.17228597201E+03 0.  0.
         24    2    5    5    0    0 -0.63491593220E+02 -0.96994514477E+02  0.30960853174E+02  0.14365144473E+03  0.78981294600E+02 0.  0.
          5    1    5    5  501    0  0.61160296959E+02 -0.73582709735E+02  0.71627383511E+02  0.11961425151E+03  0.47000000000E+01 0. -1.
        -13    1    6    6    0    0 -0.62790372705E+02 -0.57231554372E+02  0.51028568044E+02  0.99105986080E+02  0.00000000000E+00 0.  1.
         14    1    6    6    0    0 -0.70122051462E+00 -0.39762960105E+02 -0.20067714871E+02  0.44545458653E+02  0.00000000000E+00 0. -1.
         -5    1    3    3    0  503 -0.25002358913E+02  0.83472964109E+02 -0.58349996921E+02  0.10497459611E+03  0.47000000000E+01 0.  1.
         11    1    4    4    0    0  0.16761050363E+02  0.94239879987E+02 -0.24133868589E+03  0.25962751992E+03  0.00000000000E+00 0. -1.
        -12    1    4    4    0    0  0.10572604810E+02 -0.71356198834E+01 -0.13517020827E+03  0.13577069731E+03  0.00000000000E+00 0.  1.
</event>
<event>
12    1  0.8562501E-002  0.2017476E+03  0.7818608E-02  0.1149696E+00
         21   -1    0    0  503  502  0.00000000000E+00  0.00000000000E+00  0.14467370634E+03  0.14467370634E+03  0.00000000000E+00 0.  1.
         21   -1    0    0  501  503 -0.00000000000E+00 -0.00000000000E+00 -0.45195347809E+03  0.45195347809E+03  0.00000000000E+00 0.  1.
          6    2    1    2  501    0 -0.22664257831E+02 -0.10108414621E+03 -0.34026285485E+03  0.39220126208E+03  0.16526144858E+03 0.  0.
         24    2    3    3    0    0 -0.17642685433E+02 -0.10483627048E+03 -0.14551865671E+03  0.19729952444E+03  0.80308872089E+02 0.  0.
         -6    2    1    2    0  502  0.22664257831E+02  0.10108414621E+03  0.32983083098E+02  0.20442592235E+03  0.17311961402E+03 0.  0.
        -24    2    5    5    0    0  0.11063164998E+02 -0.11847508120E+01  0.47486477470E+02  0.10037809151E+03  0.87732539338E+02 0.  0.
          5    1    3    3  501    0 -0.50215723975E+01  0.37521242709E+01 -0.19474419813E+03  0.19490173763E+03  0.47000000000E+01 0. -1.
        -11    1    4    4    0    0 -0.31309469007E+01 -0.42015901062E+02 -0.12132930038E+03  0.12843651312E+03  0.00000000000E+00 0.  1.
         12    1    4    4    0    0 -0.14511738533E+02 -0.62820369421E+02 -0.24189356333E+02  0.68863011329E+02  0.00000000000E+00 0. -1.
         -5    1    5    5    0  502  0.11601092833E+02  0.10226889702E+03 -0.14503394372E+02  0.10404783084E+03  0.47000000000E+01 0.  1.
         13    1    6    6    0    0 -0.17253531166E+02  0.12300639826E+02 -0.17977847068E+02  0.27788362007E+02  0.00000000000E+00 0. -1.
        -14    1    6    6    0    0  0.28316696165E+02 -0.13485390638E+02  0.65464324538E+02  0.72589729504E+02  0.00000000000E+00 0.  1.
</event>
<event>
12    1  0.8562501E-002  0.1842035E+03  0.7818608E-02  0.1166189E+00
         21   -1    0    0  503  502  0.00000000000E+00  0.00000000000E+00  0.56296439999E+03  0.56296439999E+03  0.00000000000E+00 0. -1.
         21   -1    0    0  501  503 -0.00000000000E+00 -0.00000000000E+00 -0.78607057504E+02  0.78607057504E+02  0.00000000000E+00 0. -1.
          6    2    1    2  501    0 -0.47203463942E+02  0.14872889737E+02  0.79195637313E+02  0.20050653207E+03  0.17743041051E+03 0.  0.
         24    2    3    3    0    0 -0.89688840473E+02 -0.27068334158E+02  0.63164473991E+02  0.13851329309E+03  0.80121150578E+02 0.  0.
         -6    2    1    2    0  502  0.47203463942E+02 -0.14872889737E+02  0.40516170518E+03  0.44106492543E+03  0.16713135925E+03 0.  0.
        -24    2    5    5    0    0  0.72736038232E+02 -0.52451248917E+02  0.21918379088E+03  0.24956056508E+03  0.78722783781E+02 0.  0.
          5    1    3    3  501    0  0.42485376531E+02  0.41941223895E+02  0.16031163323E+02  0.61993238973E+02  0.47000000000E+01 0. -1.
        -13    1    4    4    0    0 -0.34381984859E+02 -0.49169221837E+02  0.48567230523E+02  0.77191379956E+02  0.00000000000E+00 0.  1.
         14    1    4    4    0    0 -0.55306855614E+02  0.22100887679E+02  0.14597243468E+02  0.61321913139E+02  0.00000000000E+00 0. -1.
         -5    1    5    5    0  502 -0.25532574290E+02  0.37578359179E+02  0.18597791429E+03  0.19150436035E+03  0.47000000000E+01 0.  1.
         11    1    6    6    0    0  0.57024536030E+02  0.27639126879E+01  0.74177241234E+02  0.93603953121E+02  0.00000000000E+00 0. -1.
        -12    1    6    6    0    0  0.15711502202E+02 -0.55215161604E+02  0.14500654965E+03  0.15595661196E+03  0.00000000000E+00 0.  1.
</event>
<event>
12    1  0.8562501E-002  0.1870914E+03  0.7818608E-02  0.1161288E+00
         21   -1    0    0  501  502  0.00000000000E+00  0.00000000000E+00  0.70734083561E+02  0.70734083561E+02  0.00000000000E+00 0.  1.
         21   -1    0    0  502  503 -0.00000000000E+00 -0.00000000000E+00 -0.54443592179E+03  0.54443592179E+03  0.00000000000E+00 0.  1.
         -6    2    1    2    0  503 -0.62573897739E+02 -0.33429316083E+02 -0.33199570399E+03  0.38108311745E+03  0.17311898533E+03 0.  0.
        -24    2    3    3    0    0 -0.10384880543E+03 -0.50275198907E+02 -0.27392373019E+03  0.30772205206E+03  0.79664806201E+02 0.  0.
          6    2    1    2  501    0  0.62573897739E+02  0.33429316083E+02 -0.14170613424E+03  0.23408688791E+03  0.17228763960E+03 0.  0.
         24    2    5    5    0    0  0.84321814056E+02  0.59556835334E+02 -0.14958304067E+03  0.19887673623E+03  0.80744567584E+02 0.  0.
          5    1    5    5  501    0 -0.21747916317E+02 -0.26127519251E+02  0.78769064349E+01  0.35210151681E+02  0.47000000000E+01 0. -1.
        -13    1    6    6    0    0 -0.73136209186E+01  0.25974412482E+02 -0.10471813601E+02  0.28945086540E+02  0.00000000000E+00 0.  1.
         14    1    6    6    0    0  0.91635434975E+02  0.33582422852E+02 -0.13911122707E+03  0.16993164969E+03  0.00000000000E+00 0. -1.
         -5    1    3    3    0  503  0.41274907695E+02  0.16845882824E+02 -0.58071973808E+02  0.73361065391E+02  0.47000000000E+01 0.  1.
         11    1    4    4    0    0 -0.39664642518E+01  0.16560094144E+02 -0.16912800106E+02  0.24000257585E+02  0.00000000000E+00 0. -1.
        -12    1    4    4    0    0 -0.99882341182E+02 -0.66835293051E+02 -0.25701093008E+03  0.28372179447E+03  0.00000000000E+00 0.  1.
</event>
<event>
12    1  0.8562501E-002  0.2470463E+03  0.7818608E-02  0.1116156E+00
         21   -1    0    0  501  502  0.00000000000E+00  0.00000000000E+00  0.42999178386E+03  0.42999178386E+03  0.00000000000E+00 0.  1.
         21   -1    0    0  502  503 -0.00000000000E+00 -0.00000000000E+00 -0.17517535317E+03  0.17517535317E+03  0.00000000000E+00 0. -1.
         -6    2    1    2    0  503  0.13932853477E+03 -0.95592690251E+02 -0.97483864822E+01  0.24723851111E+03  0.18022610051E+03 0.  0.
        -24    2    3    3    0    0  0.17201787156E+03 -0.89564982257E+02 -0.12932292325E+02  0.21351680801E+03  0.88375047012E+02 0.  0.
          6    2    1    2  501    0 -0.13932853477E+03  0.95592690251E+02  0.26456481717E+03  0.35792862592E+03  0.17195335338E+03 0.  0.
         24    2    5    5    0    0 -0.16612258809E+03  0.55572086890E+02  0.20526959633E+03  0.28139377633E+03  0.79761388319E+02 0.  0.
          5    1    5    5  501    0  0.26794053319E+02  0.40020603361E+02  0.59295220846E+02  0.76534849590E+02  0.47000000000E+01 0. -1.
        -13    1    6    6    0    0 -0.48397202207E+02  0.29446419416E+02  0.12298460455E+03  0.13540529441E+03  0.00000000000E+00 0.  1.
         14    1    6    6    0    0 -0.11772538589E+03  0.26125667474E+02  0.82284991783E+02  0.14598848193E+03  0.00000000000E+00 0. -1.
         -5    1    3    3    0  503 -0.32689336791E+02 -0.60277079942E+01  0.31839058424E+01  0.33721703099E+02  0.47000000000E+01 0.  1.
         11    1    4    4    0    0  0.83451228002E+01 -0.30948630996E+02 -0.22876756068E+02  0.39380259056E+02  0.00000000000E+00 0. -1.
        -12    1    4    4    0    0  0.16367274876E+03 -0.58616351261E+02  0.99444637430E+01  0.17413654896E+03  0.00000000000E+00 0.  1.
</event>
<event>
12    1  0.8562501E-002  0.2271197E+03  0.7818608E-02  0.1129051E+00
         21   -1    0    0  501  502  0.00000000000E+00  0.00000000000E+00  0.28936911820E+03  0.28936911820E+03  0.00000000000E+00 0. -1.
         21   -1    0    0  502  503 -0.00000000000E+00 -0.00000000000E+00 -0.18571680760E+03  0.18571680760E+03  0.00000000000E+00 0. -1.
         -6    2    1    2    0  503  0.14069783308E+03  0.48973029177E+02  0.10405282885E+03  0.24796583836E+03  0.16871819102E+03 0.  0.
        -24    2    3    3    0    0  0.28272652136E+00  0.21308238968E+02  0.50437742886E+02  0.95065837673E+02  0.77713747837E+02 0.  0.
          6    2    1    2  501    0 -0.14069783308E+03 -0.48973029177E+02 -0.40051825031E+00  0.22712008743E+03  0.17143259864E+03 0.  0.
         24    2    5    5    0    0 -0.30972342779E+02 -0.54387506159E+02  0.43623076008E+02  0.10867530437E+03  0.77395491958E+02 0.  0.
          5    1    5    5  501    0 -0.10972549030E+03  0.54144769825E+01 -0.44023594258E+02  0.11844478306E+03  0.47000000000E+01 0. -1.
        -13    1    6    6    0    0  0.20944938846E+02 -0.10360454511E+02 -0.63673159135E+01  0.24219252525E+02  0.00000000000E+00 0.  1.
         14    1    6    6    0    0 -0.51917281625E+02 -0.44027051648E+02  0.49990391921E+02  0.84456051842E+02  0.00000000000E+00 0. -1.
         -5    1    3    3    0  503  0.14041510656E+03  0.27664790208E+02  0.53615085964E+02  0.15290000069E+03  0.47000000000E+01 0.  1.
         13    1    4    4    0    0  0.21713911086E+02 -0.22552113423E+02  0.14820488197E+02  0.34637243321E+02  0.00000000000E+00 0. -1.
        -14    1    4    4    0    0 -0.21431184565E+02  0.43860352391E+02  0.35617254689E+02  0.60428594352E+02  0.00000000000E+00 0.  1.
</event>
<event>
12    1  0.8562501E-002  0.2029144E+03  0.7818608E-02  0.1148301E+00
         21   -1    0    0  503  502  0.00000000000E+00  0.00000000000E+00  0.19573745929E+03  0.19573745929E+03  0.00000000000E+00 0. -1.
         21   -1    0    0  501  503 -0.00000000000E+00 -0.00000000000E+00 -0.44662599382E+03  0.44662599382E+03  0.00000000000E+00 0. -1.
          6    2    1    2  501    0  0.60095817189E+02  0.89955328848E+02 -0.36077005385E+03  0.41160776622E+03  0.16601943569E+03 0.  0.
         24    2    3    3    0    0  0.10070356080E+03  0.57428074095E+02 -0.29191640131E+03  0.32517902903E+03  0.84184468396E+02 0.  0.
         -6    2    1    2    0  502 -0.60095817189E+02 -0.89955328848E+02  0.10988151932E+03  0.23075568689E+03  0.17167052837E+03 0.  0.
        -24    2    5    5    0    0 -0.74380389789E+02 -0.12415156663E+03  0.96595496679E+02  0.19110672612E+03  0.79025545921E+02 0.  0.
          5    1    3    3  501    0 -0.40607743616E+02  0.32527254753E+02 -0.68853652545E+02  0.86428737189E+02  0.47000000000E+01 0. -1.
        -13    1    4    4    0    0  0.54343326954E+01 -0.16254216043E+02 -0.13458620268E+02  0.21791419654E+02  0.00000000000E+00 0.  1.
         14    1    4    4    0    0  0.95269228109E+02  0.73682290139E+02 -0.27845778104E+03  0.30338760938E+03  0.00000000000E+00 0. -1.
         -5    1    5    5    0  502  0.14284572600E+02  0.34196237778E+02  0.13286022639E+02  0.39648960769E+02  0.47000000000E+01 0.  1.
         11    1    6    6    0    0 -0.44788507995E+02 -0.12747208560E+03  0.78423073473E+02  0.15622202633E+03  0.00000000000E+00 0. -1.
        -12    1    6    6    0    0 -0.29591881794E+02  0.33205189777E+01  0.18172423206E+02  0.34884699792E+02  0.00000000000E+00 0.  1.
</event>
<event>
12    1  0.8562501E-002  0.2110467E+03  0.7818608E-02  0.1140922E+00
         21   -1    0    0  501  502  0.00000000000E+00  0.00000000000E+00  0.11590785248E+04  0.11590785248E+04  0.00000000000E+00 0. -1.
         21   -1    0    0  502  503 -0.00000000000E+00 -0.00000000000E+00 -0.17356957380E+03  0.17356957380E+03  0.00000000000E+00 0.  1.
         -6    2    1    2    0  503  0.15550256637E+02  0.12076572687E+03 -0.95326904857E+02  0.23157708468E+03  0.17237910573E+03 0.  0.
        -24    2    3    3    0    0 -0.56452337204E+02  0.79216739242E+02 -0.40037108808E+02  0.13162838064E+03  0.79125864013E+02 0.  0.
          6    2    1    2  501    0 -0.15550256637E+02 -0.12076572687E+03  0.10808358558E+04  0.11010710139E+04  0.17124561053E+03 0.  0.
         24    2    5    5    0    0  0.10701986723E+02 -0.62004656241E+01  0.62842856771E+03  0.63362173995E+03  0.80006664308E+02 0.  0.
          5    1    5    5  501    0 -0.26252243360E+02 -0.11456526125E+03  0.45240728811E+03  0.46744927394E+03  0.47000000000E+01 0. -1.
        -13    1    6    6    0    0 -0.12326334849E+02 -0.38029626148E+02  0.25238141050E+03  0.25552801679E+03  0.00000000000E+00 0.  1.
         14    1    6    6    0    0  0.23028321572E+02  0.31829160524E+02  0.37604715721E+03  0.37809372317E+03  0.00000000000E+00 0. -1.
         -5    1    3    3    0  503  0.72002593841E+02  0.41548987627E+02 -0.55289796049E+02  0.99948704043E+02  0.47000000000E+01 0.  1.
         13    1    4    4    0    0 -0.41952153204E+02  0.31661021572E+02  0.17678110772E+02  0.55451952589E+02  0.00000000000E+00 0. -1.
        -14    1    4    4    0    0 -0.14500184000E+02  0.47555717671E+02 -0.57715219581E+02  0.76176428050E+02  0.00000000000E+00 0.  1.
</event>
<event>
12    1  0.8562501E-002  0.1835763E+03  0.7818608E-02  0.1164579E+00
         21   -1    0    0  503  502  0.00000000000E+00  0.00000000000E+00  0.12456947033E+03  0.12456947033E+03  0.00000000000E+00 0. -1.
         21   -1    0    0  501  503 -0.00000000000E+00 -0.00000000000E+00 -0.59606776538E+03  0.59606776538E+03  0.00000000000E+00 0. -1.
          6    2    1    2  501    0  0.62480767285E+02 -0.76442367523E+01 -0.50228211434E+03  0.53449779313E+03  0.17157589529E+03 0.  0.
         24    2    3    3    0    0  0.61584704740E+02  0.32341703851E+02 -0.18035001207E+03  0.21005666312E+03  0.82213217920E+02 0.  0.
         -6    2    1    2    0  502 -0.62480767285E+02  0.76442367523E+01  0.30783819289E+02  0.18613944259E+03  0.17244700032E+03 0.  0.
        -24    2    5    5    0    0  0.17503303053E+02  0.46450465261E+02  0.24817977548E+02  0.96914691834E+02  0.79451331915E+02 0.  0.
          5    1    3    3  501    0  0.89606254507E+00 -0.39985940603E+02 -0.32193210227E+03  0.32444113001E+03  0.47000000000E+01 0. -1.
        -13    1    4    4    0    0 -0.15817579281E+02 -0.18918575137E+01 -0.65387794337E+02  0.67300360975E+02  0.00000000000E+00 0.  1.
         14    1    4    4    0    0  0.77402284021E+02  0.34233561365E+02 -0.11496221773E+03  0.14275630214E+03  0.00000000000E+00 0. -1.
         -5    1    5    5    0  502 -0.79984070338E+02 -0.38806228509E+02  0.59658417416E+01  0.89224750752E+02  0.47000000000E+01 0.  1.
         11    1    6    6    0    0 -0.17525964741E+02  0.99530462191E+01  0.39409796577E+02  0.44264597992E+02  0.00000000000E+00 0. -1.
        -12    1    6    6    0    0  0.35029267794E+02  0.36497419042E+02 -0.14591819030E+02  0.52650093842E+02  0.00000000000E+00 0.  1.
</event>
<event>
12    1  0.8562501E-002  0.2022367E+03  0.7818608E-02  0.1147873E+00
         21   -1    0    0  503  502  0.00000000000E+00  0.00000000000E+00  0.96391482702E+03  0.96391482702E+03  0.00000000000E+00 0. -1.
         21   -1    0    0  501  503 -0.00000000000E+00 -0.00000000000E+00 -0.87546468752E+02  0.87546468752E+02  0.00000000000E+00 0.  1.
          6    2    1    2  501    0 -0.63590713749E+02  0.85494840497E+02  0.60727589371E+02  0.21112234255E+03  0.17184777213E+03 0.  0.
         24    2    3    3    0    0 -0.86243858452E+02  0.63335877180E+01  0.48320128360E+02  0.12772147927E+03  0.80621486025E+02 0.  0.
         -6    2    1    2    0  502  0.63590713749E+02 -0.85494840497E+02  0.81564076889E+03  0.84033895322E+03  0.17189108700E+03 0.  0.
        -24    2    5    5    0    0  0.90628649710E+02 -0.50263206524E+02  0.74827442176E+03  0.75951424945E+03  0.78786691623E+02 0.  0.
          5    1    3    3  501    0  0.22653144703E+02  0.79161252779E+02  0.12407461011E+02  0.83400863276E+02  0.47000000000E+01 0. -1.
        -11    1    4    4    0    0 -0.33637266571E+02  0.37823677012E+02  0.16075730065E+01  0.50642675048E+02  0.00000000000E+00 0.  1.
         12    1    4    4    0    0 -0.52606591881E+02 -0.31490089294E+02  0.46712555353E+02  0.77078804224E+02  0.00000000000E+00 0. -1.
         -5    1    5    5    0  502 -0.27037935961E+02 -0.35231633973E+02  0.67366347130E+02  0.80824703767E+02  0.47000000000E+01 0.  1.
         11    1    6    6    0    0  0.88282589886E+02 -0.61933374805E+02  0.52703776468E+03  0.53795758568E+03  0.00000000000E+00 0. -1.
        -12    1    6    6    0    0  0.23460598246E+01  0.11670168281E+02  0.22123665709E+03  0.22155666378E+03  0.00000000000E+00 0.  1.
</event>
<event>
12    1  0.8562501E-002  0.2237111E+03  0.7818608E-02  0.1131185E+00
         21   -1    0    0  503  502  0.00000000000E+00  0.00000000000E+00  0.50817856014E+03  0.50817856014E+03  0.00000000000E+00 0. -1.
         21   -1    0    0  501  503 -0.00000000000E+00 -0.00000000000E+00 -0.19466298243E+03  0.19466298243E+03  0.00000000000E+00 0. -1.
          6    2    1    2  501    0  0.76404021573E+02  0.11998432326E+03  0.40393417064E+03  0.46174610341E+03  0.17266394371E+03 0.  0.
         24    2    3    3    0    0 -0.69540276720E+01  0.39650504963E+02  0.93845944717E+02  0.13071908850E+03  0.81608196371E+02 0.  0.
         -6    2    1    2    0  502 -0.76404021573E+02 -0.11998432326E+03 -0.90418592936E+02  0.24109543916E+03  0.17238815648E+03 0.  0.
        -24    2    5    5    0    0 -0.11893771762E+03 -0.11468950981E+03 -0.70576735521E+02  0.19363029769E+03  0.72192466758E+02 0.  0.
          5    1    3    3  501    0  0.83358049245E+02  0.80333818299E+02  0.31008822593E+03  0.33102701490E+03  0.47000000000E+01 0. -1.
        -11    1    4    4    0    0 -0.77456424062E+00 -0.14982967857E+02 -0.64583320758E+01  0.16333993044E+02  0.00000000000E+00 0.  1.
         12    1    4    4    0    0 -0.61794634314E+01  0.54633472820E+02  0.10030427679E+03  0.11438509546E+03  0.00000000000E+00 0. -1.
         -5    1    5    5    0  502  0.42533696044E+02 -0.52948134542E+01 -0.19841857414E+02  0.47465141465E+02  0.47000000000E+01 0.  1.
         13    1    6    6    0    0 -0.69602343883E+01 -0.50942610384E+02 -0.18234146132E+02  0.54553446276E+02  0.00000000000E+00 0. -1.
        -14    1    6    6    0    0 -0.11197748323E+03 -0.63746899424E+02 -0.52342589390E+02  0.13907685142E+03  0.00000000000E+00 0.  1.
</event>
<event>
12    1  0.8562501E-002  0.2289847E+03  0.7818608E-02  0.1127373E+00
         21   -1    0    0  503  502  0.00000000000E+00  0.00000000000E+00  0.51153026257E+03  0.51153026257E+03  0.00000000000E+00 0.  1.
         21   -1    0    0  501  503 -0.00000000000E+00 -0.00000000000E+00 -0.19822668032E+03  0.19822668032E+03  0.00000000000E+00 0.  1.
          6    2    1    2  501    0  0.26036982238E+02 -0.14941412618E+03 -0.90024931181E+02  0.24595968557E+03  0.17143270734E+03 0.  0.
         24    2    3    3    0    0  0.28744460199E+01 -0.71775351745E+02  0.14066627419E+02  0.11396943990E+03  0.87356737958E+02 0.  0.
         -6    2    1    2    0  502 -0.26036982238E+02  0.14941412618E+03  0.40332851343E+03  0.46379725732E+03  0.17155611504E+03 0.  0.
        -24    2    5    5    0    0 -0.65084654346E+02  0.44284360535E+02  0.21693826046E+03  0.24621875488E+03  0.85815788665E+02 0.  0.
          5    1    3    3  501    0  0.23162536218E+02 -0.77638774438E+02 -0.10409155860E+03  0.13199024567E+03  0.47000000000E+01 0. -1.
        -11    1    4    4    0    0  0.26302919087E+02 -0.55850923203E+02 -0.24242693032E+02  0.66324032903E+02  0.00000000000E+00 0.  1.
         12    1    4    4    0    0 -0.23428473067E+02 -0.15924428542E+02  0.38309320451E+02  0.47645406999E+02  0.00000000000E+00 0. -1.
         -5    1    5    5    0  502  0.39047672108E+02  0.10512976565E+03  0.18639025297E+03  0.21757850244E+03  0.47000000000E+01 0.  1.
         11    1    6    6    0    0 -0.43214820080E+02  0.15500443063E+02  0.27831448613E+02  0.53687744799E+02  0.00000000000E+00 0. -1.
        -12    1    6    6    0    0 -0.21869834265E+02  0.28783917472E+02  0.18910681185E+03  0.19253101009E+03  0.00000000000E+00 0.  1.
</event>
<event>
12    1  0.8562501E-002  0.1785030E+03  0.7818608E-02  0.1169467E+00
         21   -1    0    0  501  502  0.00000000000E+00  0.00000000000E+00  0.55790644386E+03  0.55790644386E+03  0.00000000000E+00 0. -1.
         21   -1    0    0  502  503 -0.00000000000E+00 -0.00000000000E+00 -0.12952920116E+03  0.12952920116E+03  0.00000000000E+00 0. -1.
         -6    2    1    2    0  503 -0.43720596720E+02  0.11172344050E+02 -0.43069490016E+02  0.18362539900E+03  0.17270493432E+03 0.  0.
        -24    2    3    3    0    0 -0.42964446789E+02  0.30265928884E+02  0.36401122121E+02  0.10175473919E+03  0.79164481404E+02 0.  0.
          6    2    1    2  501    0  0.43720596720E+02 -0.11172344050E+02  0.47144673271E+03  0.50381024603E+03  0.17183256493E+03 0.  0.
         24    2    5    5    0    0 -0.16089969717E+01  0.35348535680E+02  0.14143419405E+03  0.16743347812E+03  0.82330009731E+02 0.  0.
          5    1    5    5  501    0  0.45329593691E+02 -0.46520879730E+02  0.33001253867E+03  0.33637676791E+03  0.47000000000E+01 0. -1.
        -13    1    6    6    0    0  0.14138849284E+02 -0.23236931765E+02  0.60081725461E+02  0.65952071925E+02  0.00000000000E+00 0.  1.
         14    1    6    6    0    0 -0.15747846255E+02  0.58585467444E+02  0.81352468586E+02  0.10148140619E+03  0.00000000000E+00 0. -1.
         -5    1    3    3    0  503 -0.75614993068E+00 -0.19093584834E+02 -0.79470612137E+02  0.81870659811E+02  0.47000000000E+01 0.  1.
         13    1    4    4    0    0  0.25254563553E+01  0.33809302083E+02 -0.11307663979E+02  0.35739475399E+02  0.00000000000E+00 0. -1.
        -14    1    4    4    0    0 -0.45489903144E+02 -0.35433731991E+01  0.47708786100E+02  0.66015263786E+02  0.00000000000E+00 0.  1.
</event>
<event>
12    1  0.8562501E-002  0.2078003E+03  0.7818608E-02  0.1143703E+00
         21   -1    0    0  503  502  0.00000000000E+00  0.00000000000E+00  0.21128509873E+03  0.21128509873E+03  0.00000000000E+00 0.  1.
         21   -1    0    0  501  503 -0.00000000000E+00 -0.00000000000E+00 -0.21137387129E+03  0.21137387129E+03  0.00000000000E+00 0.  1.
          6    2    1    2  501    0 -0.11400838011E+03  0.88518655769E+01  0.43232853771E+02  0.21224993768E+03  0.17350703196E+03 0.  0.
         24    2    3    3    0    0 -0.14054643877E+03  0.44487836352E+01  0.64606607192E+02  0.17757165884E+03  0.87089535567E+02 0.  0.
         -6    2    1    2    0  502  0.11400838011E+03 -0.88518655769E+01 -0.43321626328E+02  0.21040903234E+03  0.17122771774E+03 0.  0.
        -24    2    5    5    0    0 -0.32154753402E+01 -0.37871490616E+01  0.11584466848E+02  0.80779357074E+02  0.79789867010E+02 0.  0.
          5    1    3    3  501    0  0.26538058654E+02  0.44030819417E+01 -0.21373753422E+02  0.34678278836E+02  0.47000000000E+01 0. -1.
        -11    1    4    4    0    0  0.31105223998E+01 -0.16033514794E+02 -0.43633052708E+01  0.16905247089E+02  0.00000000000E+00 0.  1.
         12    1    4    4    0    0 -0.14365696117E+03  0.20482298429E+02  0.68969912463E+02  0.16066641175E+03  0.00000000000E+00 0. -1.
         -5    1    5    5    0  502  0.11722385545E+03 -0.50647165153E+01 -0.54906093176E+02  0.12962967526E+03  0.47000000000E+01 0.  1.
         11    1    6    6    0    0 -0.20188179961E+02 -0.36058300986E+02  0.15436703715E+02  0.44114119075E+02  0.00000000000E+00 0. -1.
        -12    1    6    6    0    0  0.16972704621E+02  0.32271151925E+02 -0.38522368669E+01  0.36665238000E+02  0.00000000000E+00 0.  1.
</event>
<event>
12    1  0.8562501E-002  0.1836629E+03  0.7818608E-02  0.1165090E+00
         21   -1    0    0  503  502  0.00000000000E+00  0.00000000000E+00  0.65526038077E+03  0.65526038077E+03  0.00000000000E+00 0. -1.
         21   -1    0    0  501  503 -0.00000000000E+00 -0.00000000000E+00 -0.62114539909E+02  0.62114539909E+02  0.00000000000E+00 0. -1.
          6    2    1    2  501    0 -0.14637924590E+02  0.61760126203E+02  0.14405001695E+03  0.23341482247E+03  0.17234700445E+03 0.  0.
         24    2    3    3    0    0 -0.13509792238E+02 -0.98494615700E+01  0.13848747018E+03  0.16142706191E+03  0.81242787636E+02 0.  0.
         -6    2    1    2    0  502  0.14637924590E+02 -0.61760126203E+02  0.44909582391E+03  0.48396009821E+03  0.16882457042E+03 0.  0.
        -24    2    5    5    0    0  0.18021492262E+02 -0.10664456667E+03  0.34548694013E+03  0.37089837911E+03  0.80663151711E+02 0.  0.
          5    1    3    3  501    0 -0.11281323524E+01  0.71609587773E+02  0.55625467742E+01  0.71987760559E+02  0.47000000000E+01 0. -1.
        -13    1    4    4    0    0 -0.12497212108E+02 -0.45488820310E+02  0.83095980407E+02  0.95552891340E+02  0.00000000000E+00 0.  1.
         14    1    4    4    0    0 -0.10125801297E+01  0.35639358740E+02  0.55391489769E+02  0.65874170574E+02  0.00000000000E+00 0. -1.
         -5    1    5    5    0  502 -0.33835676721E+01  0.44884440467E+02  0.10360888378E+03  0.11306171909E+03  0.47000000000E+01 0.  1.
         11    1    6    6    0    0  0.22513913818E+01 -0.66819455101E+02  0.30400705932E+03  0.31127190760E+03  0.00000000000E+00 0. -1.
        -12    1    6    6    0    0  0.15770100880E+02 -0.39825111569E+02  0.41479880811E+02  0.59626471515E+02  0.00000000000E+00 0.  1.
</event>
<event>
12    1  0.8562501E-002  0.2234657E+03  0.7818608E-02  0.1131416E+00
         21   -1    0    0  503  502  0.00000000000E+00  0.00000000000E+00  0.26535261458E+03  0.26535261458E+03  0.00000000000E+00 0. -1.
         21   -1    0    0  501  503 -0.00000000000E+00 -0.00000000000E+00 -0.18778130205E+03  0.18778130205E+03  0.00000000000E+00 0. -1.
          6    2    1    2  501    0  0.11077509290E+03  0.87767509766E+02  0.40086799524E+02  0.22654612295E+03  0.17245850906E+03 0.  0.
         24    2    3    3    0    0  0.21543471368E+02 -0.18997899564E+02  0.20858865405E+02  0.86000975890E+02  0.78332842676E+02 0.  0.
         -6    2    1    2    0  502 -0.11077509290E+03 -0.87767509766E+02  0.37484513010E+02  0.22658779368E+03  0.17309732104E+03 0.  0.
        -24    2    5    5    0    0 -0.32683484517E+02 -0.29364966972E+02 -0.37114195075E+02  0.10372114421E+03  0.86313966624E+02 0.  0.
          5    1    3    3  501    0  0.89231621536E+02  0.10676540933E+03  0.19227934119E+02  0.14054514706E+03  0.47000000000E+01 0. -1.
        -13    1    4    4    0    0  0.20519145981E+02  0.86352755696E+00  0.48083563478E+02  0.52285849983E+02  0.00000000000E+00 0.  1.
         14    1    4    4    0    0  0.10243253868E+01 -0.19861427121E+02 -0.27224698073E+02  0.33715125907E+02  0.00000000000E+00 0. -1.
         -5    1    5    5    0  502 -0.78091608386E+02 -0.58402542794E+02  0.74598708085E+02  0.12286664947E+03  0.47000000000E+01 0.  1.
         13    1    6    6    0    0 -0.50671325823E+02 -0.41553819333E+02 -0.60469338122E+01  0.65809334978E+02  0.00000000000E+00 0. -1.
        -14    1    6    6    0    0  0.17987841305E+02  0.12188852361E+02 -0.31067261263E+02  0.37911809230E+02  0.00000000000E+00 0.  1.
</event>
<event>
12    1  0.8562501E-002  0.2161200E+03  0.7818608E-02  0.1137411E+00
         21   -1    0    0  501  502  0.00000000000E+00  0.00000000000E+00  0.24493053693E+03  0.24493053693E+03  0.00000000000E+00 0.  1.
         21   -1    0    0  502  503 -0.00000000000E+00 -0.00000000000E+00 -0.20950678362E+03  0.20950678362E+03  0.00000000000E+00 0.  1.
         -6    2    1    2    0  503 -0.89922898842E+02  0.84845086499E+02 -0.55295195538E+02  0.22004924019E+03  0.17343382894E+03 0.  0.
        -24    2    3    3    0    0 -0.72259594363E+02  0.28659970979E+02 -0.98263210789E+02  0.14699378272E+03  0.76867877885E+02 0.  0.
          6    2    1    2  501    0  0.89922898842E+02 -0.84845086499E+02  0.90718948851E+02  0.23438808036E+03  0.17726541708E+03 0.  0.
         24    2    5    5    0    0 -0.45637615694E+01  0.84238443523E+01  0.47727350490E+02  0.94755741741E+02  0.81295519770E+02 0.  0.
          5    1    5    5  501    0  0.94486660411E+02 -0.93268930851E+02  0.42991598361E+02  0.13963233862E+03  0.47000000000E+01 0. -1.
        -13    1    6    6    0    0  0.38090062466E+02  0.17098520909E+01  0.27877073315E+02  0.47232485320E+02  0.00000000000E+00 0.  1.
         14    1    6    6    0    0 -0.42653824036E+02  0.67139922614E+01  0.19850277175E+02  0.47523256421E+02  0.00000000000E+00 0. -1.
         -5    1    3    3    0  503 -0.17663304479E+02  0.56185115519E+02  0.42968015252E+02  0.73055457467E+02  0.47000000000E+01 0.  1.
         13    1    4    4    0    0  0.54149869021E+01 -0.11394297618E+02  0.32661451030E+01  0.13031492822E+02  0.00000000000E+00 0. -1.
        -14    1    4    4    0    0 -0.77674581265E+02  0.40054268597E+02 -0.10152935589E+03  0.13396228990E+03  0.00000000000E+00 0.  1.
</event>
<event>
12    1  0.8562501E-002  0.1843705E+03  0.7818608E-02  0.1163842E+00
         21   -1    0    0  501  502  0.00000000000E+00  0.00000000000E+00  0.35344213544E+03  0.35344213544E+03  0.00000000000E+00 0.  1.
         21   -1    0    0  502  503 -0.00000000000E+00 -0.00000000000E+00 -0.10722429153E+03  0.10722429153E+03  0.00000000000E+00 0.  1.
         -6    2    1    2    0  503  0.53585787953E+02 -0.39841456423E+02  0.47938130168E+02  0.19050077961E+03  0.17185372963E+03 0.  0.
        -24    2    3    3    0    0  0.14685424191E+02  0.17534189180E+02 -0.28003042063E+02  0.87571898104E+02  0.79759372483E+02 0.  0.
          6    2    1    2  501    0 -0.53585787953E+02  0.39841456423E+02  0.19827971374E+03  0.27016564735E+03  0.17092645730E+03 0.  0.
         24    2    5    5    0    0 -0.32352216720E+02  0.20488524358E+01  0.20804343799E+03  0.22548270010E+03  0.80681548274E+02 0.  0.
          5    1    5    5  501    0 -0.21233571233E+02  0.37792603987E+02 -0.97637242481E+01  0.44682947247E+02  0.47000000000E+01 0. -1.
        -13    1    6    6    0    0  0.12752057836E+02  0.16801046171E+02  0.14525343193E+03  0.14677687018E+03  0.00000000000E+00 0.  1.
         14    1    6    6    0    0 -0.45104274556E+02 -0.14752193735E+02  0.62790006058E+02  0.78705829924E+02  0.00000000000E+00 0. -1.
         -5    1    3    3    0  503  0.38900363763E+02 -0.57375645603E+02  0.75941172231E+02  0.10292888151E+03  0.47000000000E+01 0.  1.
         11    1    4    4    0    0  0.11888261158E+02  0.24039329096E+02  0.23455545793E+02  0.35628397736E+02  0.00000000000E+00 0. -1.
        -12    1    4    4    0    0  0.27971630323E+01 -0.65051399158E+01 -0.51458587856E+02  0.51943500368E+02  0.00000000000E+00 0.  1.
</event>
<event>
12    1  0.8562501E-002  0.1764462E+03  0.7818608E-02  0.1172657E+00
         21   -1    0    0  503  502  0.00000000000E+00  0.00000000000E+00  0.89766256618E+02  0.89766256618E+02  0.00000000000E+00 0. -1.
         21   -1    0    0  501  503 -0.00000000000E+00 -0.00000000000E+00 -0.12247552016E+04  0.12247552016E+04  0.00000000000E+00 0. -1.
          6    2    1    2  501    0  0.32788095759E+02 -0.15969821130E+02 -0.11297198546E+04  0.11434160236E+04  0.17263591416E+03 0.  0.
         24    2    3    3    0    0  0.71445022250E+02 -0.52932730824E+02 -0.88106909585E+03  0.88903460828E+03  0.78698906387E+02 0.  0.
         -6    2    1    2    0  502 -0.32788095759E+02  0.15969821130E+02 -0.52690904161E+01  0.17110543460E+03  0.16709043068E+03 0.  0.
        -24    2    5    5    0    0 -0.92781975992E+01 -0.42792409590E+02  0.31853313567E+02  0.97580758821E+02  0.81179404023E+02 0.  0.
          5    1    3    3  501    0 -0.38656926490E+02  0.36962909693E+02 -0.24865075874E+03  0.25438141536E+03  0.47000000000E+01 0. -1.
        -11    1    4    4    0    0  0.62174430867E+02 -0.23074570363E+02 -0.30542078585E+03  0.31253792103E+03  0.00000000000E+00 0.  1.
         12    1    4    4    0    0  0.92705913830E+01 -0.29858160461E+02 -0.57564831000E+03  0.57649668726E+03  0.00000000000E+00 0. -1.
         -5    1    5    5    0  502 -0.23509898160E+02  0.58762230720E+02 -0.37122403983E+02  0.73524675778E+02  0.47000000000E+01 0.  1.
         11    1    6    6    0    0  0.36120030965E+02 -0.20069789232E+02  0.11561094867E+02  0.42908180936E+02  0.00000000000E+00 0. -1.
        -12    1    6    6    0    0 -0.45398228564E+02 -0.22722620359E+02  0.20292218700E+02  0.54672577885E+02  0.00000000000E+00 0.  1.
</event>
<event>
12    1  0.8562501E-002  0.2165473E+03  0.7818608E-02  0.1137154E+00
         21   -1    0    0  503  502  0.00000000000E+00  0.00000000000E+00  0.10012245880E+03  0.10012245880E+03  0.00000000000E+00 0. -1.
         21   -1    0    0  501  503 -0.00000000000E+00 -0.00000000000E+00 -0.94007663755E+03  0.94007663755E+03  0.00000000000E+00 0. -1.
          6    2    1    2  501    0 -0.55623000765E+02  0.12011231632E+03 -0.78964805563E+03  0.81788525399E+03  0.16694714787E+03 0.  0.
         24    2    3    3    0    0 -0.69840160838E+01  0.32519555231E+01 -0.22033318600E+03  0.23464979078E+03  0.80339652512E+02 0.  0.
         -6    2    1    2    0  502  0.55623000765E+02 -0.12011231632E+03 -0.50306123110E+02  0.22231384236E+03  0.17138218034E+03 0.  0.
        -24    2    5    5    0    0  0.56529506517E+02 -0.13551218766E+03  0.27692571663E+01  0.16684255446E+03  0.79181002021E+02 0.  0.
          5    1    3    3  501    0 -0.48638984681E+02  0.11686036079E+03 -0.56931486963E+03  0.58323546321E+03  0.47000000000E+01 0. -1.
        -11    1    4    4    0    0  0.62439561380E+01 -0.15805762585E+02 -0.45089866103E+01  0.17582379799E+02  0.00000000000E+00 0.  1.
         12    1    4    4    0    0 -0.13227972222E+02  0.19057718108E+02 -0.21582419939E+03  0.21706741098E+03  0.00000000000E+00 0. -1.
         -5    1    5    5    0  502 -0.90650575179E+00  0.15399871348E+02 -0.53075380276E+02  0.55471287903E+02  0.47000000000E+01 0.  1.
         13    1    6    6    0    0  0.16928500421E+02 -0.48020182375E+02 -0.36955080482E+02  0.62914147973E+02  0.00000000000E+00 0. -1.
        -14    1    6    6    0    0  0.39601006096E+02 -0.87492005289E+02  0.39724337648E+02  0.10392840649E+03  0.00000000000E+00 0.  1.
</event>
<event>
12    1  0.8562501E-002  0.1900446E+03  0.7818608E-02  0.1159216E+00
         21   -1    0    0  501  502  0.00000000000E+00  0.00000000000E+00  0.19679668417E+02  0.19679668417E+02  0.00000000000E+00 0.  1.
         21   -1    0    0  502  503 -0.00000000000E+00 -0.00000000000E+00 -0.25801793976E+04  0.25801793976E+04  0.00000000000E+00 0.  1.
         -6    2    1    2    0  503  0.55032685655E+02  0.48738618435E+02 -0.20025526558E+04  0.20115501722E+04  0.17525098218E+03 0.  0.
        -24    2    3    3    0    0 -0.18174507215E+02 -0.16398394699E+02 -0.12412590795E+04  0.12439616608E+04  0.78213113005E+02 0.  0.
          6    2    1    2  501    0 -0.55032685655E+02 -0.48738618435E+02 -0.55794707342E+03  0.58830889382E+03  0.17145952405E+03 0.  0.
         24    2    5    5    0    0 -0.94005121432E+02 -0.64681723154E+02 -0.47584137544E+03  0.49591588012E+03  0.80541029374E+02 0.  0.
          5    1    5    5  501    0  0.38972435777E+02  0.15943104719E+02 -0.82105697978E+02  0.92393013691E+02  0.47000000000E+01 0. -1.
        -13    1    6    6    0    0 -0.72562257142E+02 -0.49583230199E+02 -0.19544082226E+03  0.21429160712E+03  0.00000000000E+00 0.  1.
         14    1    6    6    0    0 -0.21442864291E+02 -0.15098492955E+02 -0.28040055318E+03  0.28162427300E+03  0.00000000000E+00 0. -1.
         -5    1    3    3    0  503  0.73207192870E+02  0.65137013134E+02 -0.76129357630E+03  0.76758851143E+03  0.47000000000E+01 0.  1.
         13    1    4    4    0    0 -0.35596937860E+02  0.67080924321E+01 -0.10402139293E+04  0.10408444452E+04  0.00000000000E+00 0. -1.
        -14    1    4    4    0    0  0.17422430645E+02 -0.23106487131E+02 -0.20104515026E+03  0.20311721562E+03  0.00000000000E+00 0.  1.
</event>
<event>
12    1  0.8562501E-002  0.2038461E+03  0.7818608E-02  0.1146658E+00
         21   -1    0    0  501  502  0.00000000000E+00  0.00000000000E+00  0.25382759265E+03  0.25382759265E+03  0.00000000000E+00 0. -1.
         21   -1    0    0  502  503 -0.00000000000E+00 -0.00000000000E+00 -0.37233511728E+03  0.37233511728E+03  0.00000000000E+00 0. -1.
         -6    2    1    2    0  503 -0.90060869714E+02 -0.60242295514E+02 -0.29384321587E+03  0.35728386834E+03  0.17195299544E+03 0.  0.
        -24    2    3    3    0    0 -0.12767832189E+02 -0.66689238188E+02 -0.24455628754E+03  0.26526719581E+03  0.77126100428E+02 0.  0.
          6    2    1    2  501    0  0.90060869714E+02  0.60242295514E+02  0.17533569125E+03  0.26887884159E+03  0.17266479781E+03 0.  0.
         24    2    5    5    0    0 -0.23556966749E+02  0.11343945533E+02  0.56413513616E+02  0.97226181465E+02  0.74745100583E+02 0.  0.
          5    1    5    5  501    0  0.11361783646E+03  0.48898349981E+02  0.11892217764E+03  0.17165266012E+03  0.47000000000E+01 0. -1.
        -13    1    6    6    0    0 -0.24428950593E+02 -0.94835862154E+00 -0.12334299378E+02  0.27382621356E+02  0.00000000000E+00 0.  1.
         14    1    6    6    0    0  0.87198384415E+00  0.12292304155E+02  0.68747812994E+02  0.69843560109E+02  0.00000000000E+00 0. -1.
         -5    1    3    3    0  503 -0.77293037525E+02  0.64469426734E+01 -0.49286928330E+02  0.92016672532E+02  0.47000000000E+01 0.  1.
         11    1    4    4    0    0 -0.28497054796E+02 -0.64737338538E+02 -0.11691778772E+03  0.13664835974E+03  0.00000000000E+00 0. -1.
        -12    1    4    4    0    0  0.15729222607E+02 -0.19518996497E+01 -0.12763849982E+03  0.12861883608E+03  0.00000000000E+00 0.  1.
</event>
<event>
12    1  0.8562501E-002  0.2234154E+03  0.7818608E-02  0.1131502E+00
         21   -1    0    0  501  502  0.00000000000E+00  0.00000000000E+00  0.24627906402E+03  0.24627906402E+03  0.00000000000E+00 0. -1.
         21   -1    0    0  502  503 -0.00000000000E+00 -0.00000000000E+00 -0.22115549340E+03  0.22115549340E+03  0.00000000000E+00 0.  1.
         -6    2    1    2    0  503 -0.56835485132E+02  0.12882323566E+03  0.81400486684E+02  0.23778238439E+03  0.17346101775E+03 0.  0.
        -24    2    3    3    0    0  0.35059791973E+02  0.59075414948E+02  0.48222809019E+02  0.11764767357E+03  0.82440536892E+02 0.  0.
          6    2    1    2  501    0  0.56835485132E+02 -0.12882323566E+03 -0.56276916065E+02  0.22965217304E+03  0.17247414555E+03 0.  0.
         24    2    5    5    0    0 -0.35919450048E+02 -0.26992868593E+02 -0.34019841143E+02  0.90044261224E+02  0.70226758016E+02 0.  0.
          5    1    5    5  501    0  0.92754935180E+02 -0.10183036706E+03 -0.22257074922E+02  0.13960791181E+03  0.47000000000E+01 0. -1.
        -11    1    6    6    0    0 -0.61932347883E+00  0.11815330598E+02 -0.35645617447E+02  0.37557897197E+02  0.00000000000E+00 0.  1.
         12    1    6    6    0    0 -0.35300126569E+02 -0.38808199190E+02  0.16257763041E+01  0.52486364027E+02  0.00000000000E+00 0. -1.
         -5    1    3    3    0  503 -0.91895277105E+02  0.69747820709E+02  0.33177677665E+02  0.12013471082E+03  0.47000000000E+01 0.  1.
         13    1    4    4    0    0  0.26441075828E+02  0.26729899464E+02  0.68765416095E+02  0.78372829903E+02  0.00000000000E+00 0. -1.
        -14    1    4    4    0    0  0.86187161452E+01  0.32345515483E+02 -0.20542607076E+02  0.39274843670E+02  0.00000000000E+00 0.  1.
</event>
<event>
12    1  0.8562501E-002  0.2505672E+03  0.7818608E-02  0.1112993E+00
         21   -1    0    0  501  502  0.00000000000E+00  0.00000000000E+00  0.59249777843E+03  0.59249777843E+03  0.00000000000E+00 0.  1.
         21   -1    0    0  502  503 -0.00000000000E+00 -0.00000000000E+00 -0.22719362317E+03  0.22719362317E+03  0.00000000000E+00 0. -1.
         -6    2    1    2    0  503  0.13498063221E+03  0.12147018433E+03 -0.11683187950E+03  0.27646625043E+03  0.17265318650E+03 0.  0.
        -24    2    3    3    0    0  0.63055701798E+02  0.73397022351E+02 -0.58344311842E+01  0.13565876466E+03  0.94900555441E+02 0.  0.
          6    2    1    2  501    0 -0.13498063221E+03 -0.12147018433E+03  0.48213603476E+03  0.54322515117E+03  0.17223133308E+03 0.  0.
         24    2    5    5    0    0 -0.10476451056E+03 -0.15117357302E+03  0.33939264111E+03  0.39425175845E+03  0.80112622907E+02 0.  0.
          5    1    5    5  501    0 -0.30216121653E+02  0.29703388693E+02  0.14274339365E+03  0.14897339272E+03  0.47000000000E+01 0. -1.
        -11    1    6    6    0    0  0.17971259534E+01 -0.18688059247E+02  0.93092001291E+02  0.94966277828E+02  0.00000000000E+00 0.  1.
         12    1    6    6    0    0 -0.10656163651E+03 -0.13248551377E+03  0.24630063982E+03  0.29928548062E+03  0.00000000000E+00 0. -1.
         -5    1    3    3    0  503  0.71924930414E+02  0.48073161975E+02 -0.11099744831E+03  0.14080748577E+03  0.47000000000E+01 0.  1.
         13    1    4    4    0    0  0.16328820687E+01  0.34526403514E+02 -0.42062047995E+02  0.54442214549E+02  0.00000000000E+00 0. -1.
        -14    1    4    4    0    0  0.61422819729E+02  0.38870618837E+02  0.36227616811E+02  0.81216550112E+02  0.00000000000E+00 0.  1.
</event>
<event>
12    1  0.8562501E-002  0.1928921E+03  0.7818608E-02  0.1156303E+00
         21   -1    0    0  503  502  0.00000000000E+00  0.00000000000E+00  0.51445059787E+02  0.51445059787E+02  0.00000000000E+00 0.  1.
         21   -1    0    0  501  503 -0.00000000000E+00 -0.00000000000E+00 -0.81137848029E+03  0.81137848029E+03  0.00000000000E+00 0.  1.
          6    2    1    2  501    0 -0.60910782261E+02 -0.61524804224E+02 -0.52946677090E+03  0.56350902978E+03  0.17237151799E+03 0.  0.
         24    2    3    3    0    0  0.25509286905E+02 -0.85747622264E+01 -0.31624294936E+03  0.32737639040E+03  0.80258630119E+02 0.  0.
         -6    2    1    2    0  502  0.60910782261E+02  0.61524804224E+02 -0.23046664959E+03  0.29931451030E+03  0.17023182596E+03 0.  0.
        -24    2    5    5    0    0  0.21524059188E+02  0.54419956206E+02 -0.44157230893E+02  0.10869687649E+03  0.80251686351E+02 0.  0.
          5    1    3    3  501    0 -0.86420069166E+02 -0.52950041998E+02 -0.21322382155E+03  0.23613263937E+03  0.47000000000E+01 0. -1.
        -13    1    4    4    0    0  0.50118323380E+00 -0.42243091455E+02 -0.14156760738E+03  0.14773664887E+03  0.00000000000E+00 0.  1.
         14    1    4    4    0    0  0.25008103672E+02  0.33668329229E+02 -0.17467534198E+03  0.17963974153E+03  0.00000000000E+00 0. -1.
         -5    1    5    5    0  502  0.39386723072E+02  0.71048480182E+01 -0.18630941870E+03  0.19061763380E+03  0.47000000000E+01 0.  1.
         11    1    6    6    0    0  0.11588913056E+02 -0.16845045788E+02  0.56178471860E+01  0.21204213742E+02  0.00000000000E+00 0. -1.
        -12    1    6    6    0    0  0.99351461318E+01  0.71265001993E+02 -0.49775078079E+02  0.87492662752E+02  0.00000000000E+00 0.  1.
</event>
<event>
12    1  0.8562501E-002  0.2141349E+03  0.7818608E-02  0.1139110E+00
         21   -1    0    0  503  502  0.00000000000E+00  0.00000000000E+00  0.57362267362E+02  0.57362267362E+02  0.00000000000E+00 0.  1.
         21   -1    0    0  501  503 -0.00000000000E+00 -0.00000000000E+00 -0.93631232953E+03  0.93631232953E+03  0.00000000000E+00 0. -1.
          6    2    1    2  501    0  0.59801970537E+02 -0.10666278730E+03 -0.63602459713E+03  0.66984358723E+03  0.17090909082E+03 0.  0.
         24    2    3    3    0    0  0.49704899566E+02 -0.10537140389E+03 -0.27859586196E+03  0.31223904414E+03  0.79396829826E+02 0.  0.
         -6    2    1    2    0  502 -0.59801970537E+02  0.10666278730E+03 -0.24292546504E+03  0.32383100966E+03  0.17578542425E+03 0.  0.
        -24    2    5    5    0    0 -0.91592379639E+02  0.90419758524E+02 -0.24252895859E+03  0.28782110391E+03  0.86346947619E+02 0.  0.
          5    1    3    3  501    0  0.10097070971E+02 -0.12913834075E+01 -0.35742873517E+03  0.35760454309E+03  0.47000000000E+01 0. -1.
        -11    1    4    4    0    0  0.61552452545E+02 -0.69339117127E+02 -0.13538670107E+03  0.16409197544E+03  0.00000000000E+00 0.  1.
         12    1    4    4    0    0 -0.11847552980E+02 -0.36032286766E+02 -0.14320916089E+03  0.14814706870E+03  0.00000000000E+00 0. -1.
         -5    1    5    5    0  502  0.31790409103E+02  0.16243028777E+02 -0.39650645159E+00  0.36009905750E+02  0.47000000000E+01 0.  1.
         11    1    6    6    0    0  0.75286791787E+01 -0.70339084119E+01 -0.45760780682E+02  0.46906352729E+02  0.00000000000E+00 0. -1.
        -12    1    6    6    0    0 -0.99121058818E+02  0.97453666936E+02 -0.19676817790E+03  0.24091475118E+03  0.00000000000E+00 0.  1.
</event>
<event>
12    1  0.8562501E-002  0.2128924E+03  0.7818608E-02  0.1141623E+00
         21   -1    0    0  503  502  0.00000000000E+00  0.00000000000E+00  0.25168072048E+03  0.25168072048E+03  0.00000000000E+00 0. -1.
         21   -1    0    0  501  503 -0.00000000000E+00 -0.00000000000E+00 -0.17818194781E+03  0.17818194781E+03  0.00000000000E+00 0.  1.
          6    2    1    2  501    0  0.75355267940E+02 -0.10304864596E+03 -0.91551789657E+01  0.20148832398E+03  0.15561583324E+03 0.  0.
         24    2    3    3    0    0  0.41276977704E+02  0.20022526562E+01  0.20850134745E+00  0.90552352916E+02  0.80572248583E+02 0.  0.
         -6    2    1    2    0  502 -0.75355267940E+02  0.10304864596E+03  0.82653951631E+02  0.22837434432E+03  0.17036937982E+03 0.  0.
        -24    2    5    5    0    0 -0.60222518755E+02  0.13726468137E+03  0.79963391312E+02  0.19057135115E+03  0.86342060506E+02 0.  0.
          5    1    3    3  501    0  0.34078290236E+02 -0.10505089862E+03 -0.93636803132E+01  0.11093597106E+03  0.47000000000E+01 0. -1.
        -13    1    4    4    0    0  0.26267330218E+02 -0.30984757018E+02 -0.23800642727E+02  0.47079702616E+02  0.00000000000E+00 0.  1.
         14    1    4    4    0    0  0.15009647486E+02  0.32987009674E+02  0.24009144074E+02  0.43472650300E+02  0.00000000000E+00 0. -1.
         -5    1    5    5    0  502 -0.15132749186E+02 -0.34216035411E+02  0.26905603188E+01  0.37802993162E+02  0.47000000000E+01 0.  1.
         13    1    6    6    0    0 -0.44808428684E+02  0.59532480396E+02  0.82651852518E+02  0.11128000821E+03  0.00000000000E+00 0. -1.
        -14    1    6    6    0    0 -0.15414090071E+02  0.77732200978E+02 -0.26884612059E+01  0.79291342941E+02  0.00000000000E+00 0.  1.
</event>
<event>
12    1  0.8562501E-002  0.1790128E+03  0.7818608E-02  0.1168780E+00
         21   -1    0    0  501  502  0.00000000000E+00  0.00000000000E+00  0.15924984631E+03  0.15924984631E+03  0.00000000000E+00 0. -1.
         21   -1    0    0  502  503 -0.00000000000E+00 -0.00000000000E+00 -0.26512454314E+03  0.26512454314E+03  0.00000000000E+00 0. -1.
         -6    2    1    2    0  503 -0.36758649746E+02 -0.35772273270E+02  0.51288818103E+02  0.18621529350E+03  0.17150725584E+03 0.  0.
        -24    2    3    3    0    0 -0.21321733498E+02 -0.57347170287E+02 -0.26019835589E+02  0.10434654183E+03  0.80422973639E+02 0.  0.
          6    2    1    2  501    0  0.36758649746E+02  0.35772273270E+02 -0.15716351493E+03  0.23815909594E+03  0.17143083353E+03 0.  0.
         24    2    5    5    0    0  0.75732379664E+02  0.12859942946E+02 -0.15756837133E+03  0.19270383867E+03  0.80038780185E+02 0.  0.
          5    1    5    5  501    0 -0.38973729918E+02  0.22912330325E+02  0.40485639428E+00  0.45455257268E+02  0.47000000000E+01 0. -1.
        -13    1    6    6    0    0  0.82558705443E+02 -0.10869646711E+02 -0.13808843992E+03  0.16125292650E+03  0.00000000000E+00 0.  1.
         14    1    6    6    0    0 -0.68263257787E+01  0.23729589657E+02 -0.19479931403E+02  0.31450912171E+02  0.00000000000E+00 0. -1.
         -5    1    3    3    0  503 -0.15436916248E+02  0.21574897016E+02  0.77308653692E+02  0.81868751671E+02  0.47000000000E+01 0.  1.
         11    1    4    4    0    0 -0.66847199111E+01 -0.45959119520E+02  0.23079714043E+02  0.51861347338E+02  0.00000000000E+00 0. -1.
        -12    1    4    4    0    0 -0.14637013587E+02 -0.11388050766E+02 -0.49099549632E+02  0.52485194494E+02  0.00000000000E+00 0.  1.
</event>
<event>
12    1  0.8562501E-002  0.1882382E+03  0.7818608E-02  0.1160488E+00
         21   -1    0    0  503  502  0.00000000000E+00  0.00000000000E+00  0.47930235625E+03  0.47930235625E+03  0.00000000000E+00 0. -1.
         21   -1    0    0  501  503 -0.00000000000E+00 -0.00000000000E+00 -0.24484428215E+03  0.24484428215E+03  0.00000000000E+00 0. -1.
          6    2    1    2  501    0 -0.10656542567E+02  0.71703047664E+02 -0.18610379928E+03  0.26338000454E+03  0.17169599221E+03 0.  0.
         24    2    3    3    0    0 -0.60583435242E+02  0.25156653334E+02 -0.56291006612E+02  0.11663971499E+03  0.78313063116E+02 0.  0.
         -6    2    1    2    0  502  0.10656542567E+02 -0.71703047664E+02  0.42056187338E+03  0.46076663385E+03  0.17372021353E+03 0.  0.
        -24    2    5    5    0    0 -0.66570828372E+01  0.29592031452E+02  0.13930279289E+03  0.16128505674E+03  0.75416154376E+02 0.  0.
          5    1    3    3  501    0  0.49926892675E+02  0.46546394330E+02 -0.12981279267E+03  0.14674028955E+03  0.47000000000E+01 0. -1.
        -13    1    4    4    0    0 -0.33662590782E+02 -0.17568133181E+02  0.37842837087E+01  0.38159273117E+02  0.00000000000E+00 0.  1.
         14    1    4    4    0    0 -0.26920844460E+02  0.42724786515E+02 -0.60075290321E+02  0.78480441872E+02  0.00000000000E+00 0. -1.
         -5    1    5    5    0  502  0.17313625405E+02 -0.10129507912E+03  0.28125908049E+03  0.29948157712E+03  0.47000000000E+01 0.  1.
         11    1    6    6    0    0 -0.11892013424E+02  0.91178245859E+01  0.13934873657E+03  0.14015214979E+03  0.00000000000E+00 0. -1.
        -12    1    6    6    0    0  0.52349305867E+01  0.20474206866E+02 -0.45943674393E-01  0.21132906943E+02  0.00000000000E+00 0.  1.
</event>
<event>
12    1  0.8562501E-002  0.2370720E+03  0.7818608E-02  0.1121831E+00
         21   -1    0    0  503  502  0.00000000000E+00  0.00000000000E+00  0.45338702991E+03  0.45338702991E+03  0.00000000000E+00 0.  1.
         21   -1    0    0  501  503 -0.00000000000E+00 -0.00000000000E+00 -0.40929621662E+03  0.40929621662E+03  0.00000000000E+00 0.  1.
          6    2    1    2  501    0 -0.16112906097E+03 -0.23210044753E+02 -0.33824759119E+03  0.41281017093E+03  0.17175425414E+03 0.  0.
         24    2    3    3    0    0 -0.15693749066E+03 -0.55292822049E+02 -0.33141616800E+03  0.37940909006E+03  0.80174241907E+02 0.  0.
         -6    2    1    2    0  502  0.16112906097E+03  0.23210044753E+02  0.38233840448E+03  0.44987307560E+03  0.17234224133E+03 0.  0.
        -24    2    5    5    0    0  0.10973301374E+03 -0.12079909777E+02  0.35746015883E+03  0.38258301937E+03  0.80029638462E+02 0.  0.
          5    1    3    3  501    0 -0.41915703075E+01  0.32082777295E+02 -0.68314231901E+01  0.33401080872E+02  0.47000000000E+01 0. -1.
        -11    1    4    4    0    0 -0.10528758353E+03 -0.95409159608E+01 -0.13657665934E+03  0.17271273317E+03  0.00000000000E+00 0.  1.
         12    1    4    4    0    0 -0.51649907128E+02 -0.45751906088E+02 -0.19483950866E+03  0.20669635689E+03  0.00000000000E+00 0. -1.
         -5    1    5    5    0  502  0.51396047228E+02  0.35289954531E+02  0.24878245647E+02  0.67290056233E+02  0.47000000000E+01 0.  1.
         13    1    6    6    0    0  0.99460304890E+01 -0.27237262929E+02  0.39586902193E+02  0.49070508858E+02  0.00000000000E+00 0. -1.
        -14    1    6    6    0    0  0.99786983250E+02  0.15157353151E+02  0.31787325664E+03  0.33351251051E+03  0.00000000000E+00 0.  1.
</event>
<event>
12    1  0.8562501E-002  0.2048496E+03  0.7818608E-02  0.1145746E+00
         21   -1    0    0  503  502  0.00000000000E+00  0.00000000000E+00  0.24755758371E+03  0.24755758371E+03  0.00000000000E+00 0. -1.
         21   -1    0    0  501  503 -0.00000000000E+00 -0.00000000000E+00 -0.20956126963E+03  0.20956126963E+03  0.00000000000E+00 0. -1.
          6    2    1    2  501    0 -0.79029075327E+02  0.78290371758E+02 -0.81092559838E+02  0.22031654755E+03  0.17201279256E+03 0.  0.
         24    2    3    3    0    0 -0.99852869641E+02  0.10437425116E+03 -0.84654318348E+02  0.18642295968E+03  0.81991380041E+02 0.  0.
         -6    2    1    2    0  502  0.79029075327E+02 -0.78290371758E+02  0.11908887392E+03  0.23680230580E+03  0.17180860015E+03 0.  0.
        -24    2    5    5    0    0  0.11519360903E+03 -0.85225758040E+02  0.11350644403E+03  0.19926263872E+03  0.79302515460E+02 0.  0.
          5    1    3    3  501    0  0.20823794314E+02 -0.26083879406E+02  0.35617585099E+01  0.33893587862E+02  0.47000000000E+01 0. -1.
        -13    1    4    4    0    0 -0.70871080916E+02  0.10053466970E+03 -0.33467136077E+02  0.12747540594E+03  0.00000000000E+00 0.  1.
         14    1    4    4    0    0 -0.28981788725E+02  0.38395814601E+01 -0.51187182271E+02  0.58947553743E+02  0.00000000000E+00 0. -1.
         -5    1    5    5    0  502 -0.36164533706E+02  0.69353862821E+01  0.55824298884E+01  0.37539667080E+02  0.47000000000E+01 0.  1.
         13    1    6    6    0    0  0.11243672408E+02 -0.34826465717E+01 -0.12097379890E+02  0.16878850570E+02  0.00000000000E+00 0. -1.
        -14    1    6    6    0    0  0.10394993662E+03 -0.81743111469E+02  0.12560382392E+03  0.18238378815E+03  0.00000000000E+00 0.  1.
</event>
<event>
12    1  0.8562501E-002  0.2102992E+03  0.7818608E-02  0.1141481E+00
         21   -1    0    0  503  502  0.00000000000E+00  0.00000000000E+00  0.40200170362E+03  0.40200170362E+03  0.00000000000E+00 0.  1.
         21   -1    0    0  501  503 -0.00000000000E+00 -0.00000000000E+00 -0.14289197025E+03  0.14289197025E+03  0.00000000000E+00 0.  1.
          6    2    1    2  501    0  0.97934015828E+02 -0.74595378862E+02 -0.21063438921E+01  0.20954370981E+03  0.16955408469E+03 0.  0.
         24    2    3    3    0    0  0.12086252871E+03 -0.26313923019E+02  0.22644671246E+02  0.15045463780E+03  0.82605347938E+02 0.  0.
         -6    2    1    2    0  502 -0.97934015828E+02  0.74595378862E+02  0.26121607726E+03  0.33534996406E+03  0.17049990431E+03 0.  0.
        -24    2    5    5    0    0 -0.11247000963E+03  0.59120726068E+02  0.11803018991E+03  0.19052231362E+03  0.78885124952E+02 0.  0.
          5    1    3    3  501    0 -0.22928512883E+02 -0.48281455843E+02 -0.24751015138E+02  0.59089072016E+02  0.47000000000E+01 0. -1.
        -11    1    4    4    0    0 -0.24322241881E+01 -0.19233746595E+02  0.18636321825E+02  0.26891731326E+02  0.00000000000E+00 0.  1.
         12    1    4    4    0    0  0.12329475290E+03 -0.70801764247E+01  0.40083494214E+01  0.12356290647E+03  0.00000000000E+00 0. -1.
         -5    1    5    5    0  502  0.14535993805E+02  0.15474652795E+02  0.14318588735E+03  0.14482765043E+03  0.47000000000E+01 0.  1.
         13    1    6    6    0    0 -0.91991795537E+02  0.45378996189E+02  0.42435906572E+02  0.11100698135E+03  0.00000000000E+00 0. -1.
        -14    1    6    6    0    0 -0.20478214096E+02  0.13741729879E+02  0.75594283342E+02  0.79515332274E+02  0.00000000000E+00 0.  1.
</event>
<event>
12    1  0.8562501E-002  0.1767327E+03  0.7818608E-02  0.1171544E+00
         21   -1    0    0  503  502  0.00000000000E+00  0.00000000000E+00  0.89909914044E+03  0.89909914044E+03  0.00000000000E+00 0. -1.
         21   -1    0    0  501  503 -0.00000000000E+00 -0.00000000000E+00 -0.72971167336E+02  0.72971167336E+02  0.00000000000E+00 0. -1.
          6    2    1    2  501    0 -0.14222599996E+02  0.29880010066E+02  0.58115793699E+02  0.18398582862E+03  0.17140082352E+03 0.  0.
         24    2    3    3    0    0 -0.45887477918E+02  0.16105563619E+02  0.95555858806E+02  0.13283655351E+03  0.78419245007E+02 0.  0.
         -6    2    1    2    0  502  0.14222599996E+02 -0.29880010066E+02  0.76801217941E+03  0.78808447916E+03  0.17360685822E+03 0.  0.
        -24    2    5    5    0    0 -0.57755503527E+02 -0.36562864910E+02  0.45410033761E+03  0.46592265281E+03  0.78767128334E+02 0.  0.
          5    1    3    3  501    0  0.31664877922E+02  0.13774446447E+02 -0.37440065108E+02  0.51149275107E+02  0.47000000000E+01 0. -1.
        -13    1    4    4    0    0 -0.27040908628E+02  0.14076704380E+02 -0.46636925202E+01  0.30840142242E+02  0.00000000000E+00 0.  1.
         14    1    4    4    0    0 -0.18846569291E+02  0.20288592399E+01  0.10021955133E+03  0.10199641127E+03  0.00000000000E+00 0. -1.
         -5    1    5    5    0  502  0.71978103523E+02  0.66828548437E+01  0.31391184180E+03  0.32216182635E+03  0.47000000000E+01 0.  1.
         13    1    6    6    0    0  0.96338278727E+01 -0.11347973969E+02  0.23159355689E+03  0.23207146043E+03  0.00000000000E+00 0. -1.
        -14    1    6    6    0    0 -0.67389331400E+02 -0.25214890941E+02  0.22250678072E+03  0.23385119238E+03  0.00000000000E+00 0.  1.
</event>
<event>
12    1  0.8562501E-002  0.6534022E+03  0.7818608E-02  0.9801201E-01
         21   -1    0    0  503  502  0.00000000000E+00  0.00000000000E+00  0.23224747792E+03  0.23224747792E+03  0.00000000000E+00 0. -1.
         21   -1    0    0  501  503 -0.00000000000E+00 -0.00000000000E+00 -0.19821026921E+04  0.19821026921E+04  0.00000000000E+00 0.  1.
          6    2    1    2  501    0  0.61414597137E+03 -0.13447490819E+03 -0.11790792725E+04  0.13480216715E+04  0.17797674232E+03 0.  0.
         24    2    3    3    0    0  0.23328508957E+03 -0.11527151788E+03 -0.50460009548E+03  0.57318747519E+03  0.78823660798E+02 0.  0.
         -6    2    1    2    0  502 -0.61414597137E+03  0.13447490819E+03 -0.57077594171E+03  0.86632849859E+03  0.17170066031E+03 0.  0.
        -24    2    5    5    0    0 -0.19266966074E+03  0.58304051508E+02 -0.25289551103E+03  0.33292964404E+03  0.79781249597E+02 0.  0.
          5    1    3    3  501    0  0.38086088179E+03 -0.19203390311E+02 -0.67447917702E+03  0.77483419627E+03  0.47000000000E+01 0. -1.
        -13    1    4    4    0    0  0.20415430183E+03 -0.84784260029E+02 -0.35898016382E+03  0.42158523185E+03  0.00000000000E+00 0.  1.
         14    1    4    4    0    0  0.29130787744E+02 -0.30487257852E+02 -0.14561993166E+03  0.15160224333E+03  0.00000000000E+00 0. -1.
         -5    1    5    5    0  502 -0.42147631062E+03  0.76170856686E+02 -0.31788043068E+03  0.53339885455E+03  0.47000000000E+01 0.  1.
         13    1    6    6    0    0 -0.17772415844E+03  0.48202120990E+02 -0.25524610926E+03  0.31473782304E+03  0.00000000000E+00 0. -1.
        -14    1    6    6    0    0 -0.14945502299E+02  0.10101930517E+02  0.23505982259E+01  0.18191820997E+02  0.00000000000E+00 0.  1.
</event>
<event>
12    1  0.8562501E-002  0.1792547E+03  0.7818608E-02  0.1169363E+00
         21   -1    0    0  503  502  0.00000000000E+00  0.00000000000E+00  0.80356862847E+03  0.80356862847E+03  0.00000000000E+00 0. -1.
         21   -1    0    0  501  503 -0.00000000000E+00 -0.00000000000E+00 -0.19880876284E+03  0.19880876284E+03  0.00000000000E+00 0. -1.
          6    2    1    2  501    0  0.25759067542E+02  0.31766225919E+02 -0.14606815512E+03  0.23123185445E+03  0.17452690881E+03 0.  0.
         24    2    3    3    0    0  0.76117309887E+02 -0.13372831250E+02 -0.85114670080E+02  0.14006769267E+03  0.80011086645E+02 0.  0.
         -6    2    1    2    0  502 -0.25759067542E+02 -0.31766225919E+02  0.75082802075E+03  0.77114553686E+03  0.17102660496E+03 0.  0.
        -24    2    5    5    0    0  0.12905627386E+02  0.44595840005E+02  0.39731656748E+03  0.40738935294E+03  0.77138096493E+02 0.  0.
          5    1    3    3  501    0 -0.50358242344E+02  0.45139057169E+02 -0.60953485043E+02  0.91164161780E+02  0.47000000000E+01 0. -1.
        -11    1    4    4    0    0  0.79798501635E+02 -0.36370825786E+01 -0.32180246278E+02  0.86119669550E+02  0.00000000000E+00 0.  1.
         12    1    4    4    0    0 -0.36811917485E+01 -0.97357486713E+01 -0.52934423802E+02  0.53948023117E+02  0.00000000000E+00 0. -1.
         -5    1    5    5    0  502 -0.38664694928E+02 -0.76362065924E+02  0.35351145327E+03  0.36375618392E+03  0.47000000000E+01 0.  1.
         13    1    6    6    0    0 -0.28083843851E+02  0.28263379911E+01  0.18557666874E+03  0.18771092257E+03  0.00000000000E+00 0. -1.
        -14    1    6    6    0    0  0.40989471237E+02  0.41769502014E+02  0.21173989874E+03  0.21967843037E+03  0.00000000000E+00 0.  1.
</event>
<event>
12    1  0.8562501E-002  0.2876517E+03  0.7818608E-02  0.1091718E+00
         21   -1    0    0  503  502  0.00000000000E+00  0.00000000000E+00  0.85987458333E+02  0.85987458333E+02  0.00000000000E+00 0.  1.
         21   -1    0    0  501  503 -0.00000000000E+00 -0.00000000000E+00 -0.15201440932E+04  0.15201440932E+04  0.00000000000E+00 0.  1.
          6    2    1    2  501    0  0.11694534623E+03 -0.19803789374E+03 -0.12042585246E+04  0.12378970287E+04  0.17104162687E+03 0.  0.
         24    2    3    3    0    0  0.70783207268E+02 -0.86570010735E+02 -0.90268785191E+03  0.91305400096E+03  0.79483466819E+02 0.  0.
         -6    2    1    2    0  502 -0.11694534623E+03  0.19803789374E+03 -0.22989811020E+03  0.36823452281E+03  0.17276660948E+03 0.  0.
        -24    2    5    5    0    0 -0.11012815199E+02  0.10651043959E+03 -0.55780088740E+02  0.14476606555E+03  0.79875150037E+02 0.  0.
          5    1    3    3  501    0  0.46162138963E+02 -0.11146788301E+03 -0.30157067272E+03  0.32484302772E+03  0.47000000000E+01 0. -1.
        -13    1    4    4    0    0  0.80781576233E+02 -0.82803553324E+02 -0.65507541011E+03  0.66521115778E+03  0.00000000000E+00 0.  1.
         14    1    4    4    0    0 -0.99983689654E+01 -0.37664574106E+01 -0.24761244180E+03  0.24784284319E+03  0.00000000000E+00 0. -1.
         -5    1    5    5    0  502 -0.10593253103E+03  0.91527454154E+02 -0.17411802146E+03  0.22346845726E+03  0.47000000000E+01 0.  1.
         13    1    6    6    0    0  0.93314770879E+01 -0.19151542822E+00 -0.32315663257E+02  0.33636516385E+02  0.00000000000E+00 0. -1.
        -14    1    6    6    0    0 -0.20344292287E+02  0.10670195502E+03 -0.23464425483E+02  0.11112954916E+03  0.00000000000E+00 0.  1.
</event>
<event>
12    1  0.8562501E-002  0.1817114E+03  0.7818608E-02  0.1168469E+00
         21   -1    0    0  503  502  0.00000000000E+00  0.00000000000E+00  0.66031693711E+02  0.66031693711E+02  0.00000000000E+00 0.  1.
         21   -1    0    0  501  503 -0.00000000000E+00 -0.00000000000E+00 -0.47459499120E+03  0.47459499120E+03  0.00000000000E+00 0. -1.
          6    2    1    2  501    0  0.33716045856E+02  0.50739423102E+02 -0.20597255001E+03  0.27467020685E+03  0.17119512366E+03 0.  0.
         24    2    3    3    0    0  0.23722313845E+02 -0.40552812421E+01 -0.51236513146E+02  0.11014766916E+03  0.94488810242E+02 0.  0.
         -6    2    1    2    0  502 -0.33716045856E+02 -0.50739423102E+02 -0.20259074748E+03  0.26595647806E+03  0.16117870969E+03 0.  0.
        -24    2    5    5    0    0 -0.32765184489E+02 -0.37828889610E+02 -0.22263581718E+03  0.24163609912E+03  0.79477764840E+02 0.  0.
          5    1    3    3  501    0  0.99937320113E+01  0.54794704344E+02 -0.15473603687E+03  0.16452253769E+03  0.47000000000E+01 0. -1.
        -11    1    4    4    0    0 -0.35504831183E+02 -0.90062105438E+01 -0.28891918153E+02  0.46652414731E+02  0.00000000000E+00 0.  1.
         12    1    4    4    0    0  0.59227145027E+02  0.49509293017E+01 -0.22344594993E+02  0.63495254425E+02  0.00000000000E+00 0. -1.
         -5    1    5    5    0  502 -0.95086136664E+00 -0.12910533492E+02  0.20045069704E+02  0.24320378941E+02  0.47000000000E+01 0.  1.
         13    1    6    6    0    0  0.19770745077E+02  0.11416199045E+00 -0.17147721038E+02  0.26171353244E+02  0.00000000000E+00 0. -1.
        -14    1    6    6    0    0 -0.52535929566E+02 -0.37943051601E+02 -0.20548809614E+03  0.21546474588E+03  0.00000000000E+00 0.  1.
</event>
<event>
12    1  0.8562501E-002  0.2486596E+03  0.7818608E-02  0.1114732E+00
         21   -1    0    0  501  502  0.00000000000E+00  0.00000000000E+00  0.10618952745E+03  0.10618952745E+03  0.00000000000E+00 0.  1.
         21   -1    0    0  502  503 -0.00000000000E+00 -0.00000000000E+00 -0.60076907864E+03  0.60076907864E+03  0.00000000000E+00 0.  1.
         -6    2    1    2    0  503 -0.44085357439E+02  0.16860462424E+03 -0.17422094384E+03  0.30361910110E+03  0.17737131454E+03 0.  0.
        -24    2    3    3    0    0 -0.83499693980E+02  0.12657710068E+03 -0.17691237562E+03  0.24574737685E+03  0.78101365370E+02 0.  0.
          6    2    1    2  501    0  0.44085357439E+02 -0.16860462424E+03 -0.32035860735E+03  0.40333950499E+03  0.17228488304E+03 0.  0.
         24    2    5    5    0    0  0.64034548959E+02 -0.10792834057E+03 -0.30257668797E+03  0.33687245827E+03  0.78622203488E+02 0.  0.
          5    1    5    5  501    0 -0.19949191520E+02 -0.60676283666E+02 -0.17781919383E+02  0.66467046713E+02  0.47000000000E+01 0. -1.
        -11    1    6    6    0    0  0.61771007677E+02 -0.82586024157E+02 -0.14904679777E+03  0.18124860469E+03  0.00000000000E+00 0.  1.
         12    1    6    6    0    0  0.22635412813E+01 -0.25342316417E+02 -0.15352989020E+03  0.15562385358E+03  0.00000000000E+00 0. -1.
         -5    1    3    3    0  503  0.39414336541E+02  0.42027523564E+02  0.26914317801E+01  0.57871724243E+02  0.47000000000E+01 0.  1.
         13    1    4    4    0    0 -0.55614853990E+02  0.18013353643E+02 -0.62520885953E+02  0.85594124063E+02  0.00000000000E+00 0. -1.
        -14    1    4    4    0    0 -0.27884839990E+02  0.10856374703E+03 -0.11439148967E+03  0.16015325279E+03  0.00000000000E+00 0.  1.
</event>
<event>
12    1  0.8562501E-002  0.1878323E+03  0.7818608E-02  0.1160599E+00
         21   -1    0    0  503  502  0.00000000000E+00  0.00000000000E+00  0.17195847649E+03  0.17195847649E+03  0.00000000000E+00 0.  1.
         21   -1    0    0  501  503 -0.00000000000E+00 -0.00000000000E+00 -0.25207743494E+03  0.25207743494E+03  0.00000000000E+00 0. -1.
          6    2    1    2  501    0 -0.38113975457E+02 -0.65634540246E+02 -0.13235541201E+03  0.22978016418E+03  0.17181501903E+03 0.  0.
         24    2    3    3    0    0 -0.10490501468E+02 -0.69072600827E+02 -0.15907066718E+03  0.19091280725E+03  0.79140053120E+02 0.  0.
         -6    2    1    2    0  502  0.38113975457E+02  0.65634540246E+02  0.52236453562E+02  0.19425574725E+03  0.17101485391E+03 0.  0.
        -24    2    5    5    0    0 -0.79650083885E+00  0.74151083731E+02 -0.20865240637E+02  0.11087406836E+03  0.79741351484E+02 0.  0.
          5    1    3    3  501    0 -0.27623473989E+02  0.34380605810E+01  0.26715255173E+02  0.38867356930E+02  0.47000000000E+01 0. -1.
        -11    1    4    4    0    0 -0.17905308219E+01 -0.37670164203E+02 -0.10978640246E+02  0.39278210414E+02  0.00000000000E+00 0.  1.
         12    1    4    4    0    0 -0.86999706465E+01 -0.31402436624E+02 -0.14809202694E+03  0.15163459684E+03  0.00000000000E+00 0. -1.
         -5    1    5    5    0  502  0.38910476296E+02 -0.85165434856E+01  0.73101694199E+02  0.83381678883E+02  0.47000000000E+01 0.  1.
         11    1    6    6    0    0  0.36102039114E+02  0.53010950152E+02 -0.23402806187E+02  0.68273050332E+02  0.00000000000E+00 0. -1.
        -12    1    6    6    0    0 -0.36898539953E+02  0.21140133580E+02  0.25375655500E+01  0.42601018032E+02  0.00000000000E+00 0.  1.
</event>
<event>
12    1  0.8562501E-002  0.2363491E+03  0.7818608E-02  0.1125655E+00
         21   -1    0    0  501  502  0.00000000000E+00  0.00000000000E+00  0.10920983281E+03  0.10920983281E+03  0.00000000000E+00 0. -1.
         21   -1    0    0  502  503 -0.00000000000E+00 -0.00000000000E+00 -0.56834364363E+03  0.56834364363E+03  0.00000000000E+00 0. -1.
         -6    2    1    2    0  503  0.42705259955E+01  0.13448832134E+03 -0.36173141871E+03  0.42192067167E+03  0.17047606265E+03 0.  0.
        -24    2    3    3    0    0 -0.53250548167E+02  0.10462339293E+03 -0.30873202002E+03  0.33806595098E+03  0.72051729994E+02 0.  0.
          6    2    1    2  501    0 -0.42705259955E+01 -0.13448832134E+03 -0.97402392119E+02  0.25563280477E+03  0.19430789720E+03 0.  0.
         24    2    5    5    0    0 -0.70512692893E+02 -0.43221190488E+02 -0.18805591076E+02  0.11809277066E+03  0.82171412665E+02 0.  0.
          5    1    5    5  501    0  0.66242166898E+02 -0.91267130851E+02 -0.78596801044E+02  0.13754003411E+03  0.47000000000E+01 0. -1.
        -13    1    6    6    0    0 -0.24750883338E+02  0.95566259505E+01 -0.37354058841E+02  0.45817693498E+02  0.00000000000E+00 0.  1.
         14    1    6    6    0    0 -0.45761809556E+02 -0.52777816439E+02  0.18548467766E+02  0.72275077159E+02  0.00000000000E+00 0. -1.
         -5    1    3    3    0  503  0.57521074162E+02  0.29864928411E+02 -0.52999398684E+02  0.83854720694E+02  0.47000000000E+01 0.  1.
         11    1    4    4    0    0 -0.16005737724E+02  0.96508945161E+02 -0.24493418009E+03  0.26374782030E+03  0.00000000000E+00 0. -1.
        -12    1    4    4    0    0 -0.37244810443E+02  0.81144477669E+01 -0.63797839935E+02  0.74318130680E+02  0.00000000000E+00 0.  1.
</event>
<event>
12    1  0.8562501E-002  0.1810454E+03  0.7818608E-02  0.1166994E+00
         21   -1    0    0  501  502  0.00000000000E+00  0.00000000000E+00  0.13325890539E+03  0.13325890539E+03  0.00000000000E+00 0. -1.
         21   -1    0    0  502  503 -0.00000000000E+00 -0.00000000000E+00 -0.60224525581E+03  0.60224525581E+03  0.00000000000E+00 0.  1.
         -6    2    1    2    0  503  0.55158384641E+02 -0.45521152149E+01 -0.51800908794E+03  0.54873568470E+03  0.17237826813E+03 0.  0.
        -24    2    3    3    0    0 -0.24151142145E+02 -0.30319756055E+02 -0.15141601369E+03  0.17274825878E+03  0.73570282305E+02 0.  0.
          6    2    1    2  501    0 -0.55158384641E+02  0.45521152149E+01  0.49022737514E+02  0.18676847650E+03  0.17151112463E+03 0.  0.
         24    2    5    5    0    0 -0.96482159604E+02  0.72448742858E+01  0.74057359117E+01  0.12787051261E+03  0.83275012725E+02 0.  0.
          5    1    5    5  501    0  0.41323774963E+02 -0.26927590708E+01  0.41617001602E+02  0.58897963895E+02  0.47000000000E+01 0. -1.
        -13    1    6    6    0    0 -0.55094798787E+01 -0.86475094611E+01 -0.27340436620E+02  0.29199884640E+02  0.00000000000E+00 0.  1.
         14    1    6    6    0    0 -0.90972679725E+02  0.15892383747E+02  0.34746172532E+02  0.98670627966E+02  0.00000000000E+00 0. -1.
         -5    1    3    3    0  503  0.79309526786E+02  0.25767640841E+02 -0.36659307426E+03  0.37598742591E+03  0.47000000000E+01 0.  1.
         13    1    4    4    0    0 -0.66055348965E+01  0.24434549958E+02 -0.53817190840E+02  0.59472433554E+02  0.00000000000E+00 0. -1.
        -14    1    4    4    0    0 -0.17545607249E+02 -0.54754306014E+02 -0.97598822845E+02  0.11327582523E+03  0.00000000000E+00 0.  1.
</event>
<event>
12    1  0.8562501E-002  0.1891220E+03  0.7818608E-02  0.1160657E+00
         21   -1    0    0  501  502  0.00000000000E+00  0.00000000000E+00  0.40459735478E+03  0.40459735478E+03  0.00000000000E+00 0.  1.
         21   -1    0    0  502  503 -0.00000000000E+00 -0.00000000000E+00 -0.85634132476E+02  0.85634132476E+02  0.00000000000E+00 0.  1.
         -6    2    1    2    0  503 -0.73302198633E+01  0.78483592916E+02  0.15636061981E+03  0.24538904390E+03  0.17191199189E+03 0.  0.
        -24    2    3    3    0    0  0.48771738483E+02  0.12791940873E+02  0.11631824902E+03  0.15005644540E+03  0.80278798717E+02 0.  0.
          6    2    1    2  501    0  0.73302198633E+01 -0.78483592916E+02  0.16260260249E+03  0.24484244336E+03  0.16521140775E+03 0.  0.
         24    2    5    5    0    0 -0.41700647076E+02 -0.33019345112E+02  0.14752072100E+03  0.17613598885E+03  0.80201635432E+02 0.  0.
          5    1    5    5  501    0  0.49030866939E+02 -0.45464247804E+02  0.15081881487E+02  0.68706454503E+02  0.47000000000E+01 0. -1.
        -11    1    6    6    0    0 -0.59541710226E+02 -0.41864419243E+02  0.93028150541E+02  0.11811893010E+03  0.00000000000E+00 0.  1.
         12    1    6    6    0    0  0.17841063150E+02  0.88450741316E+01  0.54492570462E+02  0.58017058752E+02  0.00000000000E+00 0. -1.
         -5    1    3    3    0  503 -0.56101958347E+02  0.65691652043E+02  0.40042370787E+02  0.95332598500E+02  0.47000000000E+01 0.  1.
         11    1    4    4    0    0  0.67577582872E+02  0.11161585961E+02  0.11102400629E+03  0.13045167949E+03  0.00000000000E+00 0. -1.
        -12    1    4    4    0    0 -0.18805844389E+02  0.16303549121E+01  0.52942427341E+01  0.19604765912E+02  0.00000000000E+00 0.  1.
</event>
<event>
12    1  0.8562501E-002  0.2163749E+03  0.7818608E-02  0.1136757E+00
         21   -1    0    0  503  502  0.00000000000E+00  0.00000000000E+00  0.31479299480E+03  0.31479299480E+03  0.00000000000E+00 0. -1.
         21   -1    0    0  501  503 -0.00000000000E+00 -0.00000000000E+00 -0.21099735087E+03  0.21099735087E+03  0.00000000000E+00 0.  1.
          6    2    1    2  501    0 -0.37911793234E+02  0.12561017353E+03  0.19536343680E+03  0.29152183796E+03  0.17205490347E+03 0.  0.
         24    2    3    3    0    0 -0.38937693997E+02  0.81141060176E+02  0.32409365674E+02  0.12254055553E+03  0.76588544219E+02 0.  0.
         -6    2    1    2    0  502  0.37911793234E+02 -0.12561017353E+03 -0.91567792873E+02  0.23426850771E+03  0.17111941226E+03 0.  0.
        -24    2    5    5    0    0  0.71751299702E+02 -0.60347527198E+02 -0.10379508743E+02  0.12464208442E+03  0.81472952313E+02 0.  0.
          5    1    3    3  501    0  0.10259007628E+01  0.44469113351E+02  0.16295407113E+03  0.16898128243E+03  0.47000000000E+01 0. -1.
        -11    1    4    4    0    0  0.10294053008E+02 -0.90280768342E+00 -0.13019512582E+02  0.16621982341E+02  0.00000000000E+00 0.  1.
         12    1    4    4    0    0 -0.49231747005E+02  0.82043867860E+02  0.45428878256E+02  0.10591857319E+03  0.00000000000E+00 0. -1.
         -5    1    5    5    0  502 -0.33839506468E+02 -0.65262646330E+02 -0.81188284130E+02  0.10962642329E+03  0.47000000000E+01 0.  1.
         13    1    6    6    0    0  0.77517405905E+02 -0.42101057587E+02 -0.33739665070E+02  0.94444757755E+02  0.00000000000E+00 0. -1.
        -14    1    6    6    0    0 -0.57661062033E+01 -0.18246469611E+02  0.23360156328E+02  0.30197326664E+02  0.00000000000E+00 0.  1.
</event>
<event>
12    1  0.8562501E-002  0.1943426E+03  0.7818608E-02  0.1154819E+00
         21   -1    0    0  503  502  0.00000000000E+00  0.00000000000E+00  0.15244314387E+03  0.15244314387E+03  0.00000000000E+00 0.  1.
         21   -1    0    0  501  503 -0.00000000000E+00 -0.00000000000E+00 -0.56553937197E+03  0.56553937197E+03  0.00000000000E+00 0.  1.
          6    2    1    2  501    0  0.49072088288E+02 -0.74140064123E+02 -0.47595234719E+03  0.51372789555E+03  0.17170001430E+03 0.  0.
         24    2    3    3    0    0 -0.19337286788E+02 -0.88596538942E+02 -0.32791552721E+03  0.34994199160E+03  0.81899494051E+02 0.  0.
         -6    2    1    2    0  502 -0.49072088288E+02  0.74140064123E+02  0.62856119088E+02  0.20425462029E+03  0.17281272883E+03 0.  0.
        -24    2    5    5    0    0 -0.87551367041E+02  0.68465979830E+02  0.83092342226E+02  0.16015876047E+03  0.79960358649E+02 0.  0.
          5    1    3    3  501    0  0.68409375076E+02  0.14456474819E+02 -0.14803681998E+03  0.16378590395E+03  0.47000000000E+01 0. -1.
        -13    1    4    4    0    0  0.83086054372E+00  0.15757448788E+02 -0.37278519023E+02  0.40480557087E+02  0.00000000000E+00 0.  1.
         14    1    4    4    0    0 -0.20168147332E+02 -0.10435398773E+03 -0.29063700819E+03  0.30946143451E+03  0.00000000000E+00 0. -1.
         -5    1    5    5    0  502  0.38479278754E+02  0.56740842932E+01 -0.20236223137E+02  0.44095859815E+02  0.47000000000E+01 0.  1.
         13    1    6    6    0    0  0.12138433575E+02  0.25313965673E+02  0.20772961933E+02  0.34923550439E+02  0.00000000000E+00 0. -1.
        -14    1    6    6    0    0 -0.99689800616E+02  0.43152014157E+02  0.62319380292E+02  0.12523521004E+03  0.00000000000E+00 0.  1.
</event>
<event>
12    1  0.8562501E-002  0.2155790E+03  0.7818608E-02  0.1137321E+00
         21   -1    0    0  501  502  0.00000000000E+00  0.00000000000E+00  0.45100222463E+02  0.45100222463E+02  0.00000000000E+00 0.  1.
         21   -1    0    0  502  503 -0.00000000000E+00 -0.00000000000E+00 -0.11462611110E+04  0.11462611110E+04  0.00000000000E+00 0. -1.
         -6    2    1    2    0  503  0.10780606913E+03  0.70472771759E+02 -0.35985238075E+03  0.41948542566E+03  0.17287488628E+03 0.  0.
        -24    2    3    3    0    0  0.14153277825E+03  0.78563230548E+02 -0.29221050830E+03  0.34332467895E+03  0.79253678151E+02 0.  0.
          6    2    1    2  501    0 -0.10780606913E+03 -0.70472771759E+02 -0.74130850783E+03  0.77187590785E+03  0.17223691019E+03 0.  0.
         24    2    5    5    0    0 -0.11420374896E+03 -0.94751202026E+02 -0.71531483728E+03  0.73543234337E+03  0.84647083080E+02 0.  0.
          5    1    5    5  501    0  0.63976798270E+01  0.24278430267E+02 -0.25993670546E+02  0.36443564478E+02  0.47000000000E+01 0. -1.
        -13    1    6    6    0    0  0.81228935340E+01 -0.35859487670E+01 -0.83328507025E+01  0.12176897337E+02  0.00000000000E+00 0.  1.
         14    1    6    6    0    0 -0.12232664249E+03 -0.91165253259E+02 -0.70698198658E+03  0.72325544603E+03  0.00000000000E+00 0. -1.
         -5    1    3    3    0  503 -0.33726709116E+02 -0.80904587889E+01 -0.67641872445E+02  0.76160746708E+02  0.47000000000E+01 0.  1.
         11    1    4    4    0    0  0.52456608446E+02  0.40158196580E+02 -0.19545116389E+03  0.20631416332E+03  0.00000000000E+00 0. -1.
        -12    1    4    4    0    0  0.89076169802E+02  0.38405033968E+02 -0.96759344413E+02  0.13701051563E+03  0.00000000000E+00 0.  1.
</event>
<event>
12    1  0.8562501E-002  0.2215285E+03  0.7818608E-02  0.1133096E+00
         21   -1    0    0  503  502  0.00000000000E+00  0.00000000000E+00  0.10218983800E+03  0.10218983800E+03  0.00000000000E+00 0. -1.
         21   -1    0    0  501  503 -0.00000000000E+00 -0.00000000000E+00 -0.91495026862E+03  0.91495026862E+03  0.00000000000E+00 0. -1.
          6    2    1    2  501    0 -0.89127411830E+02  0.10760457836E+03 -0.75766390500E+03  0.78886287302E+03  0.16949217875E+03 0.  0.
         24    2    3    3    0    0 -0.28108948061E+02  0.75963588213E+02 -0.21727841267E+03  0.24410331550E+03  0.76262312657E+02 0.  0.
         -6    2    1    2    0  502  0.89127411830E+02 -0.10760457836E+03 -0.55096525614E+02  0.22827723360E+03  0.17190819475E+03 0.  0.
        -24    2    5    5    0    0  0.63345854729E+02 -0.11776362425E+03  0.11634357125E+02  0.15586870088E+03  0.79238406977E+02 0.  0.
          5    1    3    3  501    0 -0.61018463770E+02  0.31640990143E+02 -0.54038549233E+03  0.54475955751E+03  0.47000000000E+01 0. -1.
        -13    1    4    4    0    0  0.17955650113E+02 -0.33850397440E+00 -0.67158715381E+02  0.69518436458E+02  0.00000000000E+00 0.  1.
         14    1    4    4    0    0 -0.46064598173E+02  0.76302092187E+02 -0.15011969729E+03  0.17458487905E+03  0.00000000000E+00 0. -1.
         -5    1    5    5    0  502  0.25781557101E+02  0.10159045892E+02 -0.66730882739E+02  0.72408532724E+02  0.47000000000E+01 0.  1.
         13    1    6    6    0    0  0.30217520174E+02 -0.45315403740E+02 -0.33856862598E+02  0.64131673037E+02  0.00000000000E+00 0. -1.
        -14    1    6    6    0    0  0.33128334555E+02 -0.72448220508E+02  0.45491219723E+02  0.91737027840E+02  0.00000000000E+00 0.  1.
</event>
<event>
12    1  0.8562501E-002  0.1746634E+03  0.7818608E-02  0.1173645E+00
         21   -1    0    0  503  502  0.00000000000E+00  0.00000000000E+00  0.49154292450E+03  0.49154292450E+03  0.00000000000E+00 0.  1.
         21   -1    0    0  501  503 -0.00000000000E+00 -0.00000000000E+00 -0.68910556920E+02  0.68910556920E+02  0.00000000000E+00 0.  1.
          6    2    1    2  501    0  0.89036740053E+01 -0.26455731005E+02  0.11917930036E+03  0.21144980155E+03  0.17241847879E+03 0.  0.
         24    2    3    3    0    0  0.31000692862E+02  0.24684149839E+02  0.99001527311E+01  0.88699698653E+02  0.78735464093E+02 0.  0.
         -6    2    1    2    0  502 -0.89036740053E+01  0.26455731005E+02  0.30345306722E+03  0.34900367986E+03  0.17011943875E+03 0.  0.
        -24    2    5    5    0    0 -0.20358521403E+02  0.37129542958E+02  0.69332783496E+02  0.11431337107E+03  0.80420392844E+02 0.  0.
          5    1    3    3  501    0 -0.22097018857E+02 -0.51139880844E+02  0.10927914763E+03  0.12275010290E+03  0.47000000000E+01 0. -1.
        -13    1    4    4    0    0 -0.48638089630E+01  0.43268971397E+02  0.18652600250E+02  0.47368555176E+02  0.00000000000E+00 0.  1.
         14    1    4    4    0    0  0.35864501825E+02 -0.18584821559E+02 -0.87524475186E+01  0.41331143477E+02  0.00000000000E+00 0. -1.
         -5    1    5    5    0  502  0.11454847398E+02 -0.10673811953E+02  0.23412028372E+03  0.23469030879E+03  0.47000000000E+01 0.  1.
         13    1    6    6    0    0 -0.51584573370E+02  0.21486179240E+02  0.40296459920E+02  0.68894330610E+02  0.00000000000E+00 0. -1.
        -14    1    6    6    0    0  0.31226051967E+02  0.15643363718E+02  0.29036323576E+02  0.45419040464E+02  0.00000000000E+00 0.  1.
</event>
<event>
12    1  0.8562501E-002  0.1962267E+03  0.7818608E-02  0.1153990E+00
         21   -1    0    0  503  502  0.00000000000E+00  0.00000000000E+00  0.92227712704E+02  0.92227712704E+02  0.00000000000E+00 0. -1.
         21   -1    0    0  501  503 -0.00000000000E+00 -0.00000000000E+00 -0.58879648722E+03  0.58879648722E+03  0.00000000000E+00 0. -1.
          6    2    1    2  501    0 -0.70341113449E+02 -0.44242007359E+02 -0.43926444531E+03  0.48110099144E+03  0.17776299839E+03 0.  0.
         24    2    3    3    0    0  0.32031149134E+02 -0.57879258667E+01 -0.16722972630E+03  0.18787109039E+03  0.79185040521E+02 0.  0.
         -6    2    1    2    0  502  0.70341113449E+02  0.44242007359E+02 -0.57304329204E+02  0.19992320848E+03  0.17256962562E+03 0.  0.
        -24    2    5    5    0    0 -0.20039638578E+02 -0.53862101862E+01 -0.61867260058E+02  0.96605491452E+02  0.71235277336E+02 0.  0.
          5    1    3    3  501    0 -0.10237226258E+03 -0.38454081492E+02 -0.27203471901E+03  0.29322990106E+03  0.47000000000E+01 0. -1.
        -11    1    4    4    0    0  0.13976307532E+02  0.34791561647E+02 -0.49901270188E+02  0.62417358968E+02  0.00000000000E+00 0.  1.
         12    1    4    4    0    0  0.18054841602E+02 -0.40579487514E+02 -0.11732845612E+03  0.12545373142E+03  0.00000000000E+00 0. -1.
         -5    1    5    5    0  502  0.90380752027E+02  0.49628217545E+02  0.45629308540E+01  0.10331771703E+03  0.47000000000E+01 0.  1.
         13    1    6    6    0    0 -0.10912918473E+02  0.14050507207E+02  0.10813417833E+02  0.20819187006E+02  0.00000000000E+00 0. -1.
        -14    1    6    6    0    0 -0.91267201052E+01 -0.19436717394E+02 -0.72680677891E+02  0.75786304446E+02  0.00000000000E+00 0.  1.
</event>
<event>
12    1  0.8562501E-002  0.1739024E+03  0.7818608E-02  0.1173993E+00
         21   -1    0    0  501  502  0.00000000000E+00  0.00000000000E+00  0.78836377167E+03  0.78836377167E+03  0.00000000000E+00 0.  1.
         21   -1    0    0  502  503 -0.00000000000E+00 -0.00000000000E+00 -0.10127122339E+03  0.10127122339E+03  0.00000000000E+00 0.  1.
         -6    2    1    2    0  503  0.22492092784E+02 -0.74304070817E+01 -0.71912367200E+01  0.17405098010E+03  0.17228152716E+03 0.  0.
        -24    2    3    3    0    0 -0.62156048444E+01  0.35146185983E+02  0.44512937832E+02  0.10102831344E+03  0.83375238230E+02 0.  0.
          6    2    1    2  501    0 -0.22492092784E+02  0.74304070817E+01  0.69428378500E+03  0.71558401495E+03  0.17166654640E+03 0.  0.
         24    2    5    5    0    0 -0.56331583586E+02 -0.23402946382E+02  0.62173628349E+03  0.62967105435E+03  0.78795210970E+02 0.  0.
          5    1    5    5  501    0  0.33839490802E+02  0.30833353464E+02  0.72547501512E+02  0.85912960600E+02  0.47000000000E+01 0. -1.
        -13    1    6    6    0    0 -0.19925219734E+02  0.28950934586E+02  0.25878164934E+03  0.26115725728E+03  0.00000000000E+00 0.  1.
         14    1    6    6    0    0 -0.36406363853E+02 -0.52353880968E+02  0.36295463414E+03  0.36851379706E+03  0.00000000000E+00 0. -1.
         -5    1    3    3    0  503  0.28707697629E+02 -0.42576593065E+02 -0.51704174552E+02  0.73022666661E+02  0.47000000000E+01 0.  1.
         11    1    4    4    0    0  0.26859523416E+02  0.48161937247E+02  0.27544019142E+02  0.61641537846E+02  0.00000000000E+00 0. -1.
        -12    1    4    4    0    0 -0.33075128260E+02 -0.13015751264E+02  0.16968918690E+02  0.39386775597E+02  0.00000000000E+00 0.  1.
</event>
<event>
12    1  0.8562501E-002  0.2232660E+03  0.7818608E-02  0.1133536E+00
         21   -1    0    0  501  502  0.00000000000E+00  0.00000000000E+00  0.80884908273E+03  0.80884908273E+03  0.00000000000E+00 0.  1.
         21   -1    0    0  502  503 -0.00000000000E+00 -0.00000000000E+00 -0.73723825701E+02  0.73723825701E+02  0.00000000000E+00 0. -1.
         -6    2    1    2    0  503 -0.55366933204E+02 -0.11086313942E+03  0.17532661299E+03  0.28387873848E+03  0.18571909961E+03 0.  0.
        -24    2    3    3    0    0  0.12368602736E+02 -0.38853545701E+02  0.99901772438E+01  0.91182834515E+02  0.80943964084E+02 0.  0.
          6    2    1    2  501    0  0.55366933204E+02  0.11086313942E+03  0.55979864403E+03  0.59869416995E+03  0.17234864172E+03 0.  0.
         24    2    5    5    0    0  0.12895640509E+02  0.13968922437E+03  0.40666106620E+03  0.43711458702E+03  0.77566503543E+02 0.  0.
          5    1    5    5  501    0  0.42471292695E+02 -0.28826084953E+02  0.15313757783E+03  0.16157958294E+03  0.47000000000E+01 0. -1.
        -11    1    6    6    0    0  0.39258701818E+02  0.87232606033E+02  0.19115074376E+03  0.21375074284E+03  0.00000000000E+00 0.  1.
         12    1    6    6    0    0 -0.26363061309E+02  0.52456618340E+02  0.21551032244E+03  0.22336384418E+03  0.00000000000E+00 0. -1.
         -5    1    3    3    0  503 -0.67735535941E+02 -0.72009593719E+02  0.16533643575E+03  0.19269590396E+03  0.47000000000E+01 0.  1.
         13    1    4    4    0    0 -0.22376264089E+02 -0.29047584645E+01 -0.22253766875E+02  0.31691717474E+02  0.00000000000E+00 0. -1.
        -14    1    4    4    0    0  0.34744866825E+02 -0.35948787236E+02  0.32243944119E+02  0.59491117041E+02  0.00000000000E+00 0.  1.
</event>
<event>
12    1  0.8562501E-002  0.2278738E+03  0.7818608E-02  0.1128319E+00
         21   -1    0    0  501  502  0.00000000000E+00  0.00000000000E+00  0.72914437530E+02  0.72914437530E+02  0.00000000000E+00 0.  1.
         21   -1    0    0  502  503 -0.00000000000E+00 -0.00000000000E+00 -0.10995043885E+04  0.10995043885E+04  0.00000000000E+00 0. -1.
         -6    2    1    2    0  503 -0.13435855284E+03  0.63759856414E+02 -0.86188815406E+03  0.89125492048E+03  0.17136686716E+03 0.  0.
        -24    2    3    3    0    0 -0.15200112040E+03  0.88306077292E+02 -0.79410229132E+03  0.81688563692E+03  0.76166861788E+02 0.  0.
          6    2    1    2  501    0  0.13435855284E+03 -0.63759856414E+02 -0.16470179695E+03  0.28116390559E+03  0.17265259881E+03 0.  0.
         24    2    5    5    0    0  0.31863385471E+02  0.27681689089E+02 -0.72912398612E+02  0.11589382595E+03  0.79583979398E+02 0.  0.
          5    1    5    5  501    0  0.10249516737E+03 -0.91441545504E+02 -0.91789398335E+02  0.16527007964E+03  0.47000000000E+01 0. -1.
        -13    1    6    6    0    0  0.53127877964E+02  0.35810289413E+02 -0.66274691972E+02  0.92180708615E+02  0.00000000000E+00 0.  1.
         14    1    6    6    0    0 -0.21264492493E+02 -0.81286003231E+01 -0.66377066405E+01  0.23713117333E+02  0.00000000000E+00 0. -1.
         -5    1    3    3    0  503  0.17642567567E+02 -0.24546220878E+02 -0.67785862733E+02  0.74369283553E+02  0.47000000000E+01 0.  1.
         11    1    4    4    0    0  0.65036195833E+01  0.16033224094E+02 -0.78593637893E+02  0.80475594188E+02  0.00000000000E+00 0. -1.
        -12    1    4    4    0    0 -0.15850473999E+03  0.72272853198E+02 -0.71550865343E+03  0.73641004274E+03  0.00000000000E+00 0.  1.
</event>
<event>
12    1  0.8562501E-002  0.1787319E+03  0.7818608E-02  0.1169711E+00
         21   -1    0    0  503  502  0.00000000000E+00  0.00000000000E+00  0.32108311660E+02  0.32108311660E+02  0.00000000000E+00 0.  1.
         21   -1    0    0  501  503 -0.00000000000E+00 -0.00000000000E+00 -0.98122604898E+03  0.98122604898E+03  0.00000000000E+00 0. -1.
          6    2    1    2  501    0  0.29980722669E+01 -0.40404563223E+02 -0.49815137881E+03  0.52924464076E+03  0.17407922446E+03 0.  0.
         24    2    3    3    0    0  0.34902675086E+01  0.32034872590E+02 -0.14276554030E+03  0.16652036761E+03  0.79426810969E+02 0.  0.
         -6    2    1    2    0  502 -0.29980722669E+01  0.40404563223E+02 -0.45096635851E+03  0.48408971989E+03  0.17126203090E+03 0.  0.
        -24    2    5    5    0    0  0.30013222293E+02 -0.40282169114E+00 -0.41660189757E+03  0.42117712649E+03  0.54148638440E+02 0.  0.
          5    1    3    3  501    0 -0.49219524167E+00 -0.72439435813E+02 -0.35538583851E+03  0.36272427315E+03  0.47000000000E+01 0. -1.
        -13    1    4    4    0    0  0.15128501689E+02 -0.92220737930E+01 -0.27339662051E+00  0.17719846334E+02  0.00000000000E+00 0.  1.
         14    1    4    4    0    0 -0.11638234180E+02  0.41256946383E+02 -0.14249214368E+03  0.14880052127E+03  0.00000000000E+00 0. -1.
         -5    1    5    5    0  502 -0.33011294560E+02  0.40807384914E+02 -0.34364460941E+02  0.62912593396E+02  0.47000000000E+01 0.  1.
         13    1    6    6    0    0  0.19109331880E+02 -0.25454663026E+02 -0.16077674736E+03  0.16389712910E+03  0.00000000000E+00 0. -1.
        -14    1    6    6    0    0  0.10903890413E+02  0.25051841335E+02 -0.25582515021E+03  0.25727999739E+03  0.00000000000E+00 0.  1.
</event>
<event>
12    1  0.8562501E-002  0.2720660E+03  0.7818608E-02  0.1100266E+00
         21   -1    0    0  501  502  0.00000000000E+00  0.00000000000E+00  0.19493791320E+03  0.19493791320E+03  0.00000000000E+00 0.  1.
         21   -1    0    0  502  503 -0.00000000000E+00 -0.00000000000E+00 -0.78751358458E+03  0.78751358458E+03  0.00000000000E+00 0. -1.
         -6    2    1    2    0  503  0.44281289028E+02  0.20442582386E+03 -0.65016914966E+03  0.70435635296E+03  0.17218361935E+03 0.  0.
        -24    2    3    3    0    0 -0.15236623350E+02  0.10244495841E+03 -0.47509394175E+03  0.49313159771E+03  0.82081635998E+02 0.  0.
          6    2    1    2  501    0 -0.44281289028E+02 -0.20442582386E+03  0.57593478273E+02  0.27809514482E+03  0.17398031732E+03 0.  0.
         24    2    5    5    0    0 -0.80586603153E+02 -0.19979714708E+03  0.28753628076E+02  0.23126217095E+03  0.79008353962E+02 0.  0.
          5    1    5    5  501    0  0.36305314125E+02 -0.46286767824E+01  0.28839850197E+02  0.46832973874E+02  0.47000000000E+01 0. -1.
        -11    1    6    6    0    0 -0.41201797041E+02 -0.29660743571E+02  0.24992961491E+02  0.56586181287E+02  0.00000000000E+00 0.  1.
         12    1    6    6    0    0 -0.39384806112E+02 -0.17013640350E+03  0.37606665845E+01  0.17467598966E+03  0.00000000000E+00 0. -1.
         -5    1    3    3    0  503  0.59517912378E+02  0.10198086544E+03 -0.17507520790E+03  0.21122475526E+03  0.47000000000E+01 0.  1.
         11    1    4    4    0    0  0.19631014194E+01  0.11229033952E+03 -0.40015879508E+03  0.41562006135E+03  0.00000000000E+00 0. -1.
        -12    1    4    4    0    0 -0.17199724769E+02 -0.98453811028E+01 -0.74935146672E+02  0.77511536354E+02  0.00000000000E+00 0.  1.
</event>
<event>
12    1  0.8562501E-002  0.1825505E+03  0.7818608E-02  0.1166361E+00
         21   -1    0    0  501  502  0.00000000000E+00  0.00000000000E+00  0.10354245177E+04  0.10354245177E+04  0.00000000000E+00 0. -1.
         21   -1    0    0  502  503 -0.00000000000E+00 -0.00000000000E+00 -0.88669173727E+02  0.88669173727E+02  0.00000000000E+00 0. -1.
         -6    2    1    2    0  503  0.18981016952E+02  0.43562919992E+02  0.23842623307E+02  0.18410092535E+03  0.17625740559E+03 0.  0.
        -24    2    3    3    0    0  0.46048950520E+02  0.45735632967E+02  0.80037230059E+02  0.12151244767E+03  0.64397692329E+02 0.  0.
          6    2    1    2  501    0 -0.18981016952E+02 -0.43562919992E+02  0.92291272070E+03  0.93999276611E+03  0.17193168212E+03 0.  0.
         24    2    5    5    0    0  0.38027245025E+02 -0.24931283164E+02  0.28052736332E+03  0.29479658107E+03  0.78369524644E+02 0.  0.
          5    1    5    5  501    0 -0.57008261977E+02 -0.18631636827E+02  0.64238535737E+03  0.64519618504E+03  0.47000000000E+01 0. -1.
        -13    1    6    6    0    0  0.57410610345E+02  0.19751424465E+01  0.17790862269E+03  0.18695282131E+03  0.00000000000E+00 0.  1.
         14    1    6    6    0    0 -0.19383365320E+02 -0.26906425611E+02  0.10261874063E+03  0.10784375976E+03  0.00000000000E+00 0. -1.
         -5    1    3    3    0  503 -0.27067933568E+02 -0.21727129754E+01 -0.56194606752E+02  0.62588477672E+02  0.47000000000E+01 0.  1.
         13    1    4    4    0    0  0.39804022791E+02 -0.51256781145E+01  0.33098589555E+02  0.52020663558E+02  0.00000000000E+00 0. -1.
        -14    1    4    4    0    0  0.62449277293E+01  0.50861311082E+02  0.46938640505E+02  0.69491784117E+02  0.00000000000E+00 0.  1.
</event>
<event>
12    1  0.8562501E-002  0.2498409E+03  0.7818608E-02  0.1113839E+00
         21   -1    0    0  501  502  0.00000000000E+00  0.00000000000E+00  0.24266096290E+03  0.24266096290E+03  0.00000000000E+00 0.  1.
         21   -1    0    0  502  503 -0.00000000000E+00 -0.00000000000E+00 -0.25592218421E+03  0.25592218421E+03  0.00000000000E+00 0. -1.
         -6    2    1    2    0  503  0.70733142547E+02  0.16143120486E+03  0.12411884889E+02  0.24742666083E+03  0.17321283511E+03 0.  0.
        -24    2    3    3    0    0  0.24616815226E+02  0.24801607023E+02 -0.35288336344E+02  0.95466916965E+02  0.81532559448E+02 0.  0.
          6    2    1    2  501    0 -0.70733142547E+02 -0.16143120486E+03 -0.25673106199E+02  0.25115648628E+03  0.17707981495E+03 0.  0.
         24    2    5    5    0    0 -0.42219905763E+02 -0.55470737553E+02  0.52358249321E+02  0.11642858365E+03  0.77166739277E+02 0.  0.
          5    1    5    5  501    0 -0.28513236783E+02 -0.10596046731E+03 -0.78031355520E+02  0.13472790263E+03  0.47000000000E+01 0. -1.
        -13    1    6    6    0    0 -0.30883258373E+02 -0.90035790210E+01 -0.13623142515E+02  0.34934654641E+02  0.00000000000E+00 0.  1.
         14    1    6    6    0    0 -0.11336647390E+02 -0.46467158532E+02  0.65981391836E+02  0.81493929005E+02  0.00000000000E+00 0. -1.
         -5    1    3    3    0  503  0.46116327321E+02  0.13662959784E+03  0.47700221233E+02  0.15195974387E+03  0.47000000000E+01 0.  1.
         13    1    4    4    0    0 -0.28940178319E+02  0.19216522888E+02 -0.11435594140E+02  0.36572961138E+02  0.00000000000E+00 0. -1.
        -14    1    4    4    0    0  0.53556993545E+02  0.55850841348E+01 -0.23852742203E+02  0.58893955827E+02  0.00000000000E+00 0.  1.
</event>
<event>
12    1  0.8562501E-002  0.1930915E+03  0.7818608E-02  0.1155787E+00
         21   -1    0    0  501  502  0.00000000000E+00  0.00000000000E+00  0.50764253863E+02  0.50764253863E+02  0.00000000000E+00 0.  1.
         21   -1    0    0  502  503 -0.00000000000E+00 -0.00000000000E+00 -0.73319976021E+03  0.73319976021E+03  0.00000000000E+00 0.  1.
         -6    2    1    2    0  503  0.36009130441E+02  0.79906216597E+02 -0.34801325802E+03  0.39799192417E+03  0.17205430254E+03 0.  0.
        -24    2    3    3    0    0  0.56183024657E+02  0.36199920729E+02 -0.10169400702E+03  0.14696903732E+03  0.82409103551E+02 0.  0.
          6    2    1    2  501    0 -0.36009130441E+02 -0.79906216597E+02 -0.33442224833E+03  0.38597208990E+03  0.17162328829E+03 0.  0.
         24    2    5    5    0    0 -0.58152866547E+02 -0.12932358060E+02 -0.27780486725E+03  0.29539913248E+03  0.80846159032E+02 0.  0.
          5    1    5    5  501    0  0.22143736106E+02 -0.66973858536E+02 -0.56617381072E+02  0.90572957418E+02  0.47000000000E+01 0. -1.
        -13    1    6    6    0    0 -0.57300210204E+02 -0.40793124045E+02 -0.22428641558E+03  0.23505699154E+03  0.00000000000E+00 0.  1.
         14    1    6    6    0    0 -0.85265634264E+00  0.27860765984E+02 -0.53518451675E+02  0.60342140944E+02  0.00000000000E+00 0. -1.
         -5    1    3    3    0  503 -0.20173894217E+02  0.43706295868E+02 -0.24631925101E+03  0.25102288685E+03  0.47000000000E+01 0.  1.
         13    1    4    4    0    0 -0.11213827106E+02  0.20098079007E+02 -0.64159892906E+02  0.68162853196E+02  0.00000000000E+00 0. -1.
        -14    1    4    4    0    0  0.67396851763E+02  0.16101841722E+02 -0.37534114110E+02  0.78806184126E+02  0.00000000000E+00 0.  1.
</event>
<event>
12    1  0.8562501E-002  0.2027500E+03  0.7818608E-02  0.1147906E+00
         21   -1    0    0  503  502  0.00000000000E+00  0.00000000000E+00  0.36016760593E+03  0.36016760593E+03  0.00000000000E+00 0.  1.
         21   -1    0    0  501  503 -0.00000000000E+00 -0.00000000000E+00 -0.11738664676E+03  0.11738664676E+03  0.00000000000E+00 0.  1.
          6    2    1    2  501    0  0.14420760417E+02 -0.10424245928E+03  0.16753467290E+03  0.26129157485E+03  0.17067797694E+03 0.  0.
         24    2    3    3    0    0  0.61606537538E+02 -0.11120348145E+03  0.15344111177E+03  0.21133487502E+03  0.70403656615E+02 0.  0.
         -6    2    1    2    0  502 -0.14420760417E+02  0.10424245928E+03  0.75246286271E+02  0.21626267784E+03  0.17330058736E+03 0.  0.
        -24    2    5    5    0    0 -0.69201252844E+02  0.79315520641E+02  0.81914763997E+02  0.15552707695E+03  0.79992986524E+02 0.  0.
          5    1    3    3  501    0 -0.47185777121E+02  0.69610221684E+01  0.14093561134E+02  0.49956699827E+02  0.47000000000E+01 0. -1.
        -11    1    4    4    0    0  0.19420033156E+02 -0.96034435665E+02  0.12250136894E+03  0.15686406827E+03  0.00000000000E+00 0.  1.
         12    1    4    4    0    0  0.42186504382E+02 -0.15169045786E+02  0.30939742831E+02  0.54470806755E+02  0.00000000000E+00 0. -1.
         -5    1    5    5    0  502  0.54780492427E+02  0.24926938641E+02 -0.66684777259E+01  0.60735600892E+02  0.47000000000E+01 0.  1.
         11    1    6    6    0    0 -0.81106056496E+02  0.48252809339E+02  0.41267352696E+02  0.10300252622E+03  0.00000000000E+00 0. -1.
        -12    1    6    6    0    0  0.11904803652E+02  0.31062711302E+02  0.40647411301E+02  0.52524550726E+02  0.00000000000E+00 0.  1.
</event>
<event>
12    1  0.8562501E-002  0.2083325E+03  0.7818608E-02  0.1143039E+00
         21   -1    0    0  501  502  0.00000000000E+00  0.00000000000E+00  0.24292400123E+04  0.24292400123E+04  0.00000000000E+00 0. -1.
         21   -1    0    0  502  503 -0.00000000000E+00 -0.00000000000E+00 -0.44471482578E+02  0.44471482578E+02  0.00000000000E+00 0.  1.
         -6    2    1    2    0  503 -0.37525011374E+02  0.11171479262E+03  0.23543775271E+03  0.31437771786E+03  0.17179666097E+03 0.  0.
        -24    2    3    3    0    0 -0.21814215185E+00  0.63268095652E+02  0.23754652823E+03  0.25301468443E+03  0.59876355513E+02 0.  0.
          6    2    1    2  501    0  0.37525011374E+02 -0.11171479262E+03  0.21493307770E+04  0.21593337770E+04  0.17091299006E+03 0.  0.
         24    2    5    5    0    0  0.36812977342E+02 -0.21876313220E+02  0.54323694881E+03  0.55072228434E+03  0.79717523389E+02 0.  0.
          5    1    5    5  501    0  0.71203403256E+00 -0.89838479398E+02  0.16060938282E+04  0.16086114927E+04  0.47000000000E+01 0. -1.
        -11    1    6    6    0    0 -0.20039640748E+02 -0.15279204363E+02  0.29025410519E+03  0.29134599167E+03  0.00000000000E+00 0.  1.
         12    1    6    6    0    0  0.56852618089E+02 -0.65971088569E+01  0.25298284363E+03  0.25937629267E+03  0.00000000000E+00 0. -1.
         -5    1    3    3    0  503 -0.37306869222E+02  0.48446696966E+02 -0.21087755196E+01  0.61363033435E+02  0.47000000000E+01 0.  1.
         11    1    4    4    0    0 -0.19932354396E+02  0.54246284940E+02  0.21083285803E+03  0.21861027470E+03  0.00000000000E+00 0. -1.
        -12    1    4    4    0    0  0.19714212244E+02  0.90218107121E+01  0.26713670198E+02  0.34404409723E+02  0.00000000000E+00 0.  1.
</event>
<event>
12    1  0.8562501E-002  0.1945989E+03  0.7818608E-02  0.1154438E+00
         21   -1    0    0  501  502  0.00000000000E+00  0.00000000000E+00  0.73929567057E+03  0.73929567057E+03  0.00000000000E+00 0. -1.
         21   -1    0    0  502  503 -0.00000000000E+00 -0.00000000000E+00 -0.81630625242E+02  0.81630625242E+02  0.00000000000E+00 0.  1.
         -6    2    1    2    0  503  0.59297553466E+02 -0.67888129034E+02  0.77869735861E+02  0.20934529811E+03  0.17215330425E+03 0.  0.
        -24    2    3    3    0    0  0.54248384494E+02 -0.74290166447E+02 -0.46785252198E+01  0.12626229384E+03  0.86361809828E+02 0.  0.
          6    2    1    2  501    0 -0.59297553466E+02  0.67888129034E+02  0.57979530947E+03  0.61158099771E+03  0.17246367143E+03 0.  0.
         24    2    5    5    0    0 -0.55335555092E+02  0.11004639383E+03  0.50028498036E+03  0.52137568103E+03  0.79845517988E+02 0.  0.
          5    1    5    5  501    0 -0.39619983745E+01 -0.42158264799E+02  0.79510329115E+02  0.90205316684E+02  0.47000000000E+01 0. -1.
        -13    1    6    6    0    0 -0.69022010146E+02  0.50084944542E+02  0.29334155839E+03  0.30548618534E+03  0.00000000000E+00 0.  1.
         14    1    6    6    0    0  0.13686455054E+02  0.59961449291E+02  0.20694342196E+03  0.21588949568E+03  0.00000000000E+00 0. -1.
         -5    1    3    3    0  503  0.50491689720E+01  0.64020374130E+01  0.82548261081E+02  0.83083004265E+02  0.47000000000E+01 0.  1.
         11    1    4    4    0    0  0.11368175940E+02 -0.50313024077E+02  0.35649265118E+02  0.62701721821E+02  0.00000000000E+00 0. -1.
        -12    1    4    4    0    0  0.42880208555E+02 -0.23977142370E+02 -0.40327790338E+02  0.63560572019E+02  0.00000000000E+00 0.  1.
</event>
<event>
12    1  0.8562501E-002  0.1773724E+03  0.7818608E-02  0.1172007E+00
         21   -1    0    0  501  502  0.00000000000E+00  0.00000000000E+00  0.13249100848E+04  0.13249100848E+04  0.00000000000E+00 0.  1.
         21   -1    0    0  502  503 -0.00000000000E+00 -0.00000000000E+00 -0.38089163751E+02  0.38089163751E+02  0.00000000000E+00 0.  1.
         -6    2    1    2    0  503 -0.49606094542E+02  0.54694383490E+01  0.22007429582E+03  0.28265467560E+03  0.17020661146E+03 0.  0.
        -24    2    3    3    0    0 -0.31460485387E+01 -0.39987752900E+02  0.53234320492E+02  0.10353862529E+03  0.79230272280E+02 0.  0.
          6    2    1    2  501    0  0.49606094542E+02 -0.54694383490E+01  0.10667466252E+04  0.10803445729E+04  0.16341773004E+03 0.  0.
         24    2    5    5    0    0  0.17035619811E+02  0.18386813709E+02  0.29195719931E+03  0.30448975335E+03  0.82744887476E+02 0.  0.
          5    1    5    5  501    0  0.32570474731E+02 -0.23856252058E+02  0.77478942588E+03  0.77585481957E+03  0.47000000000E+01 0. -1.
        -11    1    6    6    0    0 -0.22480766423E+02 -0.14052222376E+02  0.17288229110E+03  0.17490322006E+03  0.00000000000E+00 0.  1.
         12    1    6    6    0    0  0.39516386235E+02  0.32439036084E+02  0.11907490822E+03  0.12958653329E+03  0.00000000000E+00 0. -1.
         -5    1    3    3    0  503 -0.46460046003E+02  0.45457191249E+02  0.16683997532E+03  0.17911605030E+03  0.47000000000E+01 0.  1.
         11    1    4    4    0    0 -0.27233386663E+02 -0.22920794144E+02  0.63070896818E+02  0.72422083502E+02  0.00000000000E+00 0. -1.
        -12    1    4    4    0    0  0.24087338125E+02 -0.17066958756E+02 -0.98365763260E+01  0.31116541789E+02  0.00000000000E+00 0.  1.
</event>
<event>
12    1  0.8562501E-002  0.2599363E+03  0.7818608E-02  0.1107356E+00
         21   -1    0    0  503  502  0.00000000000E+00  0.00000000000E+00  0.11881582556E+03  0.11881582556E+03  0.00000000000E+00 0. -1.
         21   -1    0    0  501  503 -0.00000000000E+00 -0.00000000000E+00 -0.10040063621E+04  0.10040063621E+04  0.00000000000E+00 0.  1.
          6    2    1    2  501    0 -0.19438412181E+03 -0.12175439381E+01 -0.81390920109E+03  0.85440919279E+03  0.17256944076E+03 0.  0.
         24    2    3    3    0    0 -0.15803088073E+03  0.61158090925E+01 -0.79207806475E+03  0.81111918566E+03  0.74266481655E+02 0.  0.
         -6    2    1    2    0  502  0.19438412181E+03  0.12175439381E+01 -0.71281335485E+02  0.26841299491E+03  0.17081521544E+03 0.  0.
        -24    2    5    5    0    0  0.79558826260E+02  0.22754739738E+02  0.25446656710E+02  0.11666618679E+03  0.78205382078E+02 0.  0.
          5    1    3    3  501    0 -0.36353241082E+02 -0.73333530306E+01 -0.21831136337E+02  0.43290007133E+02  0.47000000000E+01 0. -1.
        -13    1    4    4    0    0 -0.54909748635E+01  0.13497724452E+02 -0.16784401664E+03  0.16847537889E+03  0.00000000000E+00 0.  1.
         14    1    4    4    0    0 -0.15253990586E+03 -0.73819153598E+01 -0.62423404812E+03  0.64264380677E+03  0.00000000000E+00 0. -1.
         -5    1    5    5    0  502  0.11482529555E+03 -0.21537195800E+02 -0.96727992195E+02  0.15174680812E+03  0.47000000000E+01 0.  1.
         13    1    6    6    0    0  0.74248148086E+02 -0.14051421244E+02  0.93416921196E+01  0.76141297236E+02  0.00000000000E+00 0. -1.
        -14    1    6    6    0    0  0.53106781741E+01  0.36806160982E+02  0.16104964591E+02  0.40524889554E+02  0.00000000000E+00 0.  1.
</event>
<event>
12    1  0.8562501E-002  0.2465731E+03  0.7818608E-02  0.1117570E+00
         21   -1    0    0  501  502  0.00000000000E+00  0.00000000000E+00  0.63308582570E+03  0.63308582570E+03  0.00000000000E+00 0.  1.
         21   -1    0    0  502  503 -0.00000000000E+00 -0.00000000000E+00 -0.10003433956E+03  0.10003433956E+03  0.00000000000E+00 0. -1.
         -6    2    1    2    0  503  0.38552456647E+02  0.15477545175E+03  0.16398110712E+03  0.29612179615E+03  0.18803346055E+03 0.  0.
        -24    2    3    3    0    0 -0.30737293636E+02  0.10543792356E+03  0.16111368654E+03  0.21088346391E+03  0.80326075568E+02 0.  0.
          6    2    1    2  501    0 -0.38552456647E+02 -0.15477545175E+03  0.36907037902E+03  0.43699836912E+03  0.17121009772E+03 0.  0.
         24    2    5    5    0    0 -0.17852030200E+02 -0.20310293155E+02  0.75175190646E+02  0.11310663060E+03  0.80066207639E+02 0.  0.
          5    1    5    5  501    0 -0.20700426447E+02 -0.13446515859E+03  0.29389518838E+03  0.32389173852E+03  0.47000000000E+01 0. -1.
        -13    1    6    6    0    0 -0.43554813480E+02  0.79284468747E+01  0.52589461268E+02  0.68742515837E+02  0.00000000000E+00 0.  1.
         14    1    6    6    0    0  0.25702783280E+02 -0.28238740029E+02  0.22585729379E+02  0.44364114759E+02  0.00000000000E+00 0. -1.
         -5    1    3    3    0  503  0.69289750284E+02  0.49337528191E+02  0.28674205801E+01  0.85238332240E+02  0.47000000000E+01 0.  1.
         11    1    4    4    0    0 -0.29991084688E+02  0.11707458989E+03  0.12923720687E+03  0.17694117779E+03  0.00000000000E+00 0. -1.
        -12    1    4    4    0    0 -0.74620894891E+00 -0.11636666330E+02  0.31876479663E+02  0.33942286116E+02  0.00000000000E+00 0.  1.
</event>
<event>
12    1  0.8562501E-002  0.3033682E+03  0.7818608E-02  0.1083590E+00
         21   -1    0    0  503  502  0.00000000000E+00  0.00000000000E+00  0.12001165715E+03  0.12001165715E+03  0.00000000000E+00 0. -1.
         21   -1    0    0  501  503 -0.00000000000E+00 -0.00000000000E+00 -0.19625477471E+04  0.19625477471E+04  0.00000000000E+00 0.  1.
          6    2    1    2  501    0  0.10671713708E+03  0.22580532562E+03 -0.17340794130E+04  0.17603869558E+04  0.17191344023E+03 0.  0.
         24    2    3    3    0    0  0.12185846446E+03  0.15198963333E+03 -0.14921904868E+04  0.15069893258E+04  0.80212500890E+02 0.  0.
         -6    2    1    2    0  502 -0.10671713708E+03 -0.22580532562E+03 -0.10845667697E+03  0.32217244852E+03  0.17220813970E+03 0.  0.
        -24    2    5    5    0    0 -0.11142601842E+03 -0.10719578500E+03 -0.20531882929E+02  0.17437780688E+03  0.77970298273E+02 0.  0.
          5    1    3    3  501    0 -0.15141327383E+02  0.73815692287E+02 -0.24188892628E+03  0.25339762998E+03  0.47000000000E+01 0. -1.
        -11    1    4    4    0    0  0.86417815705E+02  0.52627973155E+02 -0.58499274110E+03  0.59367857429E+03  0.00000000000E+00 0.  1.
         12    1    4    4    0    0  0.35440648759E+02  0.99361660178E+02 -0.90719774565E+03  0.91331075150E+03  0.00000000000E+00 0. -1.
         -5    1    5    5    0  502  0.47088813417E+01 -0.11860954062E+03 -0.87924794036E+02  0.14779464163E+03  0.47000000000E+01 0.  1.
         13    1    6    6    0    0 -0.14583949655E+02 -0.60941838372E+02  0.84057554967E+01  0.63223856076E+02  0.00000000000E+00 0. -1.
        -14    1    6    6    0    0 -0.96842068768E+02 -0.46253946629E+02 -0.28937638426E+02  0.11115395081E+03  0.00000000000E+00 0.  1.
</event>
<event>
12    1  0.8562501E-002  0.2123812E+03  0.7818608E-02  0.1139828E+00
         21   -1    0    0  501  502  0.00000000000E+00  0.00000000000E+00  0.81495294472E+02  0.81495294472E+02  0.00000000000E+00 0. -1.
         21   -1    0    0  502  503 -0.00000000000E+00 -0.00000000000E+00 -0.11222038363E+04  0.11222038363E+04  0.00000000000E+00 0.  1.
         -6    2    1    2    0  503 -0.76000863467E+02  0.97054395882E+02 -0.94906565675E+03  0.97238940768E+03  0.17210419037E+03 0.  0.
        -24    2    3    3    0    0  0.24831149563E+02  0.25429189548E+02 -0.38076142489E+03  0.39076319182E+03  0.80332930507E+02 0.  0.
          6    2    1    2  501    0  0.76000863467E+02 -0.97054395882E+02 -0.91642885040E+02  0.23130972305E+03  0.17294531677E+03 0.  0.
         24    2    5    5    0    0 -0.18000974395E+02 -0.37951858838E+02 -0.77534204601E+02  0.11928026144E+03  0.80323403915E+02 0.  0.
          5    1    5    5  501    0  0.94001837862E+02 -0.59102537044E+02 -0.14108680439E+02  0.11202946162E+03  0.47000000000E+01 0. -1.
        -13    1    6    6    0    0 -0.18103933181E+02  0.14654902684E+02 -0.59121418208E+02  0.63544163069E+02  0.00000000000E+00 0.  1.
         14    1    6    6    0    0  0.10295878607E+00 -0.52606761522E+02 -0.18412786393E+02  0.55736098366E+02  0.00000000000E+00 0. -1.
         -5    1    3    3    0  503 -0.10083201303E+03  0.71625206333E+02 -0.56830423186E+03  0.58162621586E+03  0.47000000000E+01 0.  1.
         13    1    4    4    0    0  0.42190252240E+02  0.40293438010E+02 -0.19324823070E+03  0.20186247100E+03  0.00000000000E+00 0. -1.
        -14    1    4    4    0    0 -0.17359102677E+02 -0.14864248461E+02 -0.18751319419E+03  0.18890072082E+03  0.00000000000E+00 0.  1.
</event>
<event>
12    1  0.8562501E-002  0.2044786E+03  0.7818608E-02  0.1146049E+00
         21   -1    0    0  501  502  0.00000000000E+00  0.00000000000E+00  0.77981640083E+03  0.77981640083E+03  0.00000000000E+00 0. -1.
         21   -1    0    0  502  503 -0.00000000000E+00 -0.00000000000E+00 -0.90241050433E+02  0.90241050433E+02  0.00000000000E+00 0. -1.
         -6    2    1    2    0  503 -0.10616649048E+03 -0.22830682608E+02  0.67394911301E+02  0.21513761344E+03  0.17305939697E+03 0.  0.
        -24    2    3    3    0    0 -0.92006910307E+02 -0.79668624615E+02  0.43683480588E+02  0.15177068746E+03  0.79459007061E+02 0.  0.
          6    2    1    2  501    0  0.10616649048E+03  0.22830682608E+02  0.62218043910E+03  0.65491983782E+03  0.17325972240E+03 0.  0.
         24    2    5    5    0    0  0.61287714341E+02 -0.74701458298E+01  0.15442412379E+03  0.18401612658E+03  0.78760001428E+02 0.  0.
          5    1    5    5  501    0  0.44878776143E+02  0.30300828438E+02  0.46775631530E+03  0.47090371124E+03  0.47000000000E+01 0. -1.
        -11    1    6    6    0    0  0.72190101165E+02 -0.24497516296E+02  0.98533713870E+02  0.12458102496E+03  0.00000000000E+00 0.  1.
         12    1    6    6    0    0 -0.10902386824E+02  0.17027370467E+02  0.55890409923E+02  0.59435101622E+02  0.00000000000E+00 0. -1.
         -5    1    3    3    0  503 -0.14159580177E+02  0.56837942007E+02  0.23711430713E+02  0.63366925986E+02  0.47000000000E+01 0.  1.
         11    1    4    4    0    0 -0.86266859503E+01 -0.33575292527E+02  0.44607336356E+02  0.56493667216E+02  0.00000000000E+00 0. -1.
        -12    1    4    4    0    0 -0.83380224356E+02 -0.46093332088E+02 -0.92385576837E+00  0.95277020242E+02  0.00000000000E+00 0.  1.
</event>
<event>
12    1  0.8562501E-002  0.1834274E+03  0.7818608E-02  0.1169160E+00
         21   -1    0    0  503  502  0.00000000000E+00  0.00000000000E+00  0.40612897618E+02  0.40612897618E+02  0.00000000000E+00 0. -1.
         21   -1    0    0  501  503 -0.00000000000E+00 -0.00000000000E+00 -0.85673581450E+03  0.85673581450E+03  0.00000000000E+00 0. -1.
          6    2    1    2  501    0 -0.52533680485E+02 -0.23895931609E+01 -0.58751212389E+03  0.61548039586E+03  0.17572741455E+03 0.  0.
         24    2    3    3    0    0  0.26851911850E+02  0.11682711357E+02 -0.42749428342E+03  0.43623781918E+03  0.81820300733E+02 0.  0.
         -6    2    1    2    0  502  0.52533680485E+02  0.23895931609E+01 -0.22861079299E+03  0.28186831626E+03  0.15627333521E+03 0.  0.
        -24    2    5    5    0    0 -0.18715300333E+02  0.24161295978E+02 -0.11664712500E+03  0.14730094554E+03  0.84598972204E+02 0.  0.
          5    1    3    3  501    0 -0.79385592335E+02 -0.14072304518E+02 -0.16001784047E+03  0.17924257668E+03  0.47000000000E+01 0. -1.
        -11    1    4    4    0    0 -0.28004369279E+02  0.14627851829E+02 -0.17602410341E+03  0.17883708712E+03  0.00000000000E+00 0.  1.
         12    1    4    4    0    0  0.54856281129E+02 -0.29451404721E+01 -0.25147018001E+03  0.25740073206E+03  0.00000000000E+00 0. -1.
         -5    1    5    5    0  502  0.71248980818E+02 -0.21771702817E+02 -0.11196366800E+03  0.13456737072E+03  0.47000000000E+01 0.  1.
         11    1    6    6    0    0 -0.42530456287E+02  0.26733730334E+01 -0.23239596190E+02  0.48539318767E+02  0.00000000000E+00 0. -1.
        -12    1    6    6    0    0  0.23815155954E+02  0.21487922944E+02 -0.93407528806E+02  0.98761626775E+02  0.00000000000E+00 0.  1.
</event>
<event>
12    1  0.8562501E-002  0.1756966E+03  0.7818608E-02  0.1172119E+00
         21   -1    0    0  503  502  0.00000000000E+00  0.00000000000E+00  0.17838424941E+02  0.17838424941E+02  0.00000000000E+00 0. -1.
         21   -1    0    0  501  503 -0.00000000000E+00 -0.00000000000E+00 -0.27340261569E+04  0.27340261569E+04  0.00000000000E+00 0. -1.
          6    2    1    2  501    0  0.19677757853E+02  0.33328098764E+02 -0.21939154237E+04  0.22009393847E+04  0.17138060704E+03 0.  0.
         24    2    3    3    0    0 -0.21470758301E+02  0.78403452547E+02 -0.17201270845E+04  0.17232130317E+04  0.63386680689E+02 0.  0.
         -6    2    1    2    0  502 -0.19677757853E+02 -0.33328098764E+02 -0.52227230825E+03  0.55092519712E+03  0.17103284055E+03 0.  0.
        -24    2    5    5    0    0 -0.33426130855E+02  0.15041278775E+02 -0.47073123188E+03  0.47876435597E+03  0.79270862149E+02 0.  0.
          5    1    3    3  501    0  0.41148516154E+02 -0.45075353783E+02 -0.47378833927E+03  0.47772635298E+03  0.47000000000E+01 0. -1.
        -13    1    4    4    0    0  0.99102671877E+01  0.53501619749E+02 -0.62843770690E+03  0.63078886179E+03  0.00000000000E+00 0.  1.
         14    1    4    4    0    0 -0.31381025488E+02  0.24901832798E+02 -0.10916893776E+04  0.10924241700E+04  0.00000000000E+00 0. -1.
         -5    1    5    5    0  502  0.13748373002E+02 -0.48369377538E+02 -0.51541076366E+02  0.72160841158E+02  0.47000000000E+01 0.  1.
         11    1    6    6    0    0  0.13969724032E+02 -0.36790424890E+01 -0.17567214657E+02  0.22744132738E+02  0.00000000000E+00 0. -1.
        -12    1    6    6    0    0 -0.47395854887E+02  0.18720321264E+02 -0.45316401722E+03  0.45602022323E+03  0.00000000000E+00 0.  1.
</event>
<event>
12    1  0.8562501E-002  0.1799484E+03  0.7818608E-02  0.1168570E+00
         21   -1    0    0  501  502  0.00000000000E+00  0.00000000000E+00  0.99582098446E+02  0.99582098446E+02  0.00000000000E+00 0.  1.
         21   -1    0    0  502  503 -0.00000000000E+00 -0.00000000000E+00 -0.32857535880E+03  0.32857535880E+03  0.00000000000E+00 0.  1.
         -6    2    1    2    0  503 -0.43680626353E+02 -0.34606034147E+02 -0.78766951974E+02  0.19374467431E+03  0.16800949789E+03 0.  0.
        -24    2    3    3    0    0  0.25222001482E+01  0.26301869769E+02 -0.78069345665E+02  0.11714799950E+03  0.83250712960E+02 0.  0.
          6    2    1    2  501    0  0.43680626353E+02  0.34606034147E+02 -0.15022630838E+03  0.23441278294E+03  0.17110182453E+03 0.  0.
         24    2    5    5    0    0  0.84538135658E+01  0.30396011622E+02 -0.68488403905E+01  0.86636462252E+02  0.80396427100E+02 0.  0.
          5    1    5    5  501    0  0.35226812787E+02  0.42100225247E+01 -0.14337746799E+03  0.14777632069E+03  0.47000000000E+01 0. -1.
        -11    1    6    6    0    0  0.10319663534E+02  0.56597798681E+02 -0.14397723491E+02  0.59305149125E+02  0.00000000000E+00 0.  1.
         12    1    6    6    0    0 -0.18658499683E+01 -0.26201787059E+02  0.75488831000E+01  0.27331313127E+02  0.00000000000E+00 0. -1.
         -5    1    3    3    0  503 -0.46202826501E+02 -0.60907903916E+02 -0.69760630808E+00  0.76596674802E+02  0.47000000000E+01 0.  1.
         13    1    4    4    0    0 -0.13455969781E+02  0.51079535572E+02 -0.67756710603E+02  0.85913642158E+02  0.00000000000E+00 0. -1.
        -14    1    4    4    0    0  0.15978169929E+02 -0.24777665803E+02 -0.10312635062E+02  0.31234357347E+02  0.00000000000E+00 0.  1.
</event>
<event>
12    1  0.8562501E-002  0.1759598E+03  0.7818608E-02  0.1172607E+00
         21   -1    0    0  501  502  0.00000000000E+00  0.00000000000E+00  0.74483650971E+02  0.74483650971E+02  0.00000000000E+00 0. -1.
         21   -1    0    0  502  503 -0.00000000000E+00 -0.00000000000E+00 -0.41497532611E+03  0.41497532611E+03  0.00000000000E+00 0. -1.
         -6    2    1    2    0  503 -0.57887861027E+01  0.21920289087E+02 -0.20383640639E+03  0.26927893434E+03  0.17449313681E+03 0.  0.
        -24    2    3    3    0    0  0.30306724671E+02  0.67706295823E+02 -0.16951369751E+03  0.20146018578E+03  0.79678558972E+02 0.  0.
          6    2    1    2  501    0  0.57887861027E+01 -0.21920289087E+02 -0.13665526875E+03  0.22018004274E+03  0.17114490827E+03 0.  0.
         24    2    5    5    0    0 -0.40199663433E+02 -0.58570128230E+02 -0.53026961088E+02  0.11783781273E+03  0.77636451792E+02 0.  0.
          5    1    5    5  501    0  0.45988449536E+02  0.36649839142E+02 -0.83628307664E+02  0.10234223001E+03  0.47000000000E+01 0. -1.
        -13    1    6    6    0    0 -0.40446826287E+01 -0.65597512952E+02 -0.20905175884E+02  0.68966800287E+02  0.00000000000E+00 0.  1.
         14    1    6    6    0    0 -0.36154980804E+02  0.70273847225E+01 -0.32121785204E+02  0.48871012448E+02  0.00000000000E+00 0. -1.
         -5    1    3    3    0  503 -0.36095510774E+02 -0.45786006736E+02 -0.34322708884E+02  0.67818748558E+02  0.47000000000E+01 0.  1.
         11    1    4    4    0    0  0.38223808779E+02  0.17853253707E+02 -0.13197575620E+03  0.13855467675E+03  0.00000000000E+00 0. -1.
        -12    1    4    4    0    0 -0.79170841077E+01  0.49853042116E+02 -0.37537941304E+02  0.62905509031E+02  0.00000000000E+00 0.  1.
</event>
<event>
12    1  0.8562501E-002  0.2435275E+03  0.7818608E-02  0.1117740E+00
         21   -1    0    0  503  502  0.00000000000E+00  0.00000000000E+00  0.41383475751E+03  0.41383475751E+03  0.00000000000E+00 0. -1.
         21   -1    0    0  501  503 -0.00000000000E+00 -0.00000000000E+00 -0.15855784987E+03  0.15855784987E+03  0.00000000000E+00 0. -1.
          6    2    1    2  501    0 -0.10264292723E+03 -0.13682164842E+03  0.36459223261E+02  0.24624154354E+03  0.17334903755E+03 0.  0.
         24    2    3    3    0    0 -0.13352107947E+03 -0.10403727577E+03  0.58069475830E+02  0.19606816024E+03  0.80118824391E+02 0.  0.
         -6    2    1    2    0  502  0.10264292723E+03  0.13682164842E+03  0.21881768438E+03  0.32615106384E+03  0.17099006831E+03 0.  0.
        -24    2    5    5    0    0 -0.11525547571E+02  0.43099631551E+02  0.11001989576E+03  0.14263728809E+03  0.79060748809E+02 0.  0.
          5    1    3    3  501    0  0.30878152248E+02 -0.32784372644E+02 -0.21610252569E+02  0.50173383302E+02  0.47000000000E+01 0. -1.
        -13    1    4    4    0    0 -0.75252840274E+02 -0.10207862152E+03  0.25745383432E+02  0.12940579473E+03  0.00000000000E+00 0.  1.
         14    1    4    4    0    0 -0.58268239199E+02 -0.19586542503E+01  0.32324092398E+02  0.66662365509E+02  0.00000000000E+00 0. -1.
         -5    1    5    5    0  502  0.11416847480E+03  0.93722016867E+02  0.10879778861E+03  0.18351377575E+03  0.47000000000E+01 0.  1.
         13    1    6    6    0    0  0.33040719583E+01  0.64569427149E+02  0.76636050640E+02  0.10026570736E+03  0.00000000000E+00 0. -1.
        -14    1    6    6    0    0 -0.14829619529E+02 -0.21469795598E+02  0.33383845124E+02  0.42371580732E+02  0.00000000000E+00 0.  1.
</event>
<event>
12    1  0.8562501E-002  0.2498849E+03  0.7818608E-02  0.1113508E+00
         21   -1    0    0  503  502  0.00000000000E+00  0.00000000000E+00  0.38147054353E+02  0.38147054353E+02  0.00000000000E+00 0. -1.
         21   -1    0    0  501  503 -0.00000000000E+00 -0.00000000000E+00 -0.17708182407E+04  0.17708182407E+04  0.00000000000E+00 0. -1.
          6    2    1    2  501    0  0.17380091598E+03 -0.47135049470E+02 -0.61132615845E+03  0.66011493551E+03  0.17205692311E+03 0.  0.
         24    2    3    3    0    0  0.12514080029E+03 -0.87354664835E+01 -0.23534253377E+03  0.27902687369E+03  0.82057051910E+02 0.  0.
         -6    2    1    2    0  502 -0.17380091598E+03  0.47135049470E+02 -0.11213450279E+04  0.11488503595E+04  0.17324550716E+03 0.  0.
        -24    2    5    5    0    0 -0.16379936080E+03  0.17505425879E+02 -0.55061058387E+03  0.57724049145E+03  0.53832140689E+02 0.  0.
          5    1    3    3  501    0  0.48660115699E+02 -0.38399582987E+02 -0.37598362468E+03  0.38108806182E+03  0.47000000000E+01 0. -1.
        -13    1    4    4    0    0  0.87840306930E+01  0.25109082575E+02 -0.26340582806E+02  0.37435965669E+02  0.00000000000E+00 0.  1.
         14    1    4    4    0    0  0.11635676959E+03 -0.33844549059E+02 -0.20900195097E+03  0.24159090802E+03  0.00000000000E+00 0. -1.
         -5    1    5    5    0  502 -0.10001555183E+02  0.29629623591E+02 -0.57073444401E+03  0.57160986807E+03  0.47000000000E+01 0.  1.
         11    1    6    6    0    0 -0.11605579014E+03 -0.21910706652E+01 -0.44180997744E+03  0.45680390035E+03  0.00000000000E+00 0. -1.
        -12    1    6    6    0    0 -0.47743570666E+02  0.19696496545E+02 -0.10880060643E+03  0.12043659110E+03  0.00000000000E+00 0.  1.
</event>
<event>
12    1  0.8562501E-002  0.2320724E+03  0.7818608E-02  0.1125651E+00
         21   -1    0    0  501  502  0.00000000000E+00  0.00000000000E+00  0.10269969675E+03  0.10269969675E+03  0.00000000000E+00 0. -1.
         21   -1    0    0  502  503 -0.00000000000E+00 -0.00000000000E+00 -0.58563113316E+03  0.58563113316E+03  0.00000000000E+00 0. -1.
         -6    2    1    2    0  503  0.69727783443E+02  0.13599457825E+03 -0.35678422987E+03  0.42418937718E+03  0.17112905051E+03 0.  0.
        -24    2    3    3    0    0  0.26170862796E+02  0.14649475323E+03 -0.20525633685E+03  0.26610632504E+03  0.80850390384E+02 0.  0.
          6    2    1    2  501    0 -0.69727783443E+02 -0.13599457825E+03 -0.12614720654E+03  0.26414145273E+03  0.17464564189E+03 0.  0.
         24    2    5    5    0    0  0.24520743357E+02 -0.46073037076E+02 -0.86383338405E+02  0.12786260778E+03  0.78503335682E+02 0.  0.
          5    1    5    5  501    0 -0.94248526800E+02 -0.89921541177E+02 -0.39763868134E+02  0.13627884495E+03  0.47000000000E+01 0. -1.
        -11    1    6    6    0    0  0.11705296208E+02 -0.20297548054E+02  0.11309246720E+02  0.26017368770E+02  0.00000000000E+00 0.  1.
         12    1    6    6    0    0  0.12815447149E+02 -0.25775489022E+02 -0.97692585125E+02  0.10184523901E+03  0.00000000000E+00 0. -1.
         -5    1    3    3    0  503  0.43556920647E+02 -0.10500174978E+02 -0.15152789302E+03  0.15808305214E+03  0.47000000000E+01 0.  1.
         13    1    4    4    0    0  0.51976782259E+02  0.61622841311E+02 -0.95052323932E+02  0.12463508635E+03  0.00000000000E+00 0. -1.
        -14    1    4    4    0    0 -0.25805919464E+02  0.84871911921E+02 -0.11020401292E+03  0.14147123869E+03  0.00000000000E+00 0.  1.
</event>
<event>
12    1  0.8562501E-002  0.1752441E+03  0.7818608E-02  0.1172801E+00
         21   -1    0    0  503  502  0.00000000000E+00  0.00000000000E+00  0.37788494406E+03  0.37788494406E+03  0.00000000000E+00 0.  1.
         21   -1    0    0  501  503 -0.00000000000E+00 -0.00000000000E+00 -0.97874989693E+02  0.97874989693E+02  0.00000000000E+00 0.  1.
          6    2    1    2  501    0  0.66798430334E+01 -0.30687832374E+02  0.39918487583E+02  0.17851525204E+03  0.17113692238E+03 0.  0.
         24    2    3    3    0    0 -0.11463102152E+02 -0.72570922171E+02  0.34215462444E+02  0.13227701930E+03  0.10453980347E+03 0.  0.
         -6    2    1    2    0  502 -0.66798430334E+01  0.30687832374E+02  0.24009146678E+03  0.29724468171E+03  0.17240685898E+03 0.  0.
        -24    2    5    5    0    0 -0.64040796391E+02 -0.12702570668E+01  0.15764418681E+03  0.19173997837E+03  0.88372464698E+02 0.  0.
          5    1    3    3  501    0  0.18142945186E+02  0.41883089797E+02  0.57030251388E+01  0.46238232737E+02  0.47000000000E+01 0. -1.
        -13    1    4    4    0    0 -0.50884038911E+02 -0.50092315391E+02  0.46567545163E+02  0.85246476406E+02  0.00000000000E+00 0.  1.
         14    1    4    4    0    0  0.39420936759E+02 -0.22478606780E+02 -0.12352082720E+02  0.47030542898E+02  0.00000000000E+00 0. -1.
         -5    1    5    5    0  502  0.57360953358E+02  0.31958089441E+02  0.82447279976E+02  0.10550470334E+03  0.47000000000E+01 0.  1.
         11    1    6    6    0    0 -0.12831356504E+02 -0.41724695198E+02  0.57144286815E+02  0.71910106485E+02  0.00000000000E+00 0. -1.
        -12    1    6    6    0    0 -0.51209439887E+02  0.40454438132E+02  0.10049989999E+03  0.11982987189E+03  0.00000000000E+00 0.  1.
</event>
<event>
12    1  0.8562501E-002  0.2155339E+03  0.7818608E-02  0.1137280E+00
         21   -1    0    0  503  502  0.00000000000E+00  0.00000000000E+00  0.15091954269E+04  0.15091954269E+04  0.00000000000E+00 0. -1.
         21   -1    0    0  501  503 -0.00000000000E+00 -0.00000000000E+00 -0.35784391694E+02  0.35784391694E+02  0.00000000000E+00 0. -1.
          6    2    1    2  501    0 -0.12693976986E+03 -0.82531825807E+01  0.44720031507E+03  0.49637918465E+03  0.17384577348E+03 0.  0.
         24    2    3    3    0    0 -0.48024964839E+02 -0.67598419716E+02  0.29217275143E+03  0.31251771748E+03  0.73664533279E+02 0.  0.
         -6    2    1    2    0  502  0.12693976986E+03  0.82531825807E+01  0.10262107202E+04  0.10486006340E+04  0.17399145726E+03 0.  0.
        -24    2    5    5    0    0  0.19744176179E+02 -0.38595360042E+02  0.30121862073E+03  0.31421564265E+03  0.78226455235E+02 0.  0.
          5    1    3    3  501    0 -0.78914805016E+02  0.59345237135E+02  0.15502756364E+03  0.18386146717E+03  0.47000000000E+01 0. -1.
        -11    1    4    4    0    0 -0.53134798665E+02 -0.58584302737E+02  0.14657959446E+03  0.16655631141E+03  0.00000000000E+00 0.  1.
         12    1    4    4    0    0  0.51098338253E+01 -0.90141169783E+01  0.14559315697E+03  0.14596140607E+03  0.00000000000E+00 0. -1.
         -5    1    5    5    0  502  0.10719559368E+03  0.46848542623E+02  0.72499209944E+03  0.73438499133E+03  0.47000000000E+01 0.  1.
         11    1    6    6    0    0  0.67502596487E+00 -0.27280977156E+02  0.28605408480E+03  0.28735282634E+03  0.00000000000E+00 0. -1.
        -12    1    6    6    0    0  0.19069150214E+02 -0.11314382886E+02  0.15164535933E+02  0.26862816309E+02  0.00000000000E+00 0.  1.
</event>
<event>
12    1  0.8562501E-002  0.2528602E+03  0.7818608E-02  0.1111618E+00
         21   -1    0    0  501  502  0.00000000000E+00  0.00000000000E+00  0.14723640024E+03  0.14723640024E+03  0.00000000000E+00 0. -1.
         21   -1    0    0  502  503 -0.00000000000E+00 -0.00000000000E+00 -0.43358242084E+03  0.43358242084E+03  0.00000000000E+00 0. -1.
         -6    2    1    2    0  503  0.10433726405E+03 -0.15196971052E+03 -0.13301536670E+03  0.28510174583E+03  0.17207225259E+03 0.  0.
        -24    2    3    3    0    0  0.13516550410E+03 -0.13688734649E+03 -0.82303486140E+02  0.22368804280E+03  0.79086139952E+02 0.  0.
          6    2    1    2  501    0 -0.10433726405E+03  0.15196971052E+03 -0.15333065390E+03  0.29571707524E+03  0.17308160382E+03 0.  0.
         24    2    5    5    0    0 -0.12044879428E+03  0.63002331522E+02 -0.11968583347E+03  0.19913115559E+03  0.82772655946E+02 0.  0.
          5    1    5    5  501    0  0.16111530238E+02  0.88967379001E+02 -0.33644820426E+02  0.96585919649E+02  0.47000000000E+01 0. -1.
        -11    1    6    6    0    0 -0.24177181971E+00 -0.38665059880E+01 -0.39950265696E+02  0.40137663751E+02  0.00000000000E+00 0.  1.
         12    1    6    6    0    0 -0.12020702247E+03  0.66868837510E+02 -0.79735567774E+02  0.15899349184E+03  0.00000000000E+00 0. -1.
         -5    1    3    3    0  503 -0.30828240057E+02 -0.15082364034E+02 -0.50711880562E+02  0.61413703032E+02  0.47000000000E+01 0.  1.
         13    1    4    4    0    0  0.10196302493E+03 -0.11512513637E+03 -0.96467016159E+02  0.18153826232E+03  0.00000000000E+00 0. -1.
        -14    1    4    4    0    0  0.33202479171E+02 -0.21762210119E+02  0.14163530019E+02  0.42149780485E+02  0.00000000000E+00 0.  1.
</event>
<event>
12    1  0.8562501E-002  0.1756450E+03  0.7818608E-02  0.1172421E+00
         21   -1    0    0  501  502  0.00000000000E+00  0.00000000000E+00  0.72438064518E+03  0.72438064518E+03  0.00000000000E+00 0. -1.
         21   -1    0    0  502  503 -0.00000000000E+00 -0.00000000000E+00 -0.47148408021E+02  0.47148408021E+02  0.00000000000E+00 0. -1.
         -6    2    1    2    0  503 -0.17217405092E+02  0.11570202253E+02  0.21331868736E+03  0.27547771490E+03  0.17306877364E+03 0.  0.
        -24    2    3    3    0    0  0.60460305521E+00 -0.28565610287E+02  0.21507116779E+03  0.23127739125E+03  0.80107832661E+02 0.  0.
          6    2    1    2  501    0  0.17217405092E+02 -0.11570202253E+02  0.46391354979E+03  0.49605133830E+03  0.17441571009E+03 0.  0.
         24    2    5    5    0    0  0.11612795098E+02 -0.61353338550E+02  0.16563296392E+03  0.19355642888E+03  0.78298935269E+02 0.  0.
          5    1    5    5  501    0  0.56046099947E+01  0.49783136296E+02  0.29828058588E+03  0.30249490942E+03  0.47000000000E+01 0. -1.
        -11    1    6    6    0    0  0.57379288378E+01 -0.71355397202E+02  0.16717262874E+03  0.18185489913E+03  0.00000000000E+00 0.  1.
         12    1    6    6    0    0  0.58748662597E+01  0.10002058652E+02 -0.15396648208E+01  0.11701529755E+02  0.00000000000E+00 0. -1.
         -5    1    3    3    0  503 -0.17822008147E+02  0.40135812541E+02 -0.17524804297E+01  0.44200323645E+02  0.47000000000E+01 0.  1.
         13    1    4    4    0    0 -0.32360955568E+02  0.96833400590E+01  0.71298550988E+02  0.78895385752E+02  0.00000000000E+00 0. -1.
        -14    1    4    4    0    0  0.32965558624E+02 -0.38248950346E+02  0.14377261680E+03  0.15238200550E+03  0.00000000000E+00 0.  1.
</event>
<event>
12    1  0.8562501E-002  0.1844506E+03  0.7818608E-02  0.1163665E+00
         21   -1    0    0  503  502  0.00000000000E+00  0.00000000000E+00  0.11614982477E+03  0.11614982477E+03  0.00000000000E+00 0. -1.
         21   -1    0    0  501  503 -0.00000000000E+00 -0.00000000000E+00 -0.93815763374E+03  0.93815763374E+03  0.00000000000E+00 0.  1.
          6    2    1    2  501    0 -0.35650454392E+02  0.58465860261E+02 -0.84856659633E+03  0.86838200060E+03  0.17126826573E+03 0.  0.
         24    2    3    3    0    0 -0.86561340484E+02  0.57003894307E+02 -0.53987075723E+03  0.55547743569E+03  0.79702179458E+02 0.  0.
         -6    2    1    2    0  502  0.35650454392E+02 -0.58465860261E+02  0.26558787358E+02  0.18592545791E+03  0.17080308838E+03 0.  0.
        -24    2    5    5    0    0  0.60712481545E+02 -0.87937826786E+02 -0.62754308047E+01  0.13496588670E+03  0.82203058000E+02 0.  0.
          5    1    3    3  501    0  0.50910886092E+02  0.14619659537E+01 -0.30869583909E+03  0.31290456491E+03  0.47000000000E+01 0. -1.
        -13    1    4    4    0    0 -0.40251270303E+00  0.37049315268E+02 -0.23978967981E+03  0.24263533197E+03  0.00000000000E+00 0.  1.
         14    1    4    4    0    0 -0.86158827781E+02  0.19954579039E+02 -0.30008107742E+03  0.31284210372E+03  0.00000000000E+00 0. -1.
         -5    1    5    5    0  502 -0.25062027153E+02  0.29471966525E+02  0.32834218163E+02  0.50959571213E+02  0.47000000000E+01 0.  1.
         11    1    6    6    0    0  0.31220868210E+02 -0.57469349456E+02  0.36363270542E+02  0.74831518648E+02  0.00000000000E+00 0. -1.
        -12    1    6    6    0    0  0.29491613335E+02 -0.30468477330E+02 -0.42638701347E+02  0.60134368048E+02  0.00000000000E+00 0.  1.
</event>
<event>
12    1  0.8562501E-002  0.2964382E+03  0.7818608E-02  0.1087057E+00
         21   -1    0    0  503  502  0.00000000000E+00  0.00000000000E+00  0.76942689916E+03  0.76942689916E+03  0.00000000000E+00 0. -1.
         21   -1    0    0  501  503 -0.00000000000E+00 -0.00000000000E+00 -0.26278605949E+03  0.26278605949E+03  0.00000000000E+00 0. -1.
          6    2    1    2  501    0 -0.11266496630E+03  0.21342034744E+03 -0.13487197982E+03  0.32552042754E+03  0.17184719513E+03 0.  0.
         24    2    3    3    0    0 -0.83050322498E+02  0.91929275377E+02 -0.13510299596E+03  0.20038349819E+03  0.80946767035E+02 0.  0.
         -6    2    1    2    0  502  0.11266496630E+03 -0.21342034744E+03  0.64151281950E+03  0.70669253111E+03  0.17214527764E+03 0.  0.
        -24    2    5    5    0    0  0.10795336026E+03 -0.14593842350E+03  0.58770597050E+03  0.62012881879E+03  0.78800334365E+02 0.  0.
          5    1    3    3  501    0 -0.29614643804E+02  0.12149107206E+03  0.23101613559E+00  0.12513692935E+03  0.47000000000E+01 0. -1.
        -13    1    4    4    0    0 -0.76182429408E+02  0.47976884795E+02 -0.46708216446E+02  0.10142584241E+03  0.00000000000E+00 0.  1.
         14    1    4    4    0    0 -0.68678930899E+01  0.43952390582E+02 -0.88394779510E+02  0.98957655782E+02  0.00000000000E+00 0. -1.
         -5    1    5    5    0  502  0.47116060445E+01 -0.67481923943E+02  0.53806848998E+02  0.86563712314E+02  0.47000000000E+01 0.  1.
         11    1    6    6    0    0  0.94397305440E+02 -0.14372993618E+03  0.44993379709E+03  0.48167371487E+03  0.00000000000E+00 0. -1.
        -12    1    6    6    0    0  0.13556054818E+02 -0.22084873190E+01  0.13777217341E+03  0.13845510393E+03  0.00000000000E+00 0.  1.
</event>
<event>
12    1  0.8562501E-002  0.1981925E+03  0.7818608E-02  0.1151764E+00
         21   -1    0    0  503  502  0.00000000000E+00  0.00000000000E+00  0.64166859663E+03  0.64166859663E+03  0.00000000000E+00 0.  1.
         21   -1    0    0  501  503 -0.00000000000E+00 -0.00000000000E+00 -0.68817767516E+02  0.68817767516E+02  0.00000000000E+00 0.  1.
          6    2    1    2  501    0  0.98411269329E+02 -0.14850053088E+01  0.16447083680E+03  0.25754791536E+03  0.17202700189E+03 0.  0.
         24    2    3    3    0    0  0.79085093775E+02 -0.62166628810E+02  0.79110480431E+02  0.15094472155E+03  0.80041858137E+02 0.  0.
         -6    2    1    2    0  502 -0.98411269329E+02  0.14850053088E+01  0.40837999231E+03  0.45293844878E+03  0.16938724005E+03 0.  0.
        -24    2    5    5    0    0 -0.10167870468E+03 -0.78763919950E+01  0.16750373005E+03  0.21181239126E+03  0.80039946118E+02 0.  0.
          5    1    3    3  501    0  0.19326175554E+02  0.60681623501E+02  0.85360356369E+02  0.10660319382E+03  0.47000000000E+01 0. -1.
        -13    1    4    4    0    0  0.39365872198E+02 -0.16335772520E+02  0.79603701157E+02  0.90295507063E+02  0.00000000000E+00 0.  1.
         14    1    4    4    0    0  0.39719221577E+02 -0.45830856290E+02 -0.49322072634E+00  0.60649214485E+02  0.00000000000E+00 0. -1.
         -5    1    5    5    0  502  0.32674353549E+01  0.93613973037E+01  0.24087626227E+03  0.24112605752E+03  0.47000000000E+01 0.  1.
         11    1    6    6    0    0  0.10824791187E+02  0.11055094490E+02  0.22565398191E+02  0.27360343819E+02  0.00000000000E+00 0. -1.
        -12    1    6    6    0    0 -0.11250349587E+03 -0.18931486485E+02  0.14493833186E+03  0.18445204744E+03  0.00000000000E+00 0.  1.
</event>
<event>
12    1  0.8562501E-002  0.3090222E+03  0.7818608E-02  0.1080827E+00
         21   -1    0    0  503  502  0.00000000000E+00  0.00000000000E+00  0.16678770666E+03  0.16678770666E+03  0.00000000000E+00 0. -1.
         21   -1    0    0  501  503 -0.00000000000E+00 -0.00000000000E+00 -0.77586212684E+03  0.77586212684E+03  0.00000000000E+00 0. -1.
          6    2    1    2  501    0 -0.22427412748E+03  0.12472535524E+03 -0.54587777865E+03  0.62723184838E+03  0.17199402288E+03 0.  0.
         24    2    3    3    0    0 -0.13371087933E+03  0.31679126013E+01 -0.31125546606E+03  0.34786178316E+03  0.78988734080E+02 0.  0.
         -6    2    1    2    0  502  0.22427412748E+03 -0.12472535524E+03 -0.63196641539E+02  0.31541798512E+03  0.17216094603E+03 0.  0.
        -24    2    5    5    0    0  0.14160696358E+03 -0.95530706980E+02  0.25885619816E+02  0.19034230098E+03  0.79884154364E+02 0.  0.
          5    1    3    3  501    0 -0.90563248149E+02  0.12155744264E+03 -0.23462231259E+03  0.27937006522E+03  0.47000000000E+01 0. -1.
        -13    1    4    4    0    0 -0.15523973190E+02  0.22869427446E+02 -0.11196020182E+03  0.11532168594E+03  0.00000000000E+00 0.  1.
         14    1    4    4    0    0 -0.11818690614E+03 -0.19701514844E+02 -0.19929526423E+03  0.23254009722E+03  0.00000000000E+00 0. -1.
         -5    1    5    5    0  502  0.82667163898E+02 -0.29194648264E+02 -0.89082261355E+02  0.12507568414E+03  0.47000000000E+01 0.  1.
         11    1    6    6    0    0  0.12441668718E+02 -0.25009598105E+02  0.32718852095E+02  0.43020906548E+02  0.00000000000E+00 0. -1.
        -12    1    6    6    0    0  0.12916529486E+03 -0.70521108875E+02 -0.68332322786E+01  0.14732139443E+03  0.00000000000E+00 0.  1.
</event>
<event>
12    1  0.8562501E-002  0.2104205E+03  0.7818608E-02  0.1144149E+00
         21   -1    0    0  503  502  0.00000000000E+00  0.00000000000E+00  0.50184402220E+03  0.50184402220E+03  0.00000000000E+00 0. -1.
         21   -1    0    0  501  503 -0.00000000000E+00 -0.00000000000E+00 -0.14075776331E+03  0.14075776331E+03  0.00000000000E+00 0. -1.
          6    2    1    2  501    0 -0.72498141361E+02  0.49822570991E+02 -0.30022694064E+02  0.19848130306E+03  0.17537159526E+03 0.  0.
         24    2    3    3    0    0 -0.53753420905E+02  0.30081139579E+02  0.50794827016E+02  0.11307257767E+03  0.80068646495E+02 0.  0.
         -6    2    1    2    0  502  0.72498141361E+02 -0.49822570991E+02  0.39110895295E+03  0.44412048246E+03  0.19115051865E+03 0.  0.
        -24    2    5    5    0    0  0.23049342767E+02 -0.10526640938E+03  0.28057462978E+03  0.31085709853E+03  0.79358198590E+02 0.  0.
          5    1    3    3  501    0 -0.18744720456E+02  0.19741431412E+02 -0.80817521079E+02  0.85408725389E+02  0.47000000000E+01 0. -1.
        -13    1    4    4    0    0 -0.35262244234E+02  0.56306671011E+02  0.45563669504E+02  0.80560008983E+02  0.00000000000E+00 0.  1.
         14    1    4    4    0    0 -0.18491176672E+02 -0.26225531432E+02  0.52311575116E+01  0.32512568685E+02  0.00000000000E+00 0. -1.
         -5    1    5    5    0  502  0.49448798594E+02  0.55443838390E+02  0.11053432317E+03  0.13326338393E+03  0.47000000000E+01 0.  1.
         13    1    6    6    0    0  0.20282346489E+02 -0.88018872436E+02  0.27907080065E+03  0.29332440618E+03  0.00000000000E+00 0. -1.
        -14    1    6    6    0    0  0.27669962783E+01 -0.17247536945E+02  0.15038291317E+01  0.17532692352E+02  0.00000000000E+00 0.  1.
</event>
<event>
12    1  0.8562501E-002  0.1785365E+03  0.7818608E-02  0.1169331E+00
         21   -1    0    0  503  502  0.00000000000E+00  0.00000000000E+00  0.21765966751E+02  0.21765966751E+02  0.00000000000E+00 0. -1.
         21   -1    0    0  501  503 -0.00000000000E+00 -0.00000000000E+00 -0.16648106356E+04  0.16648106356E+04  0.00000000000E+00 0. -1.
          6    2    1    2  501    0 -0.46589629420E+02  0.18280348341E+02 -0.11157361367E+04  0.11298634080E+04  0.17093691599E+03 0.  0.
         24    2    3    3    0    0  0.68935447930E+01 -0.32859886149E+02 -0.84159116994E+03  0.84586811522E+03  0.78037670087E+02 0.  0.
         -6    2    1    2    0  502  0.46589629420E+02 -0.18280348341E+02 -0.52730853222E+03  0.55671319444E+03  0.17137831837E+03 0.  0.
        -24    2    5    5    0    0 -0.18481185867E+02 -0.39478736662E+02 -0.16794711888E+03  0.19086309117E+03  0.79513269016E+02 0.  0.
          5    1    3    3  501    0 -0.53483174213E+02  0.51140234490E+02 -0.27414496674E+03  0.28399529273E+03  0.47000000000E+01 0. -1.
        -11    1    4    4    0    0 -0.30032604653E+02 -0.30165807517E+02 -0.59408726577E+03  0.59561028587E+03  0.00000000000E+00 0.  1.
         12    1    4    4    0    0  0.36926149446E+02 -0.26940786321E+01 -0.24750390417E+03  0.25025782935E+03  0.00000000000E+00 0. -1.
         -5    1    5    5    0  502  0.65070815287E+02  0.21198388321E+02 -0.35936141334E+03  0.36585010327E+03  0.47000000000E+01 0.  1.
         13    1    6    6    0    0 -0.14943436348E+02 -0.19390984719E+02 -0.30050872879E+01  0.24664693954E+02  0.00000000000E+00 0. -1.
        -14    1    6    6    0    0 -0.35377495188E+01 -0.20087751943E+02 -0.16494203159E+03  0.16619839721E+03  0.00000000000E+00 0.  1.
</event>
<event>
12    1  0.8562501E-002  0.3302217E+03  0.7818608E-02  0.1071057E+00
         21   -1    0    0  503  502  0.00000000000E+00  0.00000000000E+00  0.10581582357E+03  0.10581582357E+03  0.00000000000E+00 0.  1.
         21   -1    0    0  501  503 -0.00000000000E+00 -0.00000000000E+00 -0.10386571115E+04  0.10386571115E+04  0.00000000000E+00 0. -1.
          6    2    1    2  501    0 -0.66226852272E+02  0.27349602953E+03 -0.51849745028E+03  0.61463597975E+03  0.17248683289E+03 0.  0.
         24    2    3    3    0    0 -0.17548474572E+02  0.15157726847E+03 -0.17090587591E+03  0.24305051000E+03  0.81124069883E+02 0.  0.
         -6    2    1    2    0  502  0.66226852272E+02 -0.27349602953E+03 -0.41434383770E+03  0.52983695537E+03  0.17280135794E+03 0.  0.
        -24    2    5    5    0    0  0.60948367595E+02 -0.78507482799E+02 -0.10544665622E+03  0.16447692132E+03  0.77817298658E+02 0.  0.
          5    1    3    3  501    0 -0.48678377700E+02  0.12191876106E+03 -0.34759157437E+03  0.37158546974E+03  0.47000000000E+01 0. -1.
        -13    1    4    4    0    0  0.20847048420E+02  0.10842791517E+03 -0.13743615173E+03  0.17629494609E+03  0.00000000000E+00 0.  1.
         14    1    4    4    0    0 -0.38395522992E+02  0.43149353297E+02 -0.33469724187E+02  0.66755563910E+02  0.00000000000E+00 0. -1.
         -5    1    5    5    0  502  0.52784846768E+01 -0.19498854673E+03 -0.30889718148E+03  0.36536003405E+03  0.47000000000E+01 0.  1.
         13    1    6    6    0    0  0.67091719786E+02 -0.57966258803E+02 -0.11125482656E+03  0.14226391833E+03  0.00000000000E+00 0. -1.
        -14    1    6    6    0    0 -0.61433521906E+01 -0.20541223996E+02  0.58081703399E+01  0.22213002996E+02  0.00000000000E+00 0.  1.
</event>
<event>
12    1  0.8562501E-002  0.1896705E+03  0.7818608E-02  0.1159212E+00
         21   -1    0    0  501  502  0.00000000000E+00  0.00000000000E+00  0.17745194111E+02  0.17745194111E+02  0.00000000000E+00 0.  1.
         21   -1    0    0  502  503 -0.00000000000E+00 -0.00000000000E+00 -0.27559290605E+04  0.27559290605E+04  0.00000000000E+00 0.  1.
         -6    2    1    2    0  503 -0.41944748235E+02 -0.65492681818E+02 -0.20977603555E+04  0.21063175000E+04  0.17299204632E+03 0.  0.
        -24    2    3    3    0    0 -0.54981889408E+02 -0.96124971020E+02 -0.19009292104E+04  0.19066355181E+04  0.97283696609E+02 0.  0.
          6    2    1    2  501    0  0.41944748235E+02  0.65492681818E+02 -0.64042351081E+03  0.66735675461E+03  0.17080430747E+03 0.  0.
         24    2    5    5    0    0  0.92721143244E+02  0.59765423043E+02 -0.46656596672E+03  0.48608464032E+03  0.80158343645E+02 0.  0.
          5    1    5    5  501    0 -0.50776395008E+02  0.57272587751E+01 -0.17385754409E+03  0.18127211429E+03  0.47000000000E+01 0. -1.
        -13    1    6    6    0    0  0.26262365135E+02  0.32832646969E+02 -0.60128779883E+02  0.73370053154E+02  0.00000000000E+00 0.  1.
         14    1    6    6    0    0  0.66458778109E+02  0.26932776074E+02 -0.40643718684E+03  0.41271458717E+03  0.00000000000E+00 0. -1.
         -5    1    3    3    0  503  0.13037141173E+02  0.30632289201E+02 -0.19683114512E+03  0.19968198187E+03  0.47000000000E+01 0.  1.
         13    1    4    4    0    0 -0.45335842662E+02 -0.27843893993E+02 -0.33586441991E+03  0.34005224544E+03  0.00000000000E+00 0. -1.
        -14    1    4    4    0    0 -0.96460467460E+01 -0.68281077027E+02 -0.15650647905E+04  0.15665832726E+04  0.00000000000E+00 0.  1.
</event>
<event>
12    1  0.8562501E-002  0.1766342E+03  0.7818608E-02  0.1171784E+00
         21   -1    0    0  503  502  0.00000000000E+00  0.00000000000E+00  0.61498301544E+02  0.61498301544E+02  0.00000000000E+00 0. -1.
         21   -1    0    0  501  503 -0.00000000000E+00 -0.00000000000E+00 -0.71248315922E+03  0.71248315922E+03  0.00000000000E+00 0. -1.
          6    2    1    2  501    0 -0.17457319365E+02 -0.32071782329E+02 -0.53528926508E+03  0.56282958626E+03  0.17002702327E+03 0.  0.
         24    2    3    3    0    0  0.47325771954E+02  0.68661899115E+01 -0.22588439059E+03  0.24429154935E+03  0.79798057095E+02 0.  0.
         -6    2    1    2    0  502  0.17457319365E+02  0.32071782329E+02 -0.11569559260E+03  0.21115187451E+03  0.17281865275E+03 0.  0.
        -24    2    5    5    0    0  0.69585466989E+02 -0.22099622143E+01 -0.40709286402E+02  0.11349114596E+03  0.79849690431E+02 0.  0.
          5    1    3    3  501    0 -0.64783091319E+02 -0.38937972241E+02 -0.30940487449E+03  0.31853803691E+03  0.47000000000E+01 0. -1.
        -11    1    4    4    0    0  0.25261749601E+02 -0.25550498895E+02 -0.37756701692E+02  0.52120557454E+02  0.00000000000E+00 0.  1.
         12    1    4    4    0    0  0.22064022354E+02  0.32416688807E+02 -0.18812768890E+03  0.19217099190E+03  0.00000000000E+00 0. -1.
         -5    1    5    5    0  502 -0.52128147624E+02  0.34281744544E+02 -0.74986306200E+02  0.97660728551E+02  0.47000000000E+01 0.  1.
         13    1    6    6    0    0  0.22081630335E+02  0.20266932949E+02  0.17788690990E+02  0.34853758715E+02  0.00000000000E+00 0. -1.
        -14    1    6    6    0    0  0.47503836653E+02 -0.22476895164E+02 -0.58497977392E+02  0.78637387240E+02  0.00000000000E+00 0.  1.
</event>
<event>
12    1  0.8562501E-002  0.2036513E+03  0.7818608E-02  0.1146792E+00
         21   -1    0    0  503  502  0.00000000000E+00  0.00000000000E+00  0.13370041293E+04  0.13370041293E+04  0.00000000000E+00 0.  1.
         21   -1    0    0  501  503 -0.00000000000E+00 -0.00000000000E+00 -0.71928274954E+02  0.71928274954E+02  0.00000000000E+00 0.  1.
          6    2    1    2  501    0 -0.19906137047E+02 -0.10573101959E+03  0.10048354830E+03  0.22666800765E+03  0.17235469074E+03 0.  0.
         24    2    3    3    0    0 -0.71443427657E+02 -0.10272101706E+03  0.88325760092E+02  0.17342278014E+03  0.81352627949E+02 0.  0.
         -6    2    1    2    0  502  0.19906137047E+02  0.10573101959E+03  0.11645923060E+04  0.11822643966E+04  0.17291200471E+03 0.  0.
        -24    2    5    5    0    0 -0.28986930478E+02  0.12324939363E+03  0.77838111730E+03  0.79254834896E+03  0.78899090570E+02 0.  0.
          5    1    3    3  501    0  0.51537290611E+02 -0.30100025283E+01  0.12157788207E+02  0.53245227512E+02  0.47000000000E+01 0. -1.
        -11    1    4    4    0    0 -0.62849983664E+01  0.14122742800E+02  0.88147450825E+01  0.17794740783E+02  0.00000000000E+00 0.  1.
         12    1    4    4    0    0 -0.65158429291E+02 -0.11684375986E+03  0.79511015010E+02  0.15562803936E+03  0.00000000000E+00 0. -1.
         -5    1    5    5    0  502  0.48893067525E+02 -0.17518374036E+02  0.38621118874E+03  0.38971604764E+03  0.47000000000E+01 0.  1.
         13    1    6    6    0    0 -0.12143402752E+02 -0.85628533271E+01  0.50657054909E+02  0.52791305151E+02  0.00000000000E+00 0. -1.
        -14    1    6    6    0    0 -0.16843527726E+02  0.13181224695E+03  0.72772406240E+03  0.73975704381E+03  0.00000000000E+00 0.  1.
</event>
<event>
12    1  0.8562501E-002  0.2075115E+03  0.7818608E-02  0.1143705E+00
         21   -1    0    0  501  502  0.00000000000E+00  0.00000000000E+00  0.24741410270E+04  0.24741410270E+04  0.00000000000E+00 0.  1.
         21   -1    0    0  502  503 -0.00000000000E+00 -0.00000000000E+00 -0.51144772560E+02  0.51144772560E+02  0.00000000000E+00 0.  1.
         -6    2    1    2    0  503  0.96559582413E+02  0.62559759593E+02  0.18423572382E+03  0.27692868058E+03  0.17178246628E+03 0.  0.
        -24    2    3    3    0    0 -0.12387161107E+02  0.31537067370E+02  0.56627507942E+02  0.10623085659E+03  0.83248374498E+02 0.  0.
          6    2    1    2  501    0 -0.96559582413E+02 -0.62559759593E+02  0.22387605307E+04  0.22483571190E+04  0.17269494649E+03 0.  0.
         24    2    5    5    0    0 -0.10001449014E+03  0.66864426016E+01  0.11242749363E+04  0.11317071277E+04  0.81971238387E+02 0.  0.
          5    1    5    5  501    0  0.34549077270E+01 -0.69246202194E+02  0.11144855944E+04  0.11166499913E+04  0.47000000000E+01 0. -1.
        -11    1    6    6    0    0 -0.28995125883E+02 -0.21248331150E+02  0.67813043302E+03  0.67908253776E+03  0.00000000000E+00 0.  1.
         12    1    6    6    0    0 -0.71019364257E+02  0.27934773752E+02  0.44614450324E+03  0.45262458998E+03  0.00000000000E+00 0. -1.
         -5    1    3    3    0  503  0.10894674352E+03  0.31022692222E+02  0.12760821588E+03  0.17069782400E+03  0.47000000000E+01 0.  1.
         11    1    4    4    0    0  0.81857679060E+01  0.31218753967E+02  0.73078091295E+02  0.79887576148E+02  0.00000000000E+00 0. -1.
        -12    1    4    4    0    0 -0.20572929013E+02  0.31831340303E+00 -0.16450583353E+02  0.26343280438E+02  0.00000000000E+00 0.  1.
</event>
<event>
12    1  0.8562501E-002  0.2798710E+03  0.7818608E-02  0.1097443E+00
         21   -1    0    0  501  502  0.00000000000E+00  0.00000000000E+00  0.24394683894E+03  0.24394683894E+03  0.00000000000E+00 0.  1.
         21   -1    0    0  502  503 -0.00000000000E+00 -0.00000000000E+00 -0.35729927033E+03  0.35729927033E+03  0.00000000000E+00 0.  1.
         -6    2    1    2    0  503 -0.22003732308E+03  0.23028485308E+02 -0.16790191673E+03  0.31610854377E+03  0.15095304937E+03 0.  0.
        -24    2    3    3    0    0 -0.19835844140E+03  0.52416430707E+01 -0.18536572907E+03  0.28274058894E+03  0.78792391926E+02 0.  0.
          6    2    1    2  501    0  0.22003732308E+03 -0.23028485308E+02  0.54549485344E+02  0.28513756550E+03  0.17140901441E+03 0.  0.
         24    2    5    5    0    0  0.17875040598E+03 -0.67322046427E+02  0.75804033341E+02  0.22079182056E+03  0.80739153978E+02 0.  0.
          5    1    5    5  501    0  0.41286917108E+02  0.44293561119E+02 -0.21254547997E+02  0.64345744936E+02  0.47000000000E+01 0. -1.
        -13    1    6    6    0    0  0.14443561302E+03 -0.16667791095E+02  0.44415204336E+02  0.15202687902E+03  0.00000000000E+00 0.  1.
         14    1    6    6    0    0  0.34314792953E+02 -0.50654255332E+02  0.31388829005E+02  0.68764941540E+02  0.00000000000E+00 0. -1.
         -5    1    3    3    0  503 -0.21678881683E+02  0.17786842238E+02  0.17463812336E+02  0.33367954824E+02  0.47000000000E+01 0.  1.
         11    1    4    4    0    0  0.62345260508E+01  0.50060241614E+01 -0.12786014624E+02  0.15080177815E+02  0.00000000000E+00 0. -1.
        -12    1    4    4    0    0 -0.20459296745E+03  0.23561890926E+00 -0.17257971444E+03  0.26766041113E+03  0.00000000000E+00 0.  1.
</event>
<event>
12    1  0.8562501E-002  0.2395817E+03  0.7818608E-02  0.1120981E+00
         21   -1    0    0  503  502  0.00000000000E+00  0.00000000000E+00  0.94820488300E+02  0.94820488300E+02  0.00000000000E+00 0. -1.
         21   -1    0    0  501  503 -0.00000000000E+00 -0.00000000000E+00 -0.62872255141E+03  0.62872255141E+03  0.00000000000E+00 0. -1.
          6    2    1    2  501    0 -0.12054267353E+03 -0.10372165224E+03 -0.18217838560E+03  0.30097896747E+03  0.17919446810E+03 0.  0.
         24    2    3    3    0    0 -0.11800243458E+03 -0.59717856541E+02 -0.50234415977E+02  0.16178813455E+03  0.78492719257E+02 0.  0.
         -6    2    1    2    0  502  0.12054267353E+03  0.10372165224E+03 -0.35172367751E+03  0.42256407224E+03  0.17193642006E+03 0.  0.
        -24    2    5    5    0    0  0.56253892175E+02  0.13095724701E+03 -0.22479193073E+03  0.27762069236E+03  0.78914737377E+02 0.  0.
          5    1    3    3  501    0 -0.25402389454E+01 -0.44003795695E+02 -0.13194396962E+03  0.13919083292E+03  0.47000000000E+01 0. -1.
        -11    1    4    4    0    0 -0.43137656565E+02 -0.37146979143E+01 -0.52770859817E+02  0.68259944626E+02  0.00000000000E+00 0.  1.
         12    1    4    4    0    0 -0.74864778015E+02 -0.56003158626E+02  0.25364438394E+01  0.93528189925E+02  0.00000000000E+00 0. -1.
         -5    1    5    5    0  502  0.64288781350E+02 -0.27235594774E+02 -0.12693174678E+03  0.14494337988E+03  0.47000000000E+01 0.  1.
         13    1    6    6    0    0 -0.14434816705E+02  0.37481674699E+02 -0.92739168370E+02  0.10106331294E+03  0.00000000000E+00 0. -1.
        -14    1    6    6    0    0  0.70688708880E+02  0.93475572310E+02 -0.13205276236E+03  0.17655737942E+03  0.00000000000E+00 0.  1.
</event>
<event>
12    1  0.8562501E-002  0.2416781E+03  0.7818608E-02  0.1119086E+00
         21   -1    0    0  501  502  0.00000000000E+00  0.00000000000E+00  0.24923703576E+02  0.24923703576E+02  0.00000000000E+00 0.  1.
         21   -1    0    0  502  503 -0.00000000000E+00 -0.00000000000E+00 -0.23222513791E+04  0.23222513791E+04  0.00000000000E+00 0. -1.
         -6    2    1    2    0  503  0.77054215452E+02  0.14633162227E+03 -0.11922809293E+04  0.12165287191E+04  0.17623284101E+03 0.  0.
        -24    2    3    3    0    0 -0.18436048452E+02  0.10807715719E+03 -0.75557270082E+03  0.76784401754E+03  0.81693140851E+02 0.  0.
          6    2    1    2  501    0 -0.77054215452E+02 -0.14633162227E+03 -0.11050467462E+04  0.11306463636E+04  0.17286582168E+03 0.  0.
         24    2    5    5    0    0 -0.69016906045E+02 -0.43512773745E+02 -0.38406708261E+03  0.40231259440E+03  0.87699514665E+02 0.  0.
          5    1    5    5  501    0 -0.80373094071E+01 -0.10281884853E+03 -0.72097966361E+03  0.72833376916E+03  0.47000000000E+01 0. -1.
        -11    1    6    6    0    0 -0.32614635869E+02 -0.38551664170E+02 -0.71161932082E+02  0.87258041811E+02  0.00000000000E+00 0.  1.
         12    1    6    6    0    0 -0.36402270176E+02 -0.49611095752E+01 -0.31290515053E+03  0.31505455259E+03  0.00000000000E+00 0. -1.
         -5    1    3    3    0  503  0.95490263904E+02  0.38254465087E+02 -0.43670822845E+03  0.44868470154E+03  0.47000000000E+01 0.  1.
         13    1    4    4    0    0 -0.25894724433E+02  0.24552101663E+01 -0.82786550962E+02  0.86776597252E+02  0.00000000000E+00 0. -1.
        -14    1    4    4    0    0  0.74586759809E+01  0.10562194702E+03 -0.67278614985E+03  0.68106742029E+03  0.00000000000E+00 0.  1.
</event>
<event>
12    1  0.8562501E-002  0.1772370E+03  0.7818608E-02  0.1171494E+00
         21   -1    0    0  501  502  0.00000000000E+00  0.00000000000E+00  0.77710396059E+03  0.77710396059E+03  0.00000000000E+00 0. -1.
         21   -1    0    0  502  503 -0.00000000000E+00 -0.00000000000E+00 -0.72154649166E+02  0.72154649166E+02  0.00000000000E+00 0. -1.
         -6    2    1    2    0  503  0.13696490614E+02  0.28696827296E+02  0.64753453036E+02  0.18498179012E+03  0.17033540808E+03 0.  0.
        -24    2    3    3    0    0  0.28825956993E+02 -0.18459736345E+02 -0.12953197577E+02  0.92715567719E+02  0.85186228392E+02 0.  0.
          6    2    1    2  501    0 -0.13696490614E+02 -0.28696827296E+02  0.64019585839E+03  0.66427681963E+03  0.17436127509E+03 0.  0.
         24    2    5    5    0    0  0.32468559843E+01  0.51558444641E+02  0.35503067267E+03  0.36751216741E+03  0.79684373403E+02 0.  0.
          5    1    5    5  501    0 -0.16943346598E+02 -0.80255271937E+02  0.28516518571E+03  0.29676465223E+03  0.47000000000E+01 0. -1.
        -13    1    6    6    0    0  0.39186095312E+02  0.14939692778E+02  0.12567611472E+03  0.13248860441E+03  0.00000000000E+00 0.  1.
         14    1    6    6    0    0 -0.35939239328E+02  0.36618751863E+02  0.22935455795E+03  0.23502356300E+03  0.00000000000E+00 0. -1.
         -5    1    3    3    0  503 -0.15129466379E+02  0.47156563641E+02  0.77706650612E+02  0.92266222404E+02  0.47000000000E+01 0.  1.
         13    1    4    4    0    0 -0.25602635362E+02  0.11373557777E+02  0.41810747004E+01  0.28325503343E+02  0.00000000000E+00 0. -1.
        -14    1    4    4    0    0  0.54428592355E+02 -0.29833294122E+02 -0.17134272277E+02  0.64390064376E+02  0.00000000000E+00 0.  1.
</event>
<event>
12    1  0.8562501E-002  0.2097555E+03  0.7818608E-02  0.1141863E+00
         21   -1    0    0  503  502  0.00000000000E+00  0.00000000000E+00  0.19461162347E+03  0.19461162347E+03  0.00000000000E+00 0. -1.
         21   -1    0    0  501  503 -0.00000000000E+00 -0.00000000000E+00 -0.29663285238E+03  0.29663285238E+03  0.00000000000E+00 0. -1.
          6    2    1    2  501    0  0.61732174092E+02  0.10165229358E+03  0.69304436541E+02  0.22041272374E+03  0.17214707013E+03 0.  0.
         24    2    3    3    0    0  0.55178740506E+02 -0.98646743374E+01  0.34801218819E+02  0.10340185391E+03  0.79616665077E+02 0.  0.
         -6    2    1    2    0  502 -0.61732174092E+02 -0.10165229358E+03 -0.17132566545E+03  0.27083175211E+03  0.17278108751E+03 0.  0.
        -24    2    5    5    0    0 -0.10244551892E+03 -0.44972819241E+02 -0.95609460553E+02  0.16775327258E+03  0.80513059172E+02 0.  0.
          5    1    3    3  501    0  0.65534335861E+01  0.11151696792E+03  0.34503217722E+02  0.11701086983E+03  0.47000000000E+01 0. -1.
        -13    1    4    4    0    0 -0.17305751620E+02  0.48106821058E+01  0.21909902255E+02  0.28331528697E+02  0.00000000000E+00 0.  1.
         14    1    4    4    0    0  0.72484492126E+02 -0.14675356443E+02  0.12891316564E+02  0.75070325217E+02  0.00000000000E+00 0. -1.
         -5    1    5    5    0  502  0.40713344828E+02 -0.56679474337E+02 -0.75716204894E+02  0.10307847953E+03  0.47000000000E+01 0.  1.
         13    1    6    6    0    0 -0.50143825967E+02 -0.38564727172E+02 -0.96107904768E+02  0.11505811933E+03  0.00000000000E+00 0. -1.
        -14    1    6    6    0    0 -0.52301692954E+02 -0.64080920688E+01  0.49844421496E+00  0.52695153254E+02  0.00000000000E+00 0.  1.
</event>
<event>
12    1  0.8562501E-002  0.1752904E+03  0.7818608E-02  0.1172549E+00
         21   -1    0    0  501  502  0.00000000000E+00  0.00000000000E+00  0.80330804094E+02  0.80330804094E+02  0.00000000000E+00 0. -1.
         21   -1    0    0  502  503 -0.00000000000E+00 -0.00000000000E+00 -0.39633406601E+03  0.39633406601E+03  0.00000000000E+00 0. -1.
         -6    2    1    2    0  503 -0.32084925966E+01 -0.30938668727E+02 -0.20420657218E+03  0.26912270704E+03  0.17250858436E+03 0.  0.
        -24    2    3    3    0    0 -0.37603961725E+02  0.12376203731E+02 -0.58001578987E+02  0.11273467519E+03  0.88191243716E+02 0.  0.
          6    2    1    2  501    0  0.32084925966E+01  0.30938668727E+02 -0.11179668973E+03  0.20754216306E+03  0.17206903837E+03 0.  0.
         24    2    5    5    0    0  0.36694546927E+02 -0.39743347681E+02 -0.58819088227E+02  0.11295897460E+03  0.79837468292E+02 0.  0.
          5    1    5    5  501    0 -0.33486054331E+02  0.70682016408E+02 -0.52977601502E+02  0.94583188459E+02  0.47000000000E+01 0. -1.
        -13    1    6    6    0    0 -0.17768526815E+02 -0.34284396489E+02 -0.10677635360E+02  0.40064351795E+02  0.00000000000E+00 0.  1.
         14    1    6    6    0    0  0.54463073742E+02 -0.54589511918E+01 -0.48141452867E+02  0.72894622804E+02  0.00000000000E+00 0. -1.
         -5    1    3    3    0  503  0.34395469128E+02 -0.43314872458E+02 -0.14620499320E+03  0.15638803186E+03  0.47000000000E+01 0.  1.
         11    1    4    4    0    0 -0.19208770058E+02 -0.31454060663E+02  0.11217668304E+01  0.36872661148E+02  0.00000000000E+00 0. -1.
        -12    1    4    4    0    0 -0.18395191667E+02  0.43830264394E+02 -0.59123345817E+02  0.75862014038E+02  0.00000000000E+00 0.  1.
</event>
<event>
12    1  0.8562501E-002  0.1992611E+03  0.7818608E-02  0.1150426E+00
         21   -1    0    0  501  502  0.00000000000E+00  0.00000000000E+00  0.59819023639E+03  0.59819023639E+03  0.00000000000E+00 0. -1.
         21   -1    0    0  502  503 -0.00000000000E+00 -0.00000000000E+00 -0.67481861318E+02  0.67481861318E+02  0.00000000000E+00 0.  1.
         -6    2    1    2    0  503 -0.82185709938E+02 -0.56153082857E+02  0.30962898792E+03  0.36804638067E+03  0.17227991332E+03 0.  0.
        -24    2    3    3    0    0 -0.14251206775E+02 -0.23296814416E+02  0.87474474662E+02  0.13337778700E+03  0.96912392866E+02 0.  0.
          6    2    1    2  501    0  0.82185709938E+02  0.56153082857E+02  0.22107938715E+03  0.29762571703E+03  0.17261898037E+03 0.  0.
         24    2    5    5    0    0  0.10407750133E+03  0.45515639094E+02  0.92751077622E+02  0.16692510201E+03  0.79733478517E+02 0.  0.
          5    1    5    5  501    0 -0.21891791394E+02  0.10637443764E+02  0.12832830953E+03  0.13070061502E+03  0.47000000000E+01 0. -1.
        -13    1    6    6    0    0  0.36924399980E+02 -0.28513373556E+01 -0.66033982964E+01  0.37618430426E+02  0.00000000000E+00 0.  1.
         14    1    6    6    0    0  0.67153101352E+02  0.48366976449E+02  0.99354475919E+02  0.12930667159E+03  0.00000000000E+00 0. -1.
         -5    1    3    3    0  503 -0.67934503163E+02 -0.32856268441E+02  0.22215451326E+03  0.23466859367E+03  0.47000000000E+01 0.  1.
         13    1    4    4    0    0 -0.44249548556E+02 -0.28074339583E+02  0.88647787739E+02  0.10297874228E+03  0.00000000000E+00 0. -1.
        -14    1    4    4    0    0  0.29998341781E+02  0.47775251669E+01 -0.11733130774E+01  0.30399044720E+02  0.00000000000E+00 0.  1.
</event>
<event>
12    1  0.8562501E-002  0.2157949E+03  0.7818608E-02  0.1138089E+00
         21   -1    0    0  503  502  0.00000000000E+00  0.00000000000E+00  0.14959279098E+04  0.14959279098E+04  0.00000000000E+00 0. -1.
         21   -1    0    0  501  503 -0.00000000000E+00 -0.00000000000E+00 -0.30907652203E+02  0.30907652203E+02  0.00000000000E+00 0.  1.
          6    2    1    2  501    0  0.10860059851E+03  0.71330957622E+02  0.62248252667E+03  0.65710153584E+03  0.16557698171E+03 0.  0.
         24    2    3    3    0    0  0.29519923540E+02  0.89850601567E+02  0.29572820137E+03  0.32037136274E+03  0.78981545271E+02 0.  0.
         -6    2    1    2    0  502 -0.10860059851E+03 -0.71330957622E+02  0.84253773088E+03  0.86973402612E+03  0.17229408790E+03 0.  0.
        -24    2    5    5    0    0 -0.71194044853E+02 -0.77379715563E+02  0.33132722098E+03  0.35709954312E+03  0.81768844508E+02 0.  0.
          5    1    3    3  501    0  0.79080674973E+02 -0.18519643945E+02  0.32675432530E+03  0.33673017309E+03  0.47000000000E+01 0. -1.
        -13    1    4    4    0    0  0.53786773615E+02  0.65730536572E+02  0.24392926153E+03  0.25829247973E+03  0.00000000000E+00 0.  1.
         14    1    4    4    0    0 -0.24266850075E+02  0.24120064995E+02  0.51798939841E+02  0.62078883016E+02  0.00000000000E+00 0. -1.
         -5    1    5    5    0  502 -0.37406553660E+02  0.60487579414E+01  0.51121050990E+03  0.51263448300E+03  0.47000000000E+01 0.  1.
         13    1    6    6    0    0 -0.32018895704E+02 -0.40541409074E+01  0.19325206900E+03  0.19592857860E+03  0.00000000000E+00 0. -1.
        -14    1    6    6    0    0 -0.39175149150E+02 -0.73325574656E+02  0.13807515198E+03  0.16117096451E+03  0.00000000000E+00 0.  1.
</event>
<event>
12    1  0.8562501E-002  0.1936211E+03  0.7818608E-02  0.1159577E+00
         21   -1    0    0  501  502  0.00000000000E+00  0.00000000000E+00  0.60095466499E+03  0.60095466499E+03  0.00000000000E+00 0. -1.
         21   -1    0    0  502  503 -0.00000000000E+00 -0.00000000000E+00 -0.81101664403E+02  0.81101664403E+02  0.00000000000E+00 0.  1.
         -6    2    1    2    0  503 -0.17375905143E+02  0.88172588282E+02  0.81473589285E+02  0.21006442605E+03  0.17150157415E+03 0.  0.
        -24    2    3    3    0    0 -0.72584920629E+02  0.60506962486E+02  0.80892429038E+02  0.14813018682E+03  0.80431983442E+02 0.  0.
          6    2    1    2  501    0  0.17375905143E+02 -0.88172588282E+02  0.43837941130E+03  0.47199190334E+03  0.15007838340E+03 0.  0.
         24    2    5    5    0    0  0.51697728891E+02 -0.33129169270E+02  0.17142826045E+03  0.19723242216E+03  0.75781150946E+02 0.  0.
          5    1    5    5  501    0 -0.34321823748E+02 -0.55043419012E+02  0.26695115085E+03  0.27475948119E+03  0.47000000000E+01 0. -1.
        -11    1    6    6    0    0 -0.16904770805E+02  0.26497082589E+01  0.15169236811E+02  0.22866962528E+02  0.00000000000E+00 0.  1.
         12    1    6    6    0    0  0.68602499696E+02 -0.35778877529E+02  0.15625902364E+03  0.17436545963E+03  0.00000000000E+00 0. -1.
         -5    1    3    3    0  503  0.55209015486E+02  0.27665625796E+02  0.58116024666E+00  0.61934239228E+02  0.47000000000E+01 0.  1.
         11    1    4    4    0    0  0.10592262760E+02 -0.10096637046E+02  0.61046040467E+01  0.15855733997E+02  0.00000000000E+00 0. -1.
        -12    1    4    4    0    0 -0.83177183389E+02  0.70603599532E+02  0.74787824991E+02  0.13227445283E+03  0.00000000000E+00 0.  1.
</event>
<event>
12    1  0.8562501E-002  0.2324548E+03  0.7818608E-02  0.1125139E+00
         21   -1    0    0  501  502  0.00000000000E+00  0.00000000000E+00  0.22908953801E+03  0.22908953801E+03  0.00000000000E+00 0.  1.
         21   -1    0    0  502  503 -0.00000000000E+00 -0.00000000000E+00 -0.62146866041E+03  0.62146866041E+03  0.00000000000E+00 0. -1.
         -6    2    1    2    0  503 -0.12247759750E+03  0.95390014218E+02 -0.53152582718E+03  0.57963935220E+03  0.17135360212E+03 0.  0.
        -24    2    3    3    0    0 -0.85983104000E+02  0.71113374061E+02 -0.51434034522E+03  0.53232514606E+03  0.79836484527E+02 0.  0.
          6    2    1    2  501    0  0.12247759750E+03 -0.95390014218E+02  0.13914670478E+03  0.27091884622E+03  0.17301791551E+03 0.  0.
         24    2    5    5    0    0 -0.60677928256E+01 -0.42984709015E+02  0.77039338647E+02  0.11876876139E+03  0.79287172131E+02 0.  0.
          5    1    5    5  501    0  0.12854539032E+03 -0.52405305203E+02  0.62107366128E+02  0.15215008483E+03  0.47000000000E+01 0. -1.
        -13    1    6    6    0    0  0.23165199773E+02 -0.49138326749E+02  0.69024966519E+02  0.87838759321E+02  0.00000000000E+00 0.  1.
         14    1    6    6    0    0 -0.29232992599E+02  0.61536177342E+01  0.80143721285E+01  0.30930002071E+02  0.00000000000E+00 0. -1.
         -5    1    3    3    0  503 -0.36494493496E+02  0.24276640157E+02 -0.17185481964E+02  0.47314206145E+02  0.47000000000E+01 0.  1.
         13    1    4    4    0    0 -0.88601109380E+02  0.27006581290E+02 -0.36649118872E+03  0.37801495133E+03  0.00000000000E+00 0. -1.
        -14    1    4    4    0    0  0.26180053805E+01  0.44106792771E+02 -0.14784915649E+03  0.15431019473E+03  0.00000000000E+00 0.  1.
</event>
<event>
12    1  0.8562501E-002  0.1978847E+03  0.7818608E-02  0.1152417E+00
         21   -1    0    0  501  502  0.00000000000E+00  0.00000000000E+00  0.26317597708E+04  0.26317597708E+04  0.00000000000E+00 0.  1.
         21   -1    0    0  502  503 -0.00000000000E+00 -0.00000000000E+00 -0.13842508052E+03  0.13842508052E+03  0.00000000000E+00 0.  1.
         -6    2    1    2    0  503 -0.56903808485E+01  0.89741981378E+02 -0.62108599866E+02  0.20740255225E+03  0.17627347177E+03 0.  0.
        -24    2    3    3    0    0  0.15145056679E+02 -0.19261698869E+02 -0.88840199335E+01  0.84232492283E+02  0.80098696374E+02 0.  0.
          6    2    1    2  501    0  0.56903808485E+01 -0.89741981378E+02  0.25554432901E+04  0.25627822990E+04  0.17168779699E+03 0.  0.
         24    2    5    5    0    0  0.41766978209E+02  0.41034071816E+01  0.14362955162E+04  0.14391176214E+04  0.79708218310E+02 0.  0.
          5    1    5    5  501    0 -0.36076597361E+02 -0.93845388560E+02  0.11191477739E+04  0.11236646776E+04  0.47000000000E+01 0. -1.
        -11    1    6    6    0    0  0.64976532290E+02  0.10581131004E+01  0.92039478482E+03  0.92268609466E+03  0.00000000000E+00 0.  1.
         12    1    6    6    0    0 -0.23209554081E+02  0.30452940812E+01  0.51590073136E+03  0.51643152676E+03  0.00000000000E+00 0. -1.
         -5    1    3    3    0  503 -0.20835437527E+02  0.10900368025E+03 -0.53224579933E+02  0.12317005997E+03  0.47000000000E+01 0.  1.
         13    1    4    4    0    0 -0.45889067592E+01  0.11683554170E+02  0.28930002313E+02  0.31535829418E+02  0.00000000000E+00 0. -1.
        -14    1    4    4    0    0  0.19733963438E+02 -0.30945253039E+02 -0.37814022246E+02  0.52696662864E+02  0.00000000000E+00 0.  1.
</event>
<event>
12    1  0.8562501E-002  0.2112690E+03  0.7818608E-02  0.1140577E+00
         21   -1    0    0  503  502  0.00000000000E+00  0.00000000000E+00  0.19353801024E+03  0.19353801024E+03  0.00000000000E+00 0.  1.
         21   -1    0    0  501  503 -0.00000000000E+00 -0.00000000000E+00 -0.36861022192E+03  0.36861022192E+03  0.00000000000E+00 0. -1.
          6    2    1    2  501    0 -0.46135912776E+02 -0.11368654224E+03  0.84469161420E+02  0.22752935771E+03  0.17199249128E+03 0.  0.
         24    2    3    3    0    0 -0.67121389269E+02 -0.86423749480E+02  0.11740775368E+03  0.17966819441E+03  0.80757254084E+02 0.  0.
         -6    2    1    2    0  502  0.46135912776E+02  0.11368654224E+03 -0.25954137310E+03  0.33461887444E+03  0.17191542818E+03 0.  0.
        -24    2    5    5    0    0  0.59529493546E+02  0.13659692414E+03 -0.25695540283E+03  0.30754396268E+03  0.79716558207E+02 0.  0.
          5    1    3    3  501    0  0.20985476493E+02 -0.27262792761E+02 -0.32938592259E+02  0.47861163304E+02  0.47000000000E+01 0. -1.
        -11    1    4    4    0    0 -0.11454443539E+01 -0.53550240391E+02  0.81874382021E+02  0.97838411271E+02  0.00000000000E+00 0.  1.
         12    1    4    4    0    0 -0.65975944915E+02 -0.32873509089E+02  0.35533371658E+02  0.81829783140E+02  0.00000000000E+00 0. -1.
         -5    1    5    5    0  502 -0.13393580770E+02 -0.22910381897E+02 -0.25859702677E+01  0.27074911758E+02  0.47000000000E+01 0.  1.
         11    1    6    6    0    0  0.54023577199E+02  0.12877119461E+03 -0.16971838156E+03  0.21978374939E+03  0.00000000000E+00 0. -1.
        -12    1    6    6    0    0  0.55059163462E+01  0.78257295262E+01 -0.87237021271E+02  0.87760213295E+02  0.00000000000E+00 0.  1.
</event>
<event>
12    1  0.8562501E-002  0.2443062E+03  0.7818608E-02  0.1117308E+00
         21   -1    0    0  503  502  0.00000000000E+00  0.00000000000E+00  0.10461217534E+04  0.10461217534E+04  0.00000000000E+00 0.  1.
         21   -1    0    0  501  503 -0.00000000000E+00 -0.00000000000E+00 -0.87079939630E+02  0.87079939630E+02  0.00000000000E+00 0. -1.
          6    2    1    2  501    0 -0.16995300936E+03 -0.33836977963E+02  0.14542673515E+03  0.28431402038E+03  0.17221080229E+03 0.  0.
         24    2    3    3    0    0 -0.15294923903E+03 -0.51076802498E+02  0.50855442086E+02  0.18657887202E+03  0.78886564252E+02 0.  0.
         -6    2    1    2    0  502  0.16995300936E+03  0.33836977963E+02  0.81361507860E+03  0.84888767262E+03  0.16915028270E+03 0.  0.
        -24    2    5    5    0    0  0.57389736781E+02  0.37709391328E+02  0.17856602324E+03  0.20391102294E+03  0.70557072924E+02 0.  0.
          5    1    3    3  501    0 -0.17003770327E+02  0.17239824535E+02  0.94571293059E+02  0.97735148367E+02  0.47000000000E+01 0. -1.
        -13    1    4    4    0    0 -0.18608418087E+02 -0.18948498691E+01  0.38724106108E+02  0.43004884300E+02  0.00000000000E+00 0.  1.
         14    1    4    4    0    0 -0.13434082094E+03 -0.49181952629E+02  0.12131335978E+02  0.14357398772E+03  0.00000000000E+00 0. -1.
         -5    1    5    5    0  502  0.11256327258E+03 -0.38724133654E+01  0.63504905536E+03  0.64497664968E+03  0.47000000000E+01 0.  1.
         13    1    6    6    0    0 -0.14311390101E+02  0.13388988938E+02  0.19014249765E+02  0.27306090997E+02  0.00000000000E+00 0. -1.
        -14    1    6    6    0    0  0.71701126882E+02  0.24320402390E+02  0.15955177347E+03  0.17660493194E+03  0.00000000000E+00 0.  1.
</event>
<event>
12    1  0.8562501E-002  0.1831773E+03  0.7818608E-02  0.1164785E+00
         21   -1    0    0  503  502  0.00000000000E+00  0.00000000000E+00  0.40462475727E+03  0.40462475727E+03  0.00000000000E+00 0. -1.
         21   -1    0    0  501  503 -0.00000000000E+00 -0.00000000000E+00 -0.85441479505E+02  0.85441479505E+02  0.00000000000E+00 0. -1.
          6    2    1    2  501    0 -0.62718969055E+02  0.81630939709E+01  0.11716480129E+03  0.21736606499E+03  0.17181417394E+03 0.  0.
         24    2    3    3    0    0 -0.58806161031E+01  0.39431439099E+02  0.76937341644E+01  0.90030632725E+02  0.80354845830E+02 0.  0.
         -6    2    1    2    0  502  0.62718969055E+02 -0.81630939709E+01  0.20201847648E+03  0.27270017179E+03  0.17191164495E+03 0.  0.
        -24    2    5    5    0    0  0.28166139139E+02 -0.20300849844E+02  0.21622251414E+03  0.23313923324E+03  0.79976687590E+02 0.  0.
          5    1    3    3  501    0 -0.56838352952E+02 -0.31268345128E+02  0.10947106712E+03  0.12733543226E+03  0.47000000000E+01 0. -1.
        -13    1    4    4    0    0 -0.38665907903E+02  0.41334554726E+02  0.81684272670E+01  0.57186720944E+02  0.00000000000E+00 0.  1.
         14    1    4    4    0    0  0.32785291800E+02 -0.19031156271E+01 -0.47469310256E+00  0.32843911781E+02  0.00000000000E+00 0. -1.
         -5    1    5    5    0  502  0.34552829916E+02  0.12137755874E+02 -0.14204037658E+02  0.39560938546E+02  0.47000000000E+01 0.  1.
         11    1    6    6    0    0  0.40503834341E+01 -0.15846234333E+02  0.85293928413E+00  0.16377919707E+02  0.00000000000E+00 0. -1.
        -12    1    6    6    0    0  0.24115755705E+02 -0.44546155117E+01  0.21536957486E+03  0.21676131354E+03  0.00000000000E+00 0.  1.
</event>
<event>
12    1  0.8562501E-002  0.2904654E+03  0.7818608E-02  0.1091146E+00
         21   -1    0    0  501  502  0.00000000000E+00  0.00000000000E+00  0.38764082210E+03  0.38764082210E+03  0.00000000000E+00 0.  1.
         21   -1    0    0  502  503 -0.00000000000E+00 -0.00000000000E+00 -0.25224834463E+03  0.25224834463E+03  0.00000000000E+00 0. -1.
         -6    2    1    2    0  503 -0.20043055988E+03 -0.99236647200E+02 -0.59634320485E+02  0.29652388922E+03  0.18533710695E+03 0.  0.
        -24    2    3    3    0    0 -0.18015334093E+03 -0.13368722817E+03 -0.18738525572E+02  0.23914301976E+03  0.80689220691E+02 0.  0.
          6    2    1    2  501    0  0.20043055988E+03  0.99236647200E+02  0.19502679795E+03  0.34336527751E+03  0.17275398809E+03 0.  0.
         24    2    5    5    0    0  0.98692092082E+02  0.96767041736E+00  0.14860758285E+03  0.19442119015E+03  0.77293725975E+02 0.  0.
          5    1    5    5  501    0  0.10173846780E+03  0.98268976782E+02  0.46419215102E+02  0.14894408736E+03  0.47000000000E+01 0. -1.
        -13    1    6    6    0    0 -0.12903120909E+02  0.24121595689E+01  0.22249483507E+02  0.25833090394E+02  0.00000000000E+00 0.  1.
         14    1    6    6    0    0  0.11159521299E+03 -0.14444891516E+01  0.12635809934E+03  0.16858809976E+03  0.00000000000E+00 0. -1.
         -5    1    3    3    0  503 -0.20277218954E+02  0.34450580973E+02 -0.40895794912E+02  0.57380869455E+02  0.47000000000E+01 0.  1.
         11    1    4    4    0    0 -0.19413571625E+02 -0.27971943297E+01 -0.24977626167E+02  0.31758351159E+02  0.00000000000E+00 0. -1.
        -12    1    4    4    0    0 -0.16073976930E+03 -0.13089003384E+03  0.62391005952E+01  0.20738466860E+03  0.00000000000E+00 0.  1.
</event>
<event>
12    1  0.8562501E-002  0.2357926E+03  0.7818608E-02  0.1122789E+00
         21   -1    0    0  503  502  0.00000000000E+00  0.00000000000E+00  0.29815019982E+03  0.29815019982E+03  0.00000000000E+00 0. -1.
         21   -1    0    0  501  503 -0.00000000000E+00 -0.00000000000E+00 -0.42651647244E+03  0.42651647244E+03  0.00000000000E+00 0. -1.
          6    2    1    2  501    0 -0.15178765409E+03  0.43758949281E+02 -0.33648133901E+03  0.41087450534E+03  0.17505379189E+03 0.  0.
         24    2    3    3    0    0 -0.47393243092E+02  0.54005374471E+02 -0.78439642899E+02  0.13228737496E+03  0.78641414240E+02 0.  0.
         -6    2    1    2    0  502  0.15178765409E+03 -0.43758949281E+02  0.20811506639E+03  0.31379216692E+03  0.17377947401E+03 0.  0.
        -24    2    5    5    0    0  0.67989106004E+01 -0.21616027369E+02  0.10830838021E+03  0.13632242489E+03  0.79621733712E+02 0.  0.
          5    1    3    3  501    0 -0.10439441100E+03 -0.10246425190E+02 -0.25804169611E+03  0.27858713037E+03  0.47000000000E+01 0. -1.
        -13    1    4    4    0    0  0.21260819955E+02  0.11338884904E+02 -0.28296505718E+02  0.37165642896E+02  0.00000000000E+00 0.  1.
         14    1    4    4    0    0 -0.68654063047E+02  0.42666489567E+02 -0.50143137181E+02  0.95121732066E+02  0.00000000000E+00 0. -1.
         -5    1    5    5    0  502  0.14498874349E+03 -0.22142921912E+02  0.99806686173E+02  0.17746974203E+03  0.47000000000E+01 0.  1.
         13    1    6    6    0    0 -0.94602525919E+01  0.25253986577E+02  0.15547283650E+02  0.31128415411E+02  0.00000000000E+00 0. -1.
        -14    1    6    6    0    0  0.16259163192E+02 -0.46870013945E+02  0.92761096565E+02  0.10519400948E+03  0.00000000000E+00 0.  1.
</event>
<event>
12    1  0.8562501E-002  0.4624115E+03  0.7818608E-02  0.1024089E+00
         21   -1    0    0  503  502  0.00000000000E+00  0.00000000000E+00  0.22961472706E+03  0.22961472706E+03  0.00000000000E+00 0.  1.
         21   -1    0    0  501  503 -0.00000000000E+00 -0.00000000000E+00 -0.10668429445E+04  0.10668429445E+04  0.00000000000E+00 0. -1.
          6    2    1    2  501    0  0.37735539067E+03 -0.20514221305E+03 -0.18740156480E+03  0.49894258272E+03  0.17130071778E+03 0.  0.
         24    2    3    3    0    0  0.27446829131E+03 -0.74209563345E+02 -0.12864878918E+03  0.32229861136E+03  0.80535592735E+02 0.  0.
         -6    2    1    2    0  502 -0.37735539067E+03  0.20514221305E+03 -0.64982665261E+03  0.79751508882E+03  0.17110002925E+03 0.  0.
        -24    2    5    5    0    0 -0.37716521948E+03  0.22226578735E+03 -0.63142044475E+03  0.77193909520E+03  0.74448006229E+02 0.  0.
          5    1    3    3  501    0  0.10288709936E+03 -0.13093264971E+03 -0.58752775626E+02  0.17664397136E+03  0.47000000000E+01 0. -1.
        -13    1    4    4    0    0  0.14178453627E+03 -0.79759884361E+02 -0.68519473732E+02  0.17652028824E+03  0.00000000000E+00 0.  1.
         14    1    4    4    0    0  0.13268375504E+03  0.55503210154E+01 -0.60129315447E+02  0.14577832312E+03  0.00000000000E+00 0. -1.
         -5    1    5    5    0  502 -0.19017119003E+00 -0.17123574302E+02 -0.18406207857E+02  0.25575993620E+02  0.47000000000E+01 0.  1.
         13    1    6    6    0    0 -0.84268780316E+02  0.87702205433E+02 -0.18090769241E+03  0.21799196624E+03  0.00000000000E+00 0. -1.
        -14    1    6    6    0    0 -0.29289643916E+03  0.13456358192E+03 -0.45051275234E+03  0.55394712896E+03  0.00000000000E+00 0.  1.
</event>
<event>
12    1  0.8562501E-002  0.1733527E+03  0.7818608E-02  0.1174397E+00
         21   -1    0    0  503  502  0.00000000000E+00  0.00000000000E+00  0.30124429580E+03  0.30124429580E+03  0.00000000000E+00 0.  1.
         21   -1    0    0  501  503 -0.00000000000E+00 -0.00000000000E+00 -0.10228399564E+03  0.10228399564E+03  0.00000000000E+00 0.  1.
          6    2    1    2  501    0  0.23008652200E+02  0.77421396556E+01  0.13121396054E+03  0.21740810841E+03  0.17163870006E+03 0.  0.
         24    2    3    3    0    0 -0.40987753411E+02  0.51337793905E+01  0.21705003362E+02  0.90456758765E+02  0.77491718363E+02 0.  0.
         -6    2    1    2    0  502 -0.23008652200E+02 -0.77421396556E+01  0.67746339616E+02  0.18612018303E+03  0.17164444994E+03 0.  0.
        -24    2    5    5    0    0 -0.59825975215E+02 -0.51225687485E+02  0.18622804477E+02  0.11074415295E+03  0.75592593530E+02 0.  0.
          5    1    3    3  501    0  0.63996405610E+02  0.26083602651E+01  0.10950895718E+03  0.12695134964E+03  0.47000000000E+01 0. -1.
        -11    1    4    4    0    0  0.25794704206E+01  0.28425777818E+02  0.28799434274E+02  0.40547329465E+02  0.00000000000E+00 0.  1.
         12    1    4    4    0    0 -0.43567223831E+02 -0.23291998428E+02 -0.70944309119E+01  0.49909429301E+02  0.00000000000E+00 0. -1.
         -5    1    5    5    0  502  0.36817323015E+02  0.43483547829E+02  0.49123535139E+02  0.75376030078E+02  0.47000000000E+01 0.  1.
         13    1    6    6    0    0  0.13490750422E+02  0.45769953197E+01  0.11542571888E+02  0.18335217449E+02  0.00000000000E+00 0. -1.
        -14    1    6    6    0    0 -0.73316725637E+02 -0.55802682805E+02  0.70802325888E+01  0.92408935498E+02  0.00000000000E+00 0.  1.
</event>
<event>
12    1  0.8562501E-002  0.1725220E+03  0.7818608E-02  0.1177773E+00
         21   -1    0    0  503  502  0.00000000000E+00  0.00000000000E+00  0.18314258007E+03  0.18314258007E+03  0.00000000000E+00 0. -1.
         21   -1    0    0  501  503 -0.00000000000E+00 -0.00000000000E+00 -0.25380878198E+03  0.25380878198E+03  0.00000000000E+00 0. -1.
          6    2    1    2  501    0  0.47652832112E+01  0.58120094879E+01 -0.17196330261E+03  0.23688904095E+03  0.16275304267E+03 0.  0.
         24    2    3    3    0    0 -0.36367060486E+02  0.11430989748E+02 -0.36176086172E+02  0.94819688923E+02  0.78922959789E+02 0.  0.
         -6    2    1    2    0  502 -0.47652832112E+01 -0.58120094879E+01  0.10129710070E+03  0.20006232110E+03  0.17235818035E+03 0.  0.
        -24    2    5    5    0    0  0.11002750299E+02  0.17944051820E+02  0.13567913881E+03  0.15514911732E+03  0.72245210139E+02 0.  0.
          5    1    3    3  501    0  0.41132343697E+02 -0.56189802601E+01 -0.13578721644E+03  0.14206935203E+03  0.47000000000E+01 0. -1.
        -11    1    4    4    0    0 -0.96116362932E+01 -0.24568598785E+02  0.12011561182E+02  0.28987535261E+02  0.00000000000E+00 0.  1.
         12    1    4    4    0    0 -0.26755424193E+02  0.35999588533E+02 -0.48187647354E+02  0.65832153662E+02  0.00000000000E+00 0. -1.
         -5    1    5    5    0  502 -0.15768033511E+02 -0.23756061308E+02 -0.34382038104E+02  0.44913203781E+02  0.47000000000E+01 0.  1.
         13    1    6    6    0    0  0.33053626404E+02 -0.18188886027E+01  0.11328739635E+03  0.11802493273E+03  0.00000000000E+00 0. -1.
        -14    1    6    6    0    0 -0.22050876105E+02  0.19762940423E+02  0.22391742453E+02  0.37124184587E+02  0.00000000000E+00 0.  1.
</event>
<event>
12    1  0.8562501E-002  0.2112300E+03  0.7818608E-02  0.1140674E+00
         21   -1    0    0  501  502  0.00000000000E+00  0.00000000000E+00  0.91211769156E+03  0.91211769156E+03  0.00000000000E+00 0. -1.
         21   -1    0    0  502  503 -0.00000000000E+00 -0.00000000000E+00 -0.74914888445E+02  0.74914888445E+02  0.00000000000E+00 0. -1.
         -6    2    1    2    0  503  0.28597924748E+02  0.11899857220E+03  0.12710602039E+03  0.24618471651E+03  0.17167548672E+03 0.  0.
        -24    2    3    3    0    0  0.35036836428E+02 -0.45727114256E+01  0.53965350465E+02  0.10236896870E+03  0.79489981166E+02 0.  0.
          6    2    1    2  501    0 -0.28597924748E+02 -0.11899857220E+03  0.71009678273E+03  0.74084786350E+03  0.17216159419E+03 0.  0.
         24    2    5    5    0    0 -0.38287451681E+02  0.36778907446E+00  0.21781508143E+03  0.23418665660E+03  0.77031916798E+02 0.  0.
          5    1    5    5  501    0  0.96895269329E+01 -0.11936636128E+03  0.49228170131E+03  0.50666120690E+03  0.47000000000E+01 0. -1.
        -11    1    6    6    0    0 -0.58667920705E+02  0.11985364478E+02  0.17987150615E+03  0.18957671958E+03  0.00000000000E+00 0.  1.
         12    1    6    6    0    0  0.20380469024E+02 -0.11617575404E+02  0.37943575279E+02  0.44609937019E+02  0.00000000000E+00 0. -1.
         -5    1    3    3    0  503 -0.64389116797E+01  0.12357128363E+03  0.73140669920E+02  0.14381574781E+03  0.47000000000E+01 0.  1.
         11    1    4    4    0    0 -0.55506973044E+01 -0.23919692416E+02 -0.79855700861E+01  0.25821139700E+02  0.00000000000E+00 0. -1.
        -12    1    4    4    0    0  0.40587533732E+02  0.19346980990E+02  0.61950920551E+02  0.76547829003E+02  0.00000000000E+00 0.  1.
</event>
<event>
12    1  0.8562501E-002  0.1940174E+03  0.7818608E-02  0.1155159E+00
         21   -1    0    0  501  502  0.00000000000E+00  0.00000000000E+00  0.14522700124E+04  0.14522700124E+04  0.00000000000E+00 0. -1.
         21   -1    0    0  502  503 -0.00000000000E+00 -0.00000000000E+00 -0.33182439885E+02  0.33182439885E+02  0.00000000000E+00 0. -1.
         -6    2    1    2    0  503  0.56710300585E+02 -0.72341088532E+02  0.35991504456E+03  0.40887846218E+03  0.17086095589E+03 0.  0.
        -24    2    3    3    0    0 -0.35408099501E+02 -0.32332789177E+02  0.18101919758E+03  0.20366570010E+03  0.80078865748E+02 0.  0.
          6    2    1    2  501    0 -0.56710300585E+02  0.72341088532E+02  0.10591725279E+04  0.10765739901E+04  0.16945743100E+03 0.  0.
         24    2    5    5    0    0  0.10102862861E+01  0.18732071767E+02  0.83698317754E+03  0.84078639445E+03  0.77646702569E+02 0.  0.
          5    1    5    5  501    0 -0.57720586871E+02  0.53609016765E+02  0.22218935040E+03  0.23578759564E+03  0.47000000000E+01 0. -1.
        -13    1    6    6    0    0 -0.19784603541E+02 -0.24090473450E+02  0.26547676030E+03  0.26730075142E+03  0.00000000000E+00 0.  1.
         14    1    6    6    0    0  0.20794889827E+02  0.42822545217E+02  0.57150641724E+03  0.57348564303E+03  0.00000000000E+00 0. -1.
         -5    1    3    3    0  503  0.92118400085E+02 -0.40008299355E+02  0.17889584698E+03  0.20521276208E+03  0.47000000000E+01 0.  1.
         13    1    4    4    0    0  0.62691497963E+01 -0.45507801819E+02  0.12092300685E+03  0.12935469010E+03  0.00000000000E+00 0. -1.
        -14    1    4    4    0    0 -0.41677249297E+02  0.13175012643E+02  0.60096190730E+02  0.74311010001E+02  0.00000000000E+00 0.  1.
</event>
<event>
12    1  0.8562501E-002  0.2404241E+03  0.7818608E-02  0.1119767E+00
         21   -1    0    0  503  502  0.00000000000E+00  0.00000000000E+00  0.60378094371E+02  0.60378094371E+02  0.00000000000E+00 0. -1.
         21   -1    0    0  501  503 -0.00000000000E+00 -0.00000000000E+00 -0.19587022362E+04  0.19587022362E+04  0.00000000000E+00 0. -1.
          6    2    1    2  501    0 -0.15829778174E+03  0.45756184609E+02 -0.16717036008E+04  0.16886856848E+04  0.17295836713E+03 0.  0.
         24    2    3    3    0    0 -0.14823798837E+03  0.88377748907E+02 -0.14629526963E+04  0.14753389545E+04  0.81297670686E+02 0.  0.
         -6    2    1    2    0  502  0.15829778174E+03 -0.45756184609E+02 -0.22662054097E+03  0.33039464578E+03  0.17507694376E+03 0.  0.
        -24    2    5    5    0    0  0.95870015302E+02 -0.26509146490E+02 -0.23163924712E+03  0.26470635222E+03  0.80739813103E+02 0.  0.
          5    1    3    3  501    0 -0.10059793374E+02 -0.42621564298E+02 -0.20875090451E+03  0.21334673028E+03  0.47000000000E+01 0. -1.
        -11    1    4    4    0    0 -0.11076761972E+03  0.48916827793E+02 -0.69572079401E+03  0.70617968311E+03  0.00000000000E+00 0.  1.
         12    1    4    4    0    0 -0.37470368645E+02  0.39460921114E+02 -0.76723190231E+03  0.76915927138E+03  0.00000000000E+00 0. -1.
         -5    1    5    5    0  502  0.62427766439E+02 -0.19247038119E+02  0.50187061476E+01  0.65688293556E+02  0.47000000000E+01 0.  1.
         13    1    6    6    0    0  0.74319782472E+02  0.80840563561E+01 -0.88355690645E+02  0.11573897400E+03  0.00000000000E+00 0. -1.
        -14    1    6    6    0    0  0.21550232830E+02 -0.34593202846E+02 -0.14328355647E+03  0.14896737822E+03  0.00000000000E+00 0.  1.
</event>
<event>
12    1  0.8562501E-002  0.1803145E+03  0.7818608E-02  0.1168901E+00
         21   -1    0    0  503  502  0.00000000000E+00  0.00000000000E+00  0.16360776914E+03  0.16360776914E+03  0.00000000000E+00 0.  1.
         21   -1    0    0  501  503 -0.00000000000E+00 -0.00000000000E+00 -0.25041514192E+03  0.25041514192E+03  0.00000000000E+00 0.  1.
          6    2    1    2  501    0 -0.44737436077E+02  0.48232198042E+01 -0.14349572466E+03  0.23044380191E+03  0.17460991153E+03 0.  0.
         24    2    3    3    0    0 -0.44942780461E+02  0.66225568320E+02 -0.97291024315E+02  0.15345513454E+03  0.87619949146E+02 0.  0.
         -6    2    1    2    0  502  0.44737436077E+02 -0.48232198042E+01  0.56688351875E+02  0.18357910915E+03  0.16870986468E+03 0.  0.
        -24    2    5    5    0    0  0.10150777477E+02 -0.64296734133E+02  0.48343223490E+02  0.11411640673E+03  0.80301797763E+02 0.  0.
          5    1    3    3  501    0  0.20534438437E+00 -0.61402348516E+02 -0.46204700344E+02  0.76988667370E+02  0.47000000000E+01 0. -1.
        -11    1    4    4    0    0 -0.43202287540E+02  0.31408558210E+02 -0.10495282643E+03  0.11776260422E+03  0.00000000000E+00 0.  1.
         12    1    4    4    0    0 -0.17404929210E+01  0.34817010110E+02  0.76618021147E+01  0.35692530314E+02  0.00000000000E+00 0. -1.
         -5    1    5    5    0  502  0.34586658600E+02  0.59473514329E+02  0.83451283853E+01  0.69462702420E+02  0.47000000000E+01 0.  1.
         13    1    6    6    0    0 -0.28565946988E+02 -0.15993014595E+02  0.39941071999E+02  0.51643770927E+02  0.00000000000E+00 0. -1.
        -14    1    6    6    0    0  0.38716724465E+02 -0.48303719537E+02  0.84021514914E+01  0.62472635803E+02  0.00000000000E+00 0.  1.
</event>
<event>
12    1  0.8562501E-002  0.1840117E+03  0.7818608E-02  0.1164101E+00
         21   -1    0    0  503  502  0.00000000000E+00  0.00000000000E+00  0.14363210873E+04  0.14363210873E+04  0.00000000000E+00 0. -1.
         21   -1    0    0  501  503 -0.00000000000E+00 -0.00000000000E+00 -0.13929931595E+03  0.13929931595E+03  0.00000000000E+00 0. -1.
          6    2    1    2  501    0 -0.59597222174E+02  0.25666425323E+02  0.13666234743E+04  0.13788852741E+04  0.17162250550E+03 0.  0.
         24    2    3    3    0    0 -0.91352549141E+02  0.60678901928E+02  0.92466437381E+03  0.93438081879E+03  0.77692296523E+02 0.  0.
         -6    2    1    2    0  502  0.59597222174E+02 -0.25666425323E+02 -0.69601702944E+02  0.19673512914E+03  0.17219093967E+03 0.  0.
        -24    2    5    5    0    0  0.61296648394E+02  0.15050811265E+02  0.14268235538E+02  0.10337005009E+03  0.80610040853E+02 0.  0.
          5    1    3    3  501    0  0.31755326967E+02 -0.35012476605E+02  0.44195910049E+03  0.44450445533E+03  0.47000000000E+01 0. -1.
        -13    1    4    4    0    0 -0.24702679924E+01  0.35988185958E+02  0.15163036962E+03  0.15586218510E+03  0.00000000000E+00 0.  1.
         14    1    4    4    0    0 -0.88882281149E+02  0.24690715970E+02  0.77303400420E+03  0.77851863369E+03  0.00000000000E+00 0. -1.
         -5    1    5    5    0  502 -0.16994262191E+01 -0.40717236589E+02 -0.83869938482E+02  0.93365079049E+02  0.47000000000E+01 0.  1.
         11    1    6    6    0    0 -0.17609846032E+01 -0.26576962931E+02  0.64705445800E+01  0.27409924709E+02  0.00000000000E+00 0. -1.
        -12    1    6    6    0    0  0.63057632997E+02  0.41627774196E+02  0.77976909579E+01  0.75960125381E+02  0.00000000000E+00 0.  1.
</event>
<event>
12    1  0.8562501E-002  0.2012631E+03  0.7818608E-02  0.1149296E+00
         21   -1    0    0  501  502  0.00000000000E+00  0.00000000000E+00  0.10223242037E+03  0.10223242037E+03  0.00000000000E+00 0. -1.
         21   -1    0    0  502  503 -0.00000000000E+00 -0.00000000000E+00 -0.59415984766E+03  0.59415984766E+03  0.00000000000E+00 0. -1.
         -6    2    1    2    0  503 -0.83122544727E+02  0.52047061599E+02 -0.44864380002E+03  0.49052753481E+03  0.17238836694E+03 0.  0.
        -24    2    3    3    0    0 -0.39651383607E+02 -0.33289681307E+02 -0.15821844383E+03  0.18468267372E+03  0.79963609865E+02 0.  0.
          6    2    1    2  501    0  0.83122544727E+02 -0.52047061599E+02 -0.43283627277E+02  0.20586473321E+03  0.17575142084E+03 0.  0.
         24    2    5    5    0    0  0.35705778350E+02 -0.82581860451E+02  0.20362220766E+02  0.12069661918E+03  0.77835644556E+02 0.  0.
          5    1    5    5  501    0  0.47416766377E+02  0.30534798852E+02 -0.63645848043E+02  0.85168114032E+02  0.47000000000E+01 0. -1.
        -13    1    6    6    0    0  0.16621865921E+02  0.13193166549E+02  0.18720282553E+01  0.21303768683E+02  0.00000000000E+00 0.  1.
         14    1    6    6    0    0  0.19083912429E+02 -0.95775027001E+02  0.18490192511E+02  0.99392850496E+02  0.00000000000E+00 0. -1.
         -5    1    3    3    0  503 -0.43471161121E+02  0.85336742907E+02 -0.29042535619E+03  0.30584486109E+03  0.47000000000E+01 0.  1.
         11    1    4    4    0    0 -0.34338388138E+02  0.13260127085E+02 -0.27871500146E+02  0.46171164059E+02  0.00000000000E+00 0. -1.
        -12    1    4    4    0    0 -0.53129954690E+01 -0.46549808392E+02 -0.13034694368E+03  0.13851150966E+03  0.00000000000E+00 0.  1.
</event>
<event>
12    1  0.8562501E-002  0.1795410E+03  0.7818608E-02  0.1168583E+00
         21   -1    0    0  501  502  0.00000000000E+00  0.00000000000E+00  0.25962837254E+03  0.25962837254E+03  0.00000000000E+00 0.  1.
         21   -1    0    0  502  503 -0.00000000000E+00 -0.00000000000E+00 -0.22630021143E+03  0.22630021143E+03  0.00000000000E+00 0.  1.
         -6    2    1    2    0  503  0.21764362378E+02  0.42450781847E+02 -0.14728643726E+03  0.23222460335E+03  0.17308730587E+03 0.  0.
        -24    2    3    3    0    0  0.62988606255E+01 -0.21065876040E+02 -0.16656884979E+02  0.86074962563E+02  0.81535272027E+02 0.  0.
          6    2    1    2  501    0 -0.21764362378E+02 -0.42450781847E+02  0.18061459837E+03  0.25370398061E+03  0.17166339239E+03 0.  0.
         24    2    5    5    0    0 -0.25103038016E+02 -0.92091868541E+02  0.10341776281E+03  0.16174297984E+03  0.79715011719E+02 0.  0.
          5    1    5    5  501    0  0.33386756382E+01  0.49641086694E+02  0.77196835558E+02  0.91961000774E+02  0.47000000000E+01 0. -1.
        -13    1    6    6    0    0 -0.25903606280E+02 -0.62928483238E+02  0.11224464740E+03  0.13126252966E+03  0.00000000000E+00 0.  1.
         14    1    6    6    0    0  0.80056826460E+00 -0.29163385302E+02 -0.88268845908E+01  0.30480450184E+02  0.00000000000E+00 0. -1.
         -5    1    3    3    0  503  0.15465501752E+02  0.63516657887E+02 -0.13062955228E+03  0.14614964079E+03  0.47000000000E+01 0.  1.
         13    1    4    4    0    0  0.41039652275E+02  0.33426088542E+00 -0.18955902060E+02  0.45207200887E+02  0.00000000000E+00 0. -1.
        -14    1    4    4    0    0 -0.34740791649E+02 -0.21400136926E+02  0.22990170810E+01  0.40867761676E+02  0.00000000000E+00 0.  1.
</event>
<event>
12    1  0.8562501E-002  0.1733544E+03  0.7818608E-02  0.1174485E+00
         21   -1    0    0  503  502  0.00000000000E+00  0.00000000000E+00  0.72376709920E+02  0.72376709920E+02  0.00000000000E+00 0. -1.
         21   -1    0    0  501  503 -0.00000000000E+00 -0.00000000000E+00 -0.27556095159E+04  0.27556095159E+04  0.00000000000E+00 0. -1.
          6    2    1    2  501    0  0.15064535408E+01 -0.19399915498E+02 -0.26447625699E+04  0.26504144933E+04  0.17189912545E+03 0.  0.
         24    2    3    3    0    0  0.21885593672E+02  0.20299107886E+02 -0.24040002701E+04  0.24055065579E+04  0.79708649531E+02 0.  0.
         -6    2    1    2    0  502 -0.15064535408E+01  0.19399915498E+02 -0.38470236108E+02  0.17757173249E+03  0.17225891846E+03 0.  0.
        -24    2    5    5    0    0 -0.26434890486E+02 -0.38049685159E+02  0.14488758620E+02  0.95421694714E+02  0.82151042111E+02 0.  0.
          5    1    3    3  501    0 -0.20379140131E+02 -0.39699023385E+02 -0.24076229980E+03  0.24490793538E+03  0.47000000000E+01 0. -1.
        -13    1    4    4    0    0 -0.29738443337E+02  0.45655681736E+01 -0.68736413187E+03  0.68802228830E+03  0.00000000000E+00 0.  1.
         14    1    4    4    0    0  0.51624037009E+02  0.15733539713E+02 -0.17166361382E+04  0.17174842696E+04  0.00000000000E+00 0. -1.
         -5    1    5    5    0  502  0.24928436945E+02  0.57449600657E+02 -0.52958994729E+02  0.82150037777E+02  0.47000000000E+01 0.  1.
         11    1    6    6    0    0  0.32401361176E+01 -0.40987212930E+02  0.39114024576E+02  0.56748189613E+02  0.00000000000E+00 0. -1.
        -12    1    6    6    0    0 -0.29675026604E+02  0.29375277715E+01 -0.24625265956E+02  0.38673505100E+02  0.00000000000E+00 0.  1.
</event>
<event>
12    1  0.8562501E-002  0.2489906E+03  0.7818608E-02  0.1114213E+00
         21   -1    0    0  503  502  0.00000000000E+00  0.00000000000E+00  0.11501812582E+04  0.11501812582E+04  0.00000000000E+00 0. -1.
         21   -1    0    0  501  503 -0.00000000000E+00 -0.00000000000E+00 -0.10208041522E+03  0.10208041522E+03  0.00000000000E+00 0. -1.
          6    2    1    2  501    0 -0.46916054813E+02 -0.17508460623E+03  0.91344572516E+02  0.26363692317E+03  0.16824048500E+03 0.  0.
         24    2    3    3    0    0 -0.25413245922E+02 -0.16662055697E+03  0.12359966650E+03  0.22368079713E+03  0.79674201432E+02 0.  0.
         -6    2    1    2    0  502  0.46916054813E+02  0.17508460623E+03  0.95675627050E+03  0.98862475029E+03  0.17070618092E+03 0.  0.
        -24    2    5    5    0    0  0.62344512143E+02  0.49235893069E+02  0.58822368018E+03  0.59886290502E+03  0.79490060524E+02 0.  0.
          5    1    3    3  501    0 -0.21502808891E+02 -0.84640492662E+01 -0.32255093986E+02  0.39956126041E+02  0.47000000000E+01 0. -1.
        -13    1    4    4    0    0  0.10797515740E+02  0.35675200379E+01  0.14023059384E+02  0.18054355150E+02  0.00000000000E+00 0.  1.
         14    1    4    4    0    0 -0.36210761663E+02 -0.17018807700E+03  0.10957660712E+03  0.20562644198E+03  0.00000000000E+00 0. -1.
         -5    1    5    5    0  502 -0.15428457330E+02  0.12584871316E+03  0.36853259032E+03  0.38976184527E+03  0.47000000000E+01 0.  1.
         11    1    6    6    0    0  0.62590404794E+02  0.24325867383E+02  0.22553353640E+03  0.23531825819E+03  0.00000000000E+00 0. -1.
        -12    1    6    6    0    0 -0.24589265080E+00  0.24910025687E+02  0.36269014378E+03  0.36354464683E+03  0.00000000000E+00 0.  1.
</event>
<event>
12    1  0.8562501E-002  0.2096185E+03  0.7818608E-02  0.1142051E+00
         21   -1    0    0  501  502  0.00000000000E+00  0.00000000000E+00  0.68456246771E+03  0.68456246771E+03  0.00000000000E+00 0. -1.
         21   -1    0    0  502  503 -0.00000000000E+00 -0.00000000000E+00 -0.65419729135E+02  0.65419729135E+02  0.00000000000E+00 0. -1.
         -6    2    1    2    0  503  0.11838891512E+03  0.32441861594E+01  0.25188194564E+03  0.32711056146E+03  0.17184395514E+03 0.  0.
        -24    2    3    3    0    0  0.14492297242E+03  0.10955547233E+02  0.24984045689E+03  0.29900755517E+03  0.76567435599E+02 0.  0.
          6    2    1    2  501    0 -0.11838891512E+03 -0.32441861594E+01  0.36726079294E+03  0.42287163538E+03  0.17295510982E+03 0.  0.
         24    2    5    5    0    0 -0.21450446078E+02  0.17915161996E+02  0.69144371051E+02  0.10864198084E+03  0.79000387890E+02 0.  0.
          5    1    5    5  501    0 -0.96938469039E+02 -0.21159348155E+02  0.29811642189E+03  0.31422965454E+03  0.47000000000E+01 0. -1.
        -11    1    6    6    0    0 -0.36229555255E+02  0.27467480298E+02  0.94878895854E+01  0.46444194435E+02  0.00000000000E+00 0.  1.
         12    1    6    6    0    0  0.14779109177E+02 -0.95523183022E+01  0.59656481466E+02  0.62197786407E+02  0.00000000000E+00 0. -1.
         -5    1    3    3    0  503 -0.26534057306E+02 -0.77113610733E+01  0.20414887451E+01  0.28103006299E+02  0.47000000000E+01 0.  1.
         13    1    4    4    0    0  0.14196445660E+03  0.29006424506E+02  0.20964343862E+03  0.25484436615E+03  0.00000000000E+00 0. -1.
        -14    1    4    4    0    0  0.29585158219E+01 -0.18050877273E+02  0.40197018272E+02  0.44163189017E+02  0.00000000000E+00 0.  1.
</event>
<event>
12    1  0.8562501E-002  0.2251934E+03  0.7818608E-02  0.1130117E+00
         21   -1    0    0  501  502  0.00000000000E+00  0.00000000000E+00  0.19004862676E+02  0.19004862676E+02  0.00000000000E+00 0.  1.
         21   -1    0    0  502  503 -0.00000000000E+00 -0.00000000000E+00 -0.27790772691E+04  0.27790772691E+04  0.00000000000E+00 0.  1.
         -6    2    1    2    0  503  0.92734419754E+02 -0.11094596736E+03 -0.16623724369E+04  0.16775209762E+04  0.17229575226E+03 0.  0.
        -24    2    3    3    0    0  0.88266021593E+02 -0.13890592387E+03 -0.15674651916E+04  0.15783685634E+04  0.84937911201E+02 0.  0.
          6    2    1    2  501    0 -0.92734419754E+02  0.11094596736E+03 -0.10976999695E+04  0.11205611556E+04  0.17263661279E+03 0.  0.
         24    2    5    5    0    0  0.12452932610E+02  0.88630890432E+02 -0.55360013451E+03  0.56591797101E+03  0.76023224825E+02 0.  0.
          5    1    5    5  501    0 -0.10518735236E+03  0.22315076933E+02 -0.54409983498E+03  0.55464318457E+03  0.47000000000E+01 0. -1.
        -13    1    6    6    0    0  0.27283520057E+02  0.44141999465E+00 -0.10474440574E+03  0.10824036148E+03  0.00000000000E+00 0.  1.
         14    1    6    6    0    0 -0.14830587447E+02  0.88189470437E+02 -0.44885572877E+03  0.45767760954E+03  0.00000000000E+00 0. -1.
         -5    1    3    3    0  503  0.44683981607E+01  0.27959956510E+02 -0.94907245293E+02  0.99152412776E+02  0.47000000000E+01 0.  1.
         13    1    4    4    0    0 -0.23382584849E+01 -0.16632400072E+02 -0.40587102043E+02  0.43925129905E+02  0.00000000000E+00 0. -1.
        -14    1    4    4    0    0  0.90604280078E+02 -0.12227352380E+03 -0.15268780896E+04  0.15344434335E+04  0.00000000000E+00 0.  1.
</event>
<event>
12    1  0.8562501E-002  0.1881796E+03  0.7818608E-02  0.1160471E+00
         21   -1    0    0  501  502  0.00000000000E+00  0.00000000000E+00  0.98009034681E+03  0.98009034681E+03  0.00000000000E+00 0.  1.
         21   -1    0    0  502  503 -0.00000000000E+00 -0.00000000000E+00 -0.56872822140E+02  0.56872822140E+02  0.00000000000E+00 0.  1.
         -6    2    1    2    0  503  0.53446138455E+02 -0.50553185215E+02  0.14503915877E+03  0.23635519414E+03  0.17150890930E+03 0.  0.
        -24    2    3    3    0    0  0.58097900500E+02  0.28026522676E+02  0.11085527855E+03  0.15040732012E+03  0.78566005035E+02 0.  0.
          6    2    1    2  501    0 -0.53446138455E+02  0.50553185215E+02  0.77817836589E+03  0.80060797480E+03  0.17320348126E+03 0.  0.
         24    2    5    5    0    0  0.27108647966E+02  0.20500978520E+02  0.23943685338E+03  0.25502872662E+03  0.80959716710E+02 0.  0.
          5    1    5    5  501    0 -0.80554786421E+02  0.30052206695E+02  0.53874151251E+03  0.54557924818E+03  0.47000000000E+01 0. -1.
        -11    1    6    6    0    0 -0.17598915417E+02 -0.18821511883E+02  0.10285019653E+03  0.10602893029E+03  0.00000000000E+00 0.  1.
         12    1    6    6    0    0  0.44707563383E+02  0.39322490402E+02  0.13658665686E+03  0.14899979633E+03  0.00000000000E+00 0. -1.
         -5    1    3    3    0  503 -0.46517620449E+01 -0.78579707891E+02  0.34183880222E+02  0.85947874024E+02  0.47000000000E+01 0.  1.
         11    1    4    4    0    0 -0.55647010320E+01 -0.72557960415E+01  0.62172784357E+02  0.62841607144E+02  0.00000000000E+00 0. -1.
        -12    1    4    4    0    0  0.63662601532E+02  0.35282318718E+02  0.48682494192E+02  0.87565712974E+02  0.00000000000E+00 0.  1.
</event>
<event>
12    1  0.8562501E-002  0.1793235E+03  0.7818608E-02  0.1169418E+00
         21   -1    0    0  503  502  0.00000000000E+00  0.00000000000E+00  0.86163580009E+03  0.86163580009E+03  0.00000000000E+00 0. -1.
         21   -1    0    0  501  503 -0.00000000000E+00 -0.00000000000E+00 -0.68090299952E+02  0.68090299952E+02  0.00000000000E+00 0.  1.
          6    2    1    2  501    0 -0.32835990428E+02  0.39894053045E+02  0.82555852359E+02  0.19741421383E+03  0.17171827313E+03 0.  0.
         24    2    3    3    0    0 -0.20509556574E+02  0.46173696844E+02 -0.18090649245E+02  0.95712772427E+02  0.79252829757E+02 0.  0.
         -6    2    1    2    0  502  0.32835990428E+02 -0.39894053045E+02  0.71098964778E+03  0.73231188621E+03  0.16764450992E+03 0.  0.
        -24    2    5    5    0    0  0.60536722596E+02 -0.15762645889E+02  0.66796745242E+03  0.67554345601E+03  0.79153570223E+02 0.  0.
          5    1    3    3  501    0 -0.12326433854E+02 -0.62796437986E+01  0.10064650160E+03  0.10170144140E+03  0.47000000000E+01 0. -1.
        -13    1    4    4    0    0 -0.16868036788E+02  0.78055946636E+01 -0.45013537003E+02  0.48699861259E+02  0.00000000000E+00 0.  1.
         14    1    4    4    0    0 -0.36415197860E+01  0.38368102180E+02  0.26922887758E+02  0.47012911168E+02  0.00000000000E+00 0. -1.
         -5    1    5    5    0  502 -0.27700732169E+02 -0.24131407156E+02  0.43022195354E+02  0.56768430197E+02  0.47000000000E+01 0.  1.
         11    1    6    6    0    0  0.18658331034E+02 -0.15509010571E+02  0.54688821909E+03  0.54742614745E+03  0.00000000000E+00 0. -1.
        -12    1    6    6    0    0  0.41878391562E+02 -0.25363531719E+00  0.12107923333E+03  0.12811730856E+03  0.00000000000E+00 0.  1.
</event>
<event>
12    1  0.8562501E-002  0.1762891E+03  0.7818608E-02  0.1174271E+00
         21   -1    0    0  501  502  0.00000000000E+00  0.00000000000E+00  0.41146416015E+03  0.41146416015E+03  0.00000000000E+00 0.  1.
         21   -1    0    0  502  503 -0.00000000000E+00 -0.00000000000E+00 -0.77293868337E+02  0.77293868337E+02  0.00000000000E+00 0.  1.
         -6    2    1    2    0  503  0.26434190401E+02 -0.23296955237E+02  0.10173839938E+03  0.20354004786E+03  0.17273197339E+03 0.  0.
        -24    2    3    3    0    0 -0.40187779125E+02 -0.40957178254E+02  0.90293877761E+02  0.13351549948E+03  0.79880261641E+02 0.  0.
          6    2    1    2  501    0 -0.26434190401E+02  0.23296955237E+02  0.23243189243E+03  0.28521798062E+03  0.16150293281E+03 0.  0.
         24    2    5    5    0    0  0.39106721298E+02  0.60228087254E+02  0.14848400696E+03  0.17239574392E+03  0.50160084295E+02 0.  0.
          5    1    5    5  501    0 -0.65540911699E+02 -0.36931132017E+02  0.83947885471E+02  0.11282223670E+03  0.47000000000E+01 0. -1.
        -13    1    6    6    0    0  0.13889912926E+02  0.46676174518E+02  0.49842518046E+02  0.69684083935E+02  0.00000000000E+00 0.  1.
         14    1    6    6    0    0  0.25216808373E+02  0.13551912736E+02  0.98641488909E+02  0.10271165999E+03  0.00000000000E+00 0. -1.
         -5    1    3    3    0  503  0.66621969526E+02  0.17660223017E+02  0.11444521623E+02  0.70024548380E+02  0.47000000000E+01 0.  1.
         11    1    4    4    0    0 -0.30190350368E+02 -0.27400156530E+02 -0.89863639546E+00  0.40780306284E+02  0.00000000000E+00 0. -1.
        -12    1    4    4    0    0 -0.99974287576E+01 -0.13557021723E+02  0.91192514156E+02  0.92735193200E+02  0.00000000000E+00 0.  1.
</event>
<event>
12    1  0.8562501E-002  0.2351159E+03  0.7818608E-02  0.1123214E+00
         21   -1    0    0  503  502  0.00000000000E+00  0.00000000000E+00  0.90112579838E+03  0.90112579838E+03  0.00000000000E+00 0. -1.
         21   -1    0    0  501  503 -0.00000000000E+00 -0.00000000000E+00 -0.91431540524E+02  0.91431540524E+02  0.00000000000E+00 0. -1.
          6    2    1    2  501    0  0.35335260460E+02  0.15479733543E+03  0.11968940956E+03  0.26382763303E+03  0.17340319922E+03 0.  0.
         24    2    3    3    0    0  0.13458294922E+02  0.58685008264E+02 -0.97260372246E+01  0.10108050119E+03  0.80607791336E+02 0.  0.
         -6    2    1    2    0  502 -0.35335260460E+02 -0.15479733543E+03  0.69000484830E+03  0.72872970588E+03  0.17242244015E+03 0.  0.
        -24    2    5    5    0    0 -0.37713966883E+02 -0.14813440634E+02  0.34636491256E+03  0.35763450989E+03  0.79322182875E+02 0.  0.
          5    1    3    3  501    0  0.21876965539E+02  0.96112327164E+02  0.12941544679E+03  0.16274713184E+03  0.47000000000E+01 0. -1.
        -13    1    4    4    0    0  0.28280015606E+02  0.40673957820E+02  0.27866754781E+02  0.56839125164E+02  0.00000000000E+00 0.  1.
         14    1    4    4    0    0 -0.14821720684E+02  0.18011050443E+02 -0.37592792005E+02  0.44241376028E+02  0.00000000000E+00 0. -1.
         -5    1    5    5    0  502  0.23787064224E+01 -0.13998389479E+03  0.34363993574E+03  0.37109519598E+03  0.47000000000E+01 0.  1.
         13    1    6    6    0    0 -0.21367167523E+02 -0.46443790926E+02  0.16243247636E+03  0.17028767114E+03  0.00000000000E+00 0. -1.
        -14    1    6    6    0    0 -0.16346799360E+02  0.31630350292E+02  0.18393243619E+03  0.18734683876E+03  0.00000000000E+00 0.  1.
</event>
<event>
12    1  0.8562501E-002  0.2027784E+03  0.7818608E-02  0.1147761E+00
         21   -1    0    0  501  502  0.00000000000E+00  0.00000000000E+00  0.24609447386E+03  0.24609447386E+03  0.00000000000E+00 0. -1.
         21   -1    0    0  502  503 -0.00000000000E+00 -0.00000000000E+00 -0.52823466069E+03  0.52823466069E+03  0.00000000000E+00 0. -1.
         -6    2    1    2    0  503 -0.95265615934E+02  0.44878200154E+02 -0.46162082272E+03  0.50352964440E+03  0.17134388928E+03 0.  0.
        -24    2    3    3    0    0 -0.70698131661E+02  0.41144407549E+02 -0.46425978706E+03  0.47810216667E+03  0.79708492663E+02 0.  0.
          6    2    1    2  501    0  0.95265615934E+02 -0.44878200154E+02  0.17948063589E+03  0.27079949015E+03  0.17329014622E+03 0.  0.
         24    2    5    5    0    0  0.11781620294E+03  0.35593279091E+01  0.97451335527E+02  0.17279122918E+03  0.80415916311E+02 0.  0.
          5    1    5    5  501    0 -0.22550587008E+02 -0.48437528063E+02  0.82029300367E+02  0.98008260968E+02  0.47000000000E+01 0. -1.
        -11    1    6    6    0    0  0.60823948977E+02  0.10164500292E+02  0.23359869598E+01  0.61711641287E+02  0.00000000000E+00 0.  1.
         12    1    6    6    0    0  0.56992253965E+02 -0.66051723826E+01  0.95115348568E+02  0.11107958790E+03  0.00000000000E+00 0. -1.
         -5    1    3    3    0  503 -0.24567484273E+02  0.37337926047E+01  0.26389643415E+01  0.25427477726E+02  0.47000000000E+01 0.  1.
         13    1    4    4    0    0 -0.87682921556E+02  0.26045736472E+02 -0.36848166300E+03  0.37966486680E+03  0.00000000000E+00 0. -1.
        -14    1    4    4    0    0  0.16984789895E+02  0.15098671077E+02 -0.95778124067E+02  0.98437299871E+02  0.00000000000E+00 0.  1.
</event>
<event>
12    1  0.8562501E-002  0.2432138E+03  0.7818608E-02  0.1117693E+00
         21   -1    0    0  501  502  0.00000000000E+00  0.00000000000E+00  0.10483168965E+04  0.10483168965E+04  0.00000000000E+00 0.  1.
         21   -1    0    0  502  503 -0.00000000000E+00 -0.00000000000E+00 -0.79250846678E+02  0.79250846678E+02  0.00000000000E+00 0. -1.
         -6    2    1    2    0  503  0.16809654919E+03 -0.35021909086E+02  0.18166348939E+03  0.30345867238E+03  0.17205394068E+03 0.  0.
        -24    2    3    3    0    0  0.18332159943E+02 -0.34337131615E+02  0.57261867679E+02  0.10870833300E+03  0.83806166109E+02 0.  0.
          6    2    1    2  501    0 -0.16809654919E+03  0.35021909086E+02  0.78740256048E+03  0.82410907084E+03  0.17224977337E+03 0.  0.
         24    2    5    5    0    0 -0.19490873614E+03  0.38836283689E+02  0.72392509611E+03  0.75493594524E+03  0.79768817741E+02 0.  0.
          5    1    5    5  501    0  0.26812186948E+02 -0.38143746028E+01  0.63477464369E+02  0.69173125600E+02  0.47000000000E+01 0. -1.
        -13    1    6    6    0    0 -0.62247984869E+01 -0.28177626440E+01  0.13394950492E+03  0.13412366596E+03  0.00000000000E+00 0.  1.
         14    1    6    6    0    0 -0.18868393765E+03  0.41654046333E+02  0.58997559118E+03  0.62081227927E+03  0.00000000000E+00 0. -1.
         -5    1    3    3    0  503  0.14976438925E+03 -0.68477747150E+00  0.12440162171E+03  0.19475033938E+03  0.47000000000E+01 0.  1.
         11    1    4    4    0    0  0.96079521857E+01 -0.60683268872E+02  0.51934713301E+02  0.80448656371E+02  0.00000000000E+00 0. -1.
        -12    1    4    4    0    0  0.87242077576E+01  0.26346137258E+02  0.53271543778E+01  0.28259676629E+02  0.00000000000E+00 0.  1.
</event>
<event>
12    1  0.8562501E-002  0.2335629E+03  0.7818608E-02  0.1124167E+00
         21   -1    0    0  503  502  0.00000000000E+00  0.00000000000E+00  0.78739281125E+02  0.78739281125E+02  0.00000000000E+00 0.  1.
         21   -1    0    0  501  503 -0.00000000000E+00 -0.00000000000E+00 -0.95537958327E+03  0.95537958327E+03  0.00000000000E+00 0. -1.
          6    2    1    2  501    0  0.10514978351E+03 -0.11731959448E+03 -0.70951928497E+03  0.74697339437E+03  0.17242758461E+03 0.  0.
         24    2    3    3    0    0  0.10784923965E+03 -0.21220309579E+02 -0.36381672113E+03  0.38812145796E+03  0.78701331132E+02 0.  0.
         -6    2    1    2    0  502 -0.10514978351E+03  0.11731959448E+03 -0.16712101718E+03  0.28714547002E+03  0.17234477756E+03 0.  0.
        -24    2    5    5    0    0 -0.38308035060E+02  0.12921471307E+03 -0.14197173132E+03  0.21459280115E+03  0.87921272667E+02 0.  0.
          5    1    3    3  501    0 -0.26994561409E+01 -0.96099284904E+02 -0.34570256384E+03  0.35885193642E+03  0.47000000000E+01 0. -1.
        -11    1    4    4    0    0  0.77460936216E+02 -0.40416942804E+02 -0.17148565924E+03  0.19246053422E+03  0.00000000000E+00 0.  1.
         12    1    4    4    0    0  0.30388303435E+02  0.19196633225E+02 -0.19233106188E+03  0.19566092374E+03  0.00000000000E+00 0. -1.
         -5    1    5    5    0  502 -0.66841748449E+02 -0.11895118585E+02 -0.25149285860E+02  0.72552668877E+02  0.47000000000E+01 0.  1.
         11    1    6    6    0    0  0.28239987282E+02  0.28007825708E+02 -0.36448914179E+02  0.53948665669E+02  0.00000000000E+00 0. -1.
        -12    1    6    6    0    0 -0.66548022342E+02  0.10120688736E+03 -0.10552281714E+03  0.16064413548E+03  0.00000000000E+00 0.  1.
</event>
<event>
12    1  0.8562501E-002  0.2260441E+03  0.7818608E-02  0.1129481E+00
         21   -1    0    0  503  502  0.00000000000E+00  0.00000000000E+00  0.18064606995E+03  0.18064606995E+03  0.00000000000E+00 0.  1.
         21   -1    0    0  501  503 -0.00000000000E+00 -0.00000000000E+00 -0.40182704230E+03  0.40182704230E+03  0.00000000000E+00 0. -1.
          6    2    1    2  501    0  0.96585465400E+02  0.11032946600E+03 -0.26920542073E+03  0.35152168721E+03  0.17203079618E+03 0.  0.
         24    2    3    3    0    0  0.34260315893E+02  0.67603501522E+01 -0.17966368795E+03  0.20101986687E+03  0.83129263956E+02 0.  0.
         -6    2    1    2    0  502 -0.96585465400E+02 -0.11032946600E+03  0.48024448379E+02  0.23095142504E+03  0.17184548261E+03 0.  0.
        -24    2    5    5    0    0 -0.40391426855E+01 -0.17299339417E+02 -0.19091495902E+02  0.83485950177E+02  0.79308491622E+02 0.  0.
          5    1    3    3  501    0  0.62325149507E+02  0.10356911585E+03 -0.89541732772E+02  0.15050182034E+03  0.47000000000E+01 0. -1.
        -13    1    4    4    0    0 -0.33063606615E+01 -0.98868802968E+01  0.51962488184E+01  0.11648322824E+02  0.00000000000E+00 0.  1.
         14    1    4    4    0    0  0.37566676555E+02  0.16647230449E+02 -0.18485993677E+03  0.18937154404E+03  0.00000000000E+00 0. -1.
         -5    1    5    5    0  502 -0.92546322715E+02 -0.93030126581E+02  0.67115944282E+02  0.14746547486E+03  0.47000000000E+01 0.  1.
         13    1    6    6    0    0  0.15132587153E+02 -0.17795022632E+02  0.25719154945E+02  0.34743818954E+02  0.00000000000E+00 0. -1.
        -14    1    6    6    0    0 -0.19171729839E+02  0.49568321501E+00 -0.44810650847E+02  0.48742131223E+02  0.00000000000E+00 0.  1.
</event>
<event>
12    1  0.8562501E-002  0.3056813E+03  0.7818608E-02  0.1082544E+00
         21   -1    0    0  503  502  0.00000000000E+00  0.00000000000E+00  0.55399866732E+03  0.55399866732E+03  0.00000000000E+00 0. -1.
         21   -1    0    0  501  503 -0.00000000000E+00 -0.00000000000E+00 -0.24294888950E+03  0.24294888950E+03  0.00000000000E+00 0.  1.
          6    2    1    2  501    0  0.10866892946E+03 -0.22810691201E+03 -0.65381458530E+02  0.31259528898E+03  0.17204470360E+03 0.  0.
         24    2    3    3    0    0  0.61974871068E+02 -0.23305374819E+03 -0.33802830757E+02  0.25581407722E+03  0.78379056806E+02 0.  0.
         -6    2    1    2    0  502 -0.10866892946E+03  0.22810691201E+03  0.37643123635E+03  0.48435226784E+03  0.17045510883E+03 0.  0.
        -24    2    5    5    0    0 -0.31730547821E+02  0.19730555624E+03  0.31567695427E+03  0.38148628281E+03  0.77094320953E+02 0.  0.
          5    1    3    3  501    0  0.46694058393E+02  0.49468361763E+01 -0.31578627774E+02  0.56781211765E+02  0.47000000000E+01 0. -1.
        -13    1    4    4    0    0 -0.13771263148E+02 -0.93349373398E+01  0.25752685190E+01  0.16835104745E+02  0.00000000000E+00 0.  1.
         14    1    4    4    0    0  0.75746134216E+02 -0.22371881085E+03 -0.36378099276E+02  0.23897897247E+03  0.00000000000E+00 0. -1.
         -5    1    5    5    0  502 -0.76938381641E+02  0.30801355771E+02  0.60754282080E+02  0.10286598504E+03  0.47000000000E+01 0.  1.
         11    1    6    6    0    0 -0.49203230396E+02  0.69231061543E+02  0.12487454386E+03  0.15102168542E+03  0.00000000000E+00 0. -1.
        -12    1    6    6    0    0  0.17472682575E+02  0.12807449470E+03  0.19080241041E+03  0.23046459739E+03  0.00000000000E+00 0.  1.
</event>
<event>
12    1  0.8562501E-002  0.2329891E+03  0.7818608E-02  0.1124791E+00
         21   -1    0    0  503  502  0.00000000000E+00  0.00000000000E+00  0.43337620390E+03  0.43337620390E+03  0.00000000000E+00 0.  1.
         21   -1    0    0  501  503 -0.00000000000E+00 -0.00000000000E+00 -0.14326561861E+03  0.14326561861E+03  0.00000000000E+00 0. -1.
          6    2    1    2  501    0  0.14703826923E+03 -0.54762050467E+02  0.40404790856E+02  0.23512036527E+03  0.17038164293E+03 0.  0.
         24    2    3    3    0    0  0.68690571774E+02  0.10809312394E+02 -0.33846350440E+02  0.10873489415E+03  0.76436024776E+02 0.  0.
         -6    2    1    2    0  502 -0.14703826923E+03  0.54762050467E+02  0.24970579443E+03  0.34152145723E+03  0.17223468636E+03 0.  0.
        -24    2    5    5    0    0 -0.72008899538E+02  0.92655957174E+02  0.19563025654E+03  0.24146343266E+03  0.79139017096E+02 0.  0.
          5    1    3    3  501    0  0.78347697461E+02 -0.65571362860E+02  0.74251141296E+02  0.12638547111E+03  0.47000000000E+01 0. -1.
        -13    1    4    4    0    0  0.58071175589E+02  0.22256101701E+02  0.92711829018E+01  0.62877264012E+02  0.00000000000E+00 0.  1.
         14    1    4    4    0    0  0.10619396185E+02 -0.11446789307E+02 -0.43117533342E+02  0.45857630142E+02  0.00000000000E+00 0. -1.
         -5    1    5    5    0  502 -0.75029369697E+02 -0.37893906707E+02  0.54075537897E+02  0.10005802457E+03  0.47000000000E+01 0.  1.
         11    1    6    6    0    0 -0.62203397967E+02  0.20129778750E+02  0.67952119745E+02  0.94297196613E+02  0.00000000000E+00 0. -1.
        -12    1    6    6    0    0 -0.98055015706E+01  0.72526178423E+02  0.12767813679E+03  0.14716623605E+03  0.00000000000E+00 0.  1.
</event>
<event>
12    1  0.8562501E-002  0.1859673E+03  0.7818608E-02  0.1162281E+00
         21   -1    0    0  503  502  0.00000000000E+00  0.00000000000E+00  0.42248334106E+03  0.42248334106E+03  0.00000000000E+00 0.  1.
         21   -1    0    0  501  503 -0.00000000000E+00 -0.00000000000E+00 -0.97054469051E+02  0.97054469051E+02  0.00000000000E+00 0.  1.
          6    2    1    2  501    0 -0.45167091951E+02 -0.52161879902E+02  0.58883445701E+02  0.19452963326E+03  0.17208599632E+03 0.  0.
         24    2    3    3    0    0 -0.31315153545E+02 -0.88683548373E+02  0.76058494116E+02  0.15160201100E+03  0.91394007557E+02 0.  0.
         -6    2    1    2    0  502  0.45167091951E+02  0.52161879902E+02  0.26654542630E+03  0.32500817684E+03  0.17269314642E+03 0.  0.
        -24    2    5    5    0    0 -0.32730939959E+02  0.14900688454E+02  0.90327360559E+02  0.12871401886E+03  0.84349994891E+02 0.  0.
          5    1    3    3  501    0 -0.13851938406E+02  0.36521668472E+02 -0.17175048415E+02  0.42927622268E+02  0.47000000000E+01 0. -1.
        -11    1    4    4    0    0  0.26981144203E+02 -0.39778834690E+02  0.64928875102E+01  0.48502530037E+02  0.00000000000E+00 0.  1.
         12    1    4    4    0    0 -0.58296297748E+02 -0.48904713684E+02  0.69565606606E+02  0.10309948096E+03  0.00000000000E+00 0. -1.
         -5    1    5    5    0  502  0.77898031910E+02  0.37261191448E+02  0.17621806574E+03  0.19629415798E+03  0.47000000000E+01 0.  1.
         13    1    6    6    0    0 -0.58390112319E+00  0.43443309415E+02  0.23893370773E+02  0.49583820349E+02  0.00000000000E+00 0. -1.
        -14    1    6    6    0    0 -0.32147038836E+02 -0.28542620962E+02  0.66433989787E+02  0.79130198510E+02  0.00000000000E+00 0.  1.
</event>
<event>
12    1  0.8562501E-002  0.1777778E+03  0.7818608E-02  0.1170237E+00
         21   -1    0    0  503  502  0.00000000000E+00  0.00000000000E+00  0.12213478344E+03  0.12213478344E+03  0.00000000000E+00 0.  1.
         21   -1    0    0  501  503 -0.00000000000E+00 -0.00000000000E+00 -0.45076429490E+03  0.45076429490E+03  0.00000000000E+00 0.  1.
          6    2    1    2  501    0 -0.44130748741E+02  0.91993191289E+01 -0.35173694376E+03  0.39362583573E+03  0.17085160372E+03 0.  0.
         24    2    3    3    0    0 -0.39825086864E+02  0.34139314285E+02 -0.35520990266E+03  0.36765097238E+03  0.79004001272E+02 0.  0.
         -6    2    1    2    0  502  0.44130748741E+02 -0.91993191289E+01  0.23107432294E+02  0.17927324260E+03  0.17196741444E+03 0.  0.
        -24    2    5    5    0    0  0.79031758473E+00 -0.44265165737E+02  0.63282832228E+02  0.11039538454E+03  0.78882156248E+02 0.  0.
          5    1    3    3  501    0 -0.43056618770E+01 -0.24939995156E+02  0.34729589044E+01  0.25974863352E+02  0.47000000000E+01 0. -1.
        -13    1    4    4    0    0 -0.50700835085E+02  0.45159448249E+02 -0.19093028752E+03  0.20264334466E+03  0.00000000000E+00 0.  1.
         14    1    4    4    0    0  0.10875748221E+02 -0.11020133964E+02 -0.16427961514E+03  0.16500762771E+03  0.00000000000E+00 0. -1.
         -5    1    5    5    0  502  0.43340431156E+02  0.35065846608E+02 -0.40175399934E+02  0.68877858060E+02  0.47000000000E+01 0.  1.
         13    1    6    6    0    0 -0.31204840825E+02 -0.28415982046E+02  0.56256004299E+01  0.42577664412E+02  0.00000000000E+00 0. -1.
        -14    1    6    6    0    0  0.31995158410E+02 -0.15849183690E+02  0.57657231798E+02  0.67817720132E+02  0.00000000000E+00 0.  1.
</event>
<event>
12    1  0.8562501E-002  0.1883448E+03  0.7818608E-02  0.1159998E+00
         21   -1    0    0  501  502  0.00000000000E+00  0.00000000000E+00  0.13633312863E+03  0.13633312863E+03  0.00000000000E+00 0. -1.
         21   -1    0    0  502  503 -0.00000000000E+00 -0.00000000000E+00 -0.34364770593E+03  0.34364770593E+03  0.00000000000E+00 0. -1.
         -6    2    1    2    0  503 -0.11181371938E+02 -0.77075640146E+02 -0.22210269477E+03  0.29121019893E+03  0.17148788749E+03 0.  0.
        -24    2    3    3    0    0 -0.46139238619E+02 -0.90984213149E+01 -0.12634226511E+03  0.16859248157E+03  0.10123954897E+03 0.  0.
          6    2    1    2  501    0  0.11181371938E+02  0.77075640146E+02  0.14788117471E+02  0.18877063564E+03  0.17131837928E+03 0.  0.
         24    2    5    5    0    0 -0.31064989960E+01  0.97715803730E+02  0.57912988962E+02  0.13865073790E+03  0.79448626129E+02 0.  0.
          5    1    5    5  501    0  0.14287870934E+02 -0.20640163583E+02 -0.43124871491E+02  0.50119897742E+02  0.47000000000E+01 0. -1.
        -13    1    6    6    0    0 -0.36682089806E+02  0.26097431162E+02  0.98118655423E+01  0.46075202997E+02  0.00000000000E+00 0.  1.
         14    1    6    6    0    0  0.33575590810E+02  0.71618372568E+02  0.48101123420E+02  0.92575534899E+02  0.00000000000E+00 0. -1.
         -5    1    3    3    0  503  0.34957866682E+02 -0.67977218831E+02 -0.95760429657E+02  0.12261771736E+03  0.47000000000E+01 0.  1.
         11    1    4    4    0    0  0.16535550468E+02 -0.16471851624E+02 -0.95577269448E+02  0.98385775193E+02  0.00000000000E+00 0. -1.
        -12    1    4    4    0    0 -0.62674789087E+02  0.73734303091E+01 -0.30764995663E+02  0.70206706373E+02  0.00000000000E+00 0.  1.
</event>
<event>
12    1  0.8562501E-002  0.1867148E+03  0.7818608E-02  0.1163850E+00
         21   -1    0    0  503  502  0.00000000000E+00  0.00000000000E+00  0.96532306266E+02  0.96532306266E+02  0.00000000000E+00 0.  1.
         21   -1    0    0  501  503 -0.00000000000E+00 -0.00000000000E+00 -0.35266585201E+03  0.35266585201E+03  0.00000000000E+00 0.  1.
          6    2    1    2  501    0  0.25206408555E+02 -0.27420993631E+02 -0.85471335045E+02  0.19623968443E+03  0.17267712850E+03 0.  0.
         24    2    3    3    0    0 -0.40013038379E+02  0.21505979109E+02 -0.32745136543E+02  0.99030801458E+02  0.81678058819E+02 0.  0.
         -6    2    1    2    0  502 -0.25206408555E+02  0.27420993631E+02 -0.17066221070E+03  0.25295847385E+03  0.18296208735E+03 0.  0.
        -24    2    5    5    0    0  0.24251855292E+02 -0.34239932541E+02 -0.14292093527E+03  0.16905461195E+03  0.79953377778E+02 0.  0.
          5    1    3    3  501    0  0.65219446934E+02 -0.48926972740E+02 -0.52726198501E+02  0.97208882970E+02  0.47000000000E+01 0. -1.
        -11    1    4    4    0    0 -0.41459289126E+02 -0.97970508262E+01 -0.48000173169E+02  0.64178434727E+02  0.00000000000E+00 0.  1.
         12    1    4    4    0    0  0.14462507473E+01  0.31303029935E+02  0.15255036626E+02  0.34852366731E+02  0.00000000000E+00 0. -1.
         -5    1    5    5    0  502 -0.49458263846E+02  0.61660926172E+02 -0.27741275433E+02  0.83903861900E+02  0.47000000000E+01 0.  1.
         13    1    6    6    0    0  0.43919981243E+02 -0.36510500782E+02 -0.56292300937E+02  0.80192297414E+02  0.00000000000E+00 0. -1.
        -14    1    6    6    0    0 -0.19668125951E+02  0.22705682415E+01 -0.86628634331E+02  0.88862314536E+02  0.00000000000E+00 0.  1.
</event>
<event>
12    1  0.8562501E-002  0.2017769E+03  0.7818608E-02  0.1148707E+00
         21   -1    0    0  501  502  0.00000000000E+00  0.00000000000E+00  0.10573164473E+03  0.10573164473E+03  0.00000000000E+00 0.  1.
         21   -1    0    0  502  503 -0.00000000000E+00 -0.00000000000E+00 -0.46662315469E+03  0.46662315469E+03  0.00000000000E+00 0.  1.
         -6    2    1    2    0  503  0.96033653697E+02  0.35754216412E+02 -0.30229595973E+03  0.36224207032E+03  0.17127651213E+03 0.  0.
        -24    2    3    3    0    0  0.13449558703E+02 -0.37272642532E+02 -0.12579963788E+03  0.15409285341E+03  0.79680098338E+02 0.  0.
          6    2    1    2  501    0 -0.96033653697E+02 -0.35754216412E+02 -0.58595550227E+02  0.21011272909E+03  0.17381914102E+03 0.  0.
         24    2    5    5    0    0 -0.34521564091E+02 -0.62164140648E+02 -0.86652580804E+02  0.13737684915E+03  0.79420464313E+02 0.  0.
          5    1    5    5  501    0 -0.61512089607E+02  0.26409924236E+02  0.28057030578E+02  0.72735879941E+02  0.47000000000E+01 0. -1.
        -13    1    6    6    0    0 -0.21792099891E+02 -0.57298748259E+01  0.10064118276E+02  0.24678200093E+02  0.00000000000E+00 0.  1.
         14    1    6    6    0    0 -0.12729464200E+02 -0.56434265822E+02 -0.96716699080E+02  0.11269864905E+03  0.00000000000E+00 0. -1.
         -5    1    3    3    0  503  0.82584094994E+02  0.73026858944E+02 -0.17649632185E+03  0.20814921691E+03  0.47000000000E+01 0.  1.
         11    1    4    4    0    0 -0.18003297815E+02  0.48050837044E+01 -0.96938789485E+00  0.18658705060E+02  0.00000000000E+00 0. -1.
        -12    1    4    4    0    0  0.31452856518E+02 -0.42077726236E+02 -0.12483024999E+03  0.13543414835E+03  0.00000000000E+00 0.  1.
</event>
<event>
12    1  0.8562501E-002  0.1838533E+03  0.7818608E-02  0.1164333E+00
         21   -1    0    0  503  502  0.00000000000E+00  0.00000000000E+00  0.64687623944E+02  0.64687623944E+02  0.00000000000E+00 0.  1.
         21   -1    0    0  501  503 -0.00000000000E+00 -0.00000000000E+00 -0.75190228014E+03  0.75190228014E+03  0.00000000000E+00 0.  1.
          6    2    1    2  501    0 -0.10573126399E+02  0.63579080542E+02 -0.11630826056E+03  0.21680982883E+03  0.17124485369E+03 0.  0.
         24    2    3    3    0    0 -0.34525952090E+02  0.51623653548E+02 -0.48647424928E+01  0.10209968188E+03  0.80892745947E+02 0.  0.
         -6    2    1    2    0  502  0.10573126399E+02 -0.63579080542E+02 -0.57090639564E+03  0.59978007526E+03  0.17218575904E+03 0.  0.
        -24    2    5    5    0    0 -0.44115151059E+01 -0.98212858772E+02 -0.52726907025E+03  0.54189791702E+03  0.77301053912E+02 0.  0.
          5    1    3    3  501    0  0.23952825691E+02  0.11955426994E+02 -0.11144351807E+03  0.11471014695E+03  0.47000000000E+01 0. -1.
        -11    1    4    4    0    0  0.14130716623E+01  0.38510029043E+02 -0.36029688685E+02  0.52755640221E+02  0.00000000000E+00 0.  1.
         12    1    4    4    0    0 -0.35939023752E+02  0.13113624504E+02  0.31164946192E+02  0.49344041657E+02  0.00000000000E+00 0. -1.
         -5    1    5    5    0  502  0.14984641505E+02  0.34633778230E+02 -0.43637325387E+02  0.57882158239E+02  0.47000000000E+01 0.  1.
         13    1    6    6    0    0  0.39637215750E+01 -0.26917157746E+02 -0.34548667807E+02  0.43975617302E+02  0.00000000000E+00 0. -1.
        -14    1    6    6    0    0 -0.83752366810E+01 -0.71295701026E+02 -0.49272040244E+03  0.49792229972E+03  0.00000000000E+00 0.  1.
</event>
<event>
12    1  0.8562501E-002  0.1819508E+03  0.7818608E-02  0.1166202E+00
         21   -1    0    0  503  502  0.00000000000E+00  0.00000000000E+00  0.57047727272E+03  0.57047727272E+03  0.00000000000E+00 0.  1.
         21   -1    0    0  501  503 -0.00000000000E+00 -0.00000000000E+00 -0.46785744960E+03  0.46785744960E+03  0.00000000000E+00 0.  1.
          6    2    1    2  501    0  0.12151438738E+02 -0.55582927255E+02 -0.43478926669E+03  0.47132556356E+03  0.17282639026E+03 0.  0.
         24    2    3    3    0    0 -0.50933932910E+02 -0.66039340151E+02 -0.31280238019E+03  0.33351413020E+03  0.80192805293E+02 0.  0.
         -6    2    1    2    0  502 -0.12151438738E+02  0.55582927255E+02  0.53740908981E+03  0.56700915876E+03  0.17162091087E+03 0.  0.
        -24    2    5    5    0    0  0.20176809873E+02  0.51760818103E+02  0.52430308141E+03  0.53160320400E+03  0.67984993795E+02 0.  0.
          5    1    3    3  501    0  0.63085371648E+02  0.10456412896E+02 -0.12198688650E+03  0.13781143336E+03  0.47000000000E+01 0. -1.
        -11    1    4    4    0    0 -0.15861845674E+02  0.16889495760E+02 -0.96026886984E+02  0.98782671756E+02  0.00000000000E+00 0.  1.
         12    1    4    4    0    0 -0.35072087235E+02 -0.82928835911E+02 -0.21677549320E+03  0.23473145844E+03  0.00000000000E+00 0. -1.
         -5    1    5    5    0  502 -0.32328248611E+02  0.38221091518E+01  0.13106008399E+02  0.35405954764E+02  0.47000000000E+01 0.  1.
         11    1    6    6    0    0  0.28582377207E+02  0.31719189302E+02  0.13275236483E+03  0.13944981041E+03  0.00000000000E+00 0. -1.
        -12    1    6    6    0    0 -0.84055673345E+01  0.20041628801E+02  0.39155071658E+03  0.39215339358E+03  0.00000000000E+00 0.  1.
</event>
<event>
12    1  0.8562501E-002  0.1906530E+03  0.7818608E-02  0.1157937E+00
         21   -1    0    0  501  502  0.00000000000E+00  0.00000000000E+00  0.16058256287E+03  0.16058256287E+03  0.00000000000E+00 0. -1.
         21   -1    0    0  502  503 -0.00000000000E+00 -0.00000000000E+00 -0.22796657016E+03  0.22796657016E+03  0.00000000000E+00 0.  1.
         -6    2    1    2    0  503  0.70336403054E+02 -0.39030758418E+02 -0.15709964129E+02  0.19101744884E+03  0.17254058390E+03 0.  0.
        -24    2    3    3    0    0  0.47147372595E+02  0.23264088711E+02  0.42538388222E+02  0.10251129276E+03  0.77038679282E+02 0.  0.
          6    2    1    2  501    0 -0.70336403054E+02  0.39030758418E+02 -0.51674043158E+02  0.19753168418E+03  0.17285239316E+03 0.  0.
         24    2    5    5    0    0  0.19309298336E+02  0.42864389911E+02 -0.54353580098E+02  0.10764109276E+03  0.80137932693E+02 0.  0.
          5    1    5    5  501    0 -0.89645701390E+02 -0.38336314933E+01  0.26795369397E+01  0.89890591423E+02  0.47000000000E+01 0. -1.
        -13    1    6    6    0    0  0.78318279066E+01 -0.10903993378E+02  0.14347458485E+02  0.19649024529E+02  0.00000000000E+00 0.  1.
         14    1    6    6    0    0  0.11477470430E+02  0.53768383289E+02 -0.68701038583E+02  0.87992068230E+02  0.00000000000E+00 0. -1.
         -5    1    3    3    0  503  0.23189030459E+02 -0.62294847129E+02 -0.58248352351E+02  0.88506156080E+02  0.47000000000E+01 0.  1.
         11    1    4    4    0    0  0.14508110954E+02 -0.25161719723E+02  0.31917903896E+02  0.43154953505E+02  0.00000000000E+00 0. -1.
        -12    1    4    4    0    0  0.32639261641E+02  0.48425808434E+02  0.10620484326E+02  0.59356339259E+02  0.00000000000E+00 0.  1.
</event>
<event>
12    1  0.8562501E-002  0.1745185E+03  0.7818608E-02  0.1173402E+00
         21   -1    0    0  503  502  0.00000000000E+00  0.00000000000E+00  0.54211389266E+03  0.54211389266E+03  0.00000000000E+00 0.  1.
         21   -1    0    0  501  503 -0.00000000000E+00 -0.00000000000E+00 -0.57049402322E+02  0.57049402322E+02  0.00000000000E+00 0.  1.
          6    2    1    2  501    0 -0.14711022590E+02 -0.26880476838E+02  0.28472954158E+03  0.33395751819E+03  0.17180726959E+03 0.  0.
         24    2    3    3    0    0 -0.71141216444E+02 -0.47003500364E+02  0.16347894366E+03  0.19863161398E+03  0.73883362995E+02 0.  0.
         -6    2    1    2    0  502  0.14711022590E+02  0.26880476838E+02  0.20033494876E+03  0.26520577680E+03  0.17105858099E+03 0.  0.
        -24    2    5    5    0    0 -0.13984408282E+02  0.50489495448E+01  0.21196770775E+03  0.22702915544E+03  0.79942934156E+02 0.  0.
          5    1    3    3  501    0  0.56430193853E+02  0.20123023525E+02  0.12125059792E+03  0.13532590421E+03  0.47000000000E+01 0. -1.
        -11    1    4    4    0    0 -0.20049738730E+02 -0.56241651246E+02  0.72940231002E+02  0.94262360764E+02  0.00000000000E+00 0.  1.
         12    1    4    4    0    0 -0.51091477713E+02  0.92381508825E+01  0.90538712659E+02  0.10436925321E+03  0.00000000000E+00 0. -1.
         -5    1    5    5    0  502  0.28695430873E+02  0.21831527294E+02 -0.11632758992E+02  0.38176621363E+02  0.47000000000E+01 0.  1.
         13    1    6    6    0    0  0.26126075888E+02 -0.19712600653E+02  0.66552964787E+02  0.74165056379E+02  0.00000000000E+00 0. -1.
        -14    1    6    6    0    0 -0.40110484170E+02  0.24761550198E+02  0.14541474297E+03  0.15286409906E+03  0.00000000000E+00 0.  1.
</event>
<event>
12    1  0.8562501E-002  0.1974698E+03  0.7818608E-02  0.1152983E+00
         21   -1    0    0  503  502  0.00000000000E+00  0.00000000000E+00  0.10440826507E+03  0.10440826507E+03  0.00000000000E+00 0.  1.
         21   -1    0    0  501  503 -0.00000000000E+00 -0.00000000000E+00 -0.40685530013E+03  0.40685530013E+03  0.00000000000E+00 0.  1.
          6    2    1    2  501    0 -0.83962571112E+02 -0.57939413990E+02 -0.23239607647E+03  0.30173682089E+03  0.16318849127E+03 0.  0.
         24    2    3    3    0    0 -0.10018612079E+03 -0.16717709734E+02 -0.10446599100E+03  0.16627232653E+03  0.80103699505E+02 0.  0.
         -6    2    1    2    0  502  0.83962571112E+02  0.57939413990E+02 -0.70050958591E+02  0.20952674430E+03  0.16907877080E+03 0.  0.
        -24    2    5    5    0    0 -0.17195276805E+02  0.10886323131E+02 -0.46283997428E+02  0.95360803681E+02  0.80853477879E+02 0.  0.
          5    1    3    3  501    0  0.16223549682E+02 -0.41221704256E+02 -0.12793008547E+03  0.13546449437E+03  0.47000000000E+01 0. -1.
        -11    1    4    4    0    0 -0.75634315239E+01  0.20662914827E+02 -0.44838356254E+02  0.49946368608E+02  0.00000000000E+00 0.  1.
         12    1    4    4    0    0 -0.92622689270E+02 -0.37380624560E+02 -0.59627634744E+02  0.11632595792E+03  0.00000000000E+00 0. -1.
         -5    1    5    5    0  502  0.10115784792E+03  0.47053090859E+02 -0.23766961163E+02  0.11416594062E+03  0.47000000000E+01 0.  1.
         11    1    6    6    0    0  0.15768744085E+02  0.36925457923E+02 -0.30746193470E+02  0.50571445953E+02  0.00000000000E+00 0. -1.
        -12    1    6    6    0    0 -0.32964020889E+02 -0.26039134792E+02 -0.15537803958E+02  0.44789357729E+02  0.00000000000E+00 0.  1.
</event>
<event>
12    1  0.8562501E-002  0.1723801E+03  0.7818608E-02  0.1175450E+00
         21   -1    0    0  503  502  0.00000000000E+00  0.00000000000E+00  0.32834722418E+03  0.32834722418E+03  0.00000000000E+00 0.  1.
         21   -1    0    0  501  503 -0.00000000000E+00 -0.00000000000E+00 -0.91250776459E+02  0.91250776459E+02  0.00000000000E+00 0.  1.
          6    2    1    2  501    0 -0.13493068169E+02 -0.21561408191E+01  0.13921617243E+03  0.22157625725E+03  0.17183766548E+03 0.  0.
         24    2    3    3    0    0 -0.17624408531E+01 -0.13926758098E+02  0.16222630582E+03  0.19280628528E+03  0.10324644573E+03 0.  0.
         -6    2    1    2    0  502  0.13493068169E+02  0.21561408191E+01  0.97880275290E+02  0.19802174339E+03  0.17159647646E+03 0.  0.
        -24    2    5    5    0    0 -0.17353699656E+01  0.66229476933E+02  0.69680860009E+02  0.12622623691E+03  0.81781938769E+02 0.  0.
          5    1    3    3  501    0 -0.11730627316E+02  0.11770617279E+02 -0.23010133389E+02  0.28769971966E+02  0.47000000000E+01 0. -1.
        -13    1    4    4    0    0 -0.17378267950E+02  0.42195089243E+02  0.63955299255E+02  0.78566596312E+02  0.00000000000E+00 0.  1.
         14    1    4    4    0    0  0.15615827097E+02 -0.56121847341E+02  0.98271006567E+02  0.11423968897E+03  0.00000000000E+00 0. -1.
         -5    1    5    5    0  502  0.15228438135E+02 -0.64073336114E+02  0.28199415280E+02  0.71795506481E+02  0.47000000000E+01 0.  1.
         11    1    6    6    0    0 -0.24089238501E+02  0.30785507147E+02 -0.61659319371E+01  0.39573445371E+02  0.00000000000E+00 0. -1.
        -12    1    6    6    0    0  0.22353868536E+02  0.35443969786E+02  0.75846791946E+02  0.86652791538E+02  0.00000000000E+00 0.  1.
</event>
<event>
12    1  0.8562501E-002  0.1931645E+03  0.7818608E-02  0.1155692E+00
         21   -1    0    0  503  502  0.00000000000E+00  0.00000000000E+00  0.13043807414E+03  0.13043807414E+03  0.00000000000E+00 0.  1.
         21   -1    0    0  501  503 -0.00000000000E+00 -0.00000000000E+00 -0.29959112467E+03  0.29959112467E+03  0.00000000000E+00 0.  1.
          6    2    1    2  501    0 -0.83371652369E+02  0.26967690742E+02 -0.38207237677E+02  0.19666393542E+03  0.17186861762E+03 0.  0.
         24    2    3    3    0    0 -0.76473492590E+02  0.77007222234E+02 -0.52135613078E+02  0.14405567598E+03  0.79092403469E+02 0.  0.
         -6    2    1    2    0  502  0.83371652369E+02 -0.26967690742E+02 -0.13094581286E+03  0.23336526339E+03  0.17214659883E+03 0.  0.
        -24    2    5    5    0    0  0.28701205447E+02  0.96626241140E+01 -0.14275334047E+03  0.16634179405E+03  0.79837026088E+02 0.  0.
          5    1    3    3  501    0 -0.68981597788E+01 -0.50039531492E+02  0.13928375401E+02  0.52608259442E+02  0.47000000000E+01 0. -1.
        -13    1    4    4    0    0 -0.83686993301E+02  0.40894144636E+02 -0.53099472939E+02  0.10721659358E+03  0.00000000000E+00 0.  1.
         14    1    4    4    0    0  0.72135007111E+01  0.36113077598E+02  0.96385986138E+00  0.36839082398E+02  0.00000000000E+00 0. -1.
         -5    1    5    5    0  502  0.54670446922E+02 -0.36630314857E+02  0.11807527612E+02  0.67023469333E+02  0.47000000000E+01 0.  1.
         11    1    6    6    0    0 -0.22556295999E+02  0.43768830550E+00 -0.87707815033E+02  0.90562900120E+02  0.00000000000E+00 0. -1.
        -12    1    6    6    0    0  0.51257501446E+02  0.92249358085E+01 -0.55045525439E+02  0.75778893935E+02  0.00000000000E+00 0.  1.
</event>
<event>
12    1  0.8562501E-002  0.3145766E+03  0.7818608E-02  0.1078260E+00
         21   -1    0    0  503  502  0.00000000000E+00  0.00000000000E+00  0.15045206864E+03  0.15045206864E+03  0.00000000000E+00 0. -1.
         21   -1    0    0  501  503 -0.00000000000E+00 -0.00000000000E+00 -0.92360935637E+03  0.92360935637E+03  0.00000000000E+00 0.  1.
          6    2    1    2  501    0 -0.26073675922E+03 -0.23574746873E+02 -0.67522281249E+03  0.74459272713E+03  0.17306951343E+03 0.  0.
         24    2    3    3    0    0 -0.25889871022E+03 -0.29824900090E+02 -0.68178065319E+03  0.73422266859E+03  0.79624124417E+02 0.  0.
         -6    2    1    2    0  502  0.26073675922E+03  0.23574746873E+02 -0.97934475244E+02  0.32946869789E+03  0.17441053623E+03 0.  0.
        -24    2    5    5    0    0  0.27400327640E+03  0.43643616751E+02 -0.81387376016E+02  0.29989410560E+03  0.79561352662E+02 0.  0.
          5    1    3    3  501    0 -0.18380490051E+01  0.62501532169E+01  0.65578406994E+01  0.10370058535E+02  0.47000000000E+01 0. -1.
        -13    1    4    4    0    0 -0.18695884724E+03 -0.73748779808E+01 -0.56556554509E+03  0.59571166279E+03  0.00000000000E+00 0.  1.
         14    1    4    4    0    0 -0.71939862978E+02 -0.22450022109E+02 -0.11621510810E+03  0.13851100580E+03  0.00000000000E+00 0. -1.
         -5    1    5    5    0  502 -0.13266517177E+02 -0.20068869878E+02 -0.16547099228E+02  0.29574592289E+02  0.47000000000E+01 0.  1.
         11    1    6    6    0    0  0.76740551775E+02 -0.18412236241E+02 -0.37513516214E+01  0.79007565265E+02  0.00000000000E+00 0. -1.
        -12    1    6    6    0    0  0.19726272463E+03  0.62055852992E+02 -0.77636024395E+02  0.22088654034E+03  0.00000000000E+00 0.  1.
</event>
<event>
12    1  0.8562501E-002  0.2514543E+03  0.7818608E-02  0.1113105E+00
         21   -1    0    0  503  502  0.00000000000E+00  0.00000000000E+00  0.37277554571E+03  0.37277554571E+03  0.00000000000E+00 0. -1.
         21   -1    0    0  501  503 -0.00000000000E+00 -0.00000000000E+00 -0.17264541073E+03  0.17264541073E+03  0.00000000000E+00 0. -1.
          6    2    1    2  501    0 -0.11065134683E+03 -0.14856889981E+03  0.15203937763E+03  0.29384557854E+03  0.17003768150E+03 0.  0.
         24    2    3    3    0    0 -0.44839520985E+01 -0.19905377969E+02  0.46706285990E+02  0.96505851795E+02  0.81948595969E+02 0.  0.
         -6    2    1    2    0  502  0.11065134683E+03  0.14856889981E+03  0.48090757341E+02  0.25157537789E+03  0.16328199924E+03 0.  0.
        -24    2    5    5    0    0  0.68607883822E+02  0.16457364806E+03  0.15783108500E+02  0.19599049756E+03  0.79822561095E+02 0.  0.
          5    1    3    3  501    0 -0.10616739473E+03 -0.12866352184E+03  0.10533309164E+03  0.19733972675E+03  0.47000000000E+01 0. -1.
        -13    1    4    4    0    0 -0.32846561626E+02  0.77919533406E+01 -0.18656706766E+01  0.33809641740E+02  0.00000000000E+00 0.  1.
         14    1    4    4    0    0  0.28362609527E+02 -0.27697331310E+02  0.48571956667E+02  0.62696210055E+02  0.00000000000E+00 0. -1.
         -5    1    5    5    0  502  0.42043463009E+02 -0.16004748252E+02  0.32307648841E+02  0.55584880337E+02  0.47000000000E+01 0.  1.
         13    1    6    6    0    0  0.25770608700E+02  0.10350980402E+03  0.45143667189E+02  0.11582898812E+03  0.00000000000E+00 0. -1.
        -14    1    6    6    0    0  0.42837275123E+02  0.61063844040E+02 -0.29360558689E+02  0.80161509438E+02  0.00000000000E+00 0.  1.
</event>
<event>
12    1  0.8562501E-002  0.1766873E+03  0.7818608E-02  0.1171435E+00
         21   -1    0    0  503  502  0.00000000000E+00  0.00000000000E+00  0.12520233429E+04  0.12520233429E+04  0.00000000000E+00 0.  1.
         21   -1    0    0  501  503 -0.00000000000E+00 -0.00000000000E+00 -0.37145277222E+02  0.37145277222E+02  0.00000000000E+00 0.  1.
          6    2    1    2  501    0 -0.12337428446E+02  0.38117464298E+02  0.23279057348E+03  0.29131379972E+03  0.17049083723E+03 0.  0.
         24    2    3    3    0    0  0.13511427854E+02  0.87894795604E+02  0.16277725382E+03  0.20148117194E+03  0.78677662061E+02 0.  0.
         -6    2    1    2    0  502  0.12337428446E+02 -0.38117464298E+02  0.98208749216E+03  0.99785482037E+03  0.17208499948E+03 0.  0.
        -24    2    5    5    0    0  0.36262848830E+02 -0.24172066423E+02  0.95382306129E+03  0.95800676000E+03  0.78097611742E+02 0.  0.
          5    1    3    3  501    0 -0.25848856301E+02 -0.49777331306E+02  0.70013319658E+02  0.89832627778E+02  0.47000000000E+01 0. -1.
        -13    1    4    4    0    0  0.11446521983E+01  0.55533360117E+02  0.27770744532E+02  0.62100552061E+02  0.00000000000E+00 0.  1.
         14    1    4    4    0    0  0.12366775656E+02  0.32361435487E+02  0.13500650929E+03  0.13938061988E+03  0.00000000000E+00 0. -1.
         -5    1    5    5    0  502 -0.23925420384E+02 -0.13945397875E+02  0.28264430874E+02  0.39848060367E+02  0.47000000000E+01 0.  1.
         13    1    6    6    0    0  0.13062871748E+02  0.75914448989E+01  0.32453910182E+02  0.35798392981E+02  0.00000000000E+00 0. -1.
        -14    1    6    6    0    0  0.23199977082E+02 -0.31763511322E+02  0.92136915111E+03  0.92220836702E+03  0.00000000000E+00 0.  1.
</event>
<event>
12    1  0.8562501E-002  0.2183278E+03  0.7818608E-02  0.1135610E+00
         21   -1    0    0  503  502  0.00000000000E+00  0.00000000000E+00  0.95959792703E+02  0.95959792703E+02  0.00000000000E+00 0.  1.
         21   -1    0    0  501  503 -0.00000000000E+00 -0.00000000000E+00 -0.51134512738E+03  0.51134512738E+03  0.00000000000E+00 0.  1.
          6    2    1    2  501    0  0.90039629869E+02  0.93783824130E+02 -0.26701394621E+03  0.34333310535E+03  0.17227487670E+03 0.  0.
         24    2    3    3    0    0  0.10223233123E+03  0.21544412278E+02 -0.13437219673E+03  0.19173126401E+03  0.88257459163E+02 0.  0.
         -6    2    1    2    0  502 -0.90039629869E+02 -0.93783824130E+02 -0.14837138846E+03  0.26397181473E+03  0.17539814549E+03 0.  0.
        -24    2    5    5    0    0 -0.88393286699E+02 -0.96158823435E+02 -0.43848008688E+02  0.15930291779E+03  0.79967989171E+02 0.  0.
          5    1    3    3  501    0 -0.12192701356E+02  0.72239411852E+02 -0.13264174948E+03  0.15160184133E+03  0.47000000000E+01 0. -1.
        -11    1    4    4    0    0  0.10790137043E+02  0.19407742304E+02 -0.84872009466E+02  0.87728818011E+02  0.00000000000E+00 0.  1.
         12    1    4    4    0    0  0.91442194182E+02  0.21366699741E+01 -0.49500187266E+02  0.10400244600E+03  0.00000000000E+00 0. -1.
         -5    1    5    5    0  502 -0.16463431704E+01  0.23749993048E+01 -0.10452337978E+03  0.10466889694E+03  0.47000000000E+01 0.  1.
         11    1    6    6    0    0  0.10108154594E+02 -0.28667408073E+01  0.88714956383E+01  0.13751233654E+02  0.00000000000E+00 0. -1.
        -12    1    6    6    0    0 -0.98501441293E+02 -0.93292082627E+02 -0.52719504326E+02  0.14555168413E+03  0.00000000000E+00 0.  1.
</event>
<event>
12    1  0.8562501E-002  0.1852474E+03  0.7818608E-02  0.1162823E+00
         21   -1    0    0  503  502  0.00000000000E+00  0.00000000000E+00  0.12782521962E+04  0.12782521962E+04  0.00000000000E+00 0. -1.
         21   -1    0    0  501  503 -0.00000000000E+00 -0.00000000000E+00 -0.27068278824E+02  0.27068278824E+02  0.00000000000E+00 0. -1.
          6    2    1    2  501    0  0.46554421413E+02 -0.50633291108E+02  0.56618032810E+03  0.59571535269E+03  0.17200457314E+03 0.  0.
         24    2    3    3    0    0 -0.18246526037E+02  0.23765326508E+00  0.42431388932E+03  0.43159590770E+03  0.76809886621E+02 0.  0.
         -6    2    1    2    0  502 -0.46554421413E+02  0.50633291108E+02  0.68500358932E+03  0.70960512237E+03  0.17198391786E+03 0.  0.
        -24    2    5    5    0    0 -0.90424666446E+02  0.20493382604E+02  0.56530101580E+03  0.57851809560E+03  0.80754872489E+02 0.  0.
          5    1    3    3  501    0  0.64800947450E+02 -0.50870944373E+02  0.14186643878E+03  0.16411944499E+03  0.47000000000E+01 0. -1.
        -11    1    4    4    0    0 -0.35480084601E+02 -0.10902579254E+02  0.10054602371E+03  0.10717838178E+03  0.00000000000E+00 0.  1.
         12    1    4    4    0    0  0.17233558563E+02  0.11140232519E+02  0.32376786560E+03  0.32441752591E+03  0.00000000000E+00 0. -1.
         -5    1    5    5    0  502  0.43870245034E+02  0.30139908504E+02  0.11970257351E+03  0.13108702678E+03  0.47000000000E+01 0.  1.
         11    1    6    6    0    0 -0.26179327734E+02  0.46536917354E+02  0.22832189288E+03  0.23448225657E+03  0.00000000000E+00 0. -1.
        -12    1    6    6    0    0 -0.64245338712E+02 -0.26043534749E+02  0.33697912292E+03  0.34403583903E+03  0.00000000000E+00 0.  1.
</event>
<event>
12    1  0.8562501E-002  0.2196264E+03  0.7818608E-02  0.1134367E+00
         21   -1    0    0  503  502  0.00000000000E+00  0.00000000000E+00  0.41685884646E+02  0.41685884646E+02  0.00000000000E+00 0.  1.
         21   -1    0    0  501  503 -0.00000000000E+00 -0.00000000000E+00 -0.12076953914E+04  0.12076953914E+04  0.00000000000E+00 0. -1.
          6    2    1    2  501    0 -0.94711141699E+01  0.13525488660E+03 -0.71652755004E+03  0.74911155810E+03  0.17138497647E+03 0.  0.
         24    2    3    3    0    0  0.59391042901E+02  0.89178250987E+02 -0.34983859763E+03  0.37314888595E+03  0.73300683979E+02 0.  0.
         -6    2    1    2    0  502  0.94711141699E+01 -0.13525488660E+03 -0.44948195676E+03  0.50026971799E+03  0.17277781957E+03 0.  0.
        -24    2    5    5    0    0 -0.55377989227E+02 -0.56643160079E+02 -0.18822559016E+03  0.21980191441E+03  0.81294769279E+02 0.  0.
          5    1    3    3  501    0 -0.68862157071E+02  0.46076635615E+02 -0.36668895242E+03  0.37596267215E+03  0.47000000000E+01 0. -1.
        -11    1    4    4    0    0  0.17810529904E+02  0.83533834009E+02 -0.26632839073E+03  0.27968898460E+03  0.00000000000E+00 0.  1.
         12    1    4    4    0    0  0.41580512997E+02  0.56444169774E+01 -0.83510206898E+02  0.93459901350E+02  0.00000000000E+00 0. -1.
         -5    1    5    5    0  502  0.64849103397E+02 -0.78611726523E+02 -0.26125636660E+03  0.28046780358E+03  0.47000000000E+01 0.  1.
         13    1    6    6    0    0  0.61649960191E-01 -0.29874947590E+02 -0.13547409179E+03  0.13872903748E+03  0.00000000000E+00 0. -1.
        -14    1    6    6    0    0 -0.55439639187E+02 -0.26768212489E+02 -0.52751498370E+02  0.81072876928E+02  0.00000000000E+00 0.  1.
</event>
<event>
12    1  0.8562501E-002  0.2284820E+03  0.7818608E-02  0.1127878E+00
         21   -1    0    0  501  502  0.00000000000E+00  0.00000000000E+00  0.56703592085E+02  0.56703592085E+02  0.00000000000E+00 0.  1.
         21   -1    0    0  502  503 -0.00000000000E+00 -0.00000000000E+00 -0.91705244247E+03  0.91705244247E+03  0.00000000000E+00 0. -1.
         -6    2    1    2    0  503 -0.83983467112E+02 -0.12339823410E+03 -0.43535117794E+03  0.49123450699E+03  0.17175664701E+03 0.  0.
        -24    2    3    3    0    0  0.20748963445E+02 -0.39399543454E+02 -0.14374320519E+03  0.17017070988E+03  0.79455131706E+02 0.  0.
          6    2    1    2  501    0  0.83983467112E+02  0.12339823410E+03 -0.42499767245E+03  0.48252152757E+03  0.17298455438E+03 0.  0.
         24    2    5    5    0    0  0.75094163414E+02  0.15381319705E+03 -0.32145583131E+03  0.37413752249E+03  0.85716983640E+02 0.  0.
          5    1    5    5  501    0  0.88893036974E+01 -0.30414962949E+02 -0.10354184114E+03  0.10838400508E+03  0.47000000000E+01 0. -1.
        -11    1    6    6    0    0  0.88701757780E+02  0.96948616856E+02 -0.19946842245E+03  0.23886123105E+03  0.00000000000E+00 0.  1.
         12    1    6    6    0    0 -0.13607594366E+02  0.56864580195E+02 -0.12198740885E+03  0.13527629143E+03  0.00000000000E+00 0. -1.
         -5    1    3    3    0  503 -0.10473243056E+03 -0.83998690648E+02 -0.29160797275E+03  0.32106379711E+03  0.47000000000E+01 0.  1.
         11    1    4    4    0    0  0.24328798185E+02  0.13103878480E+02 -0.15809628595E+02  0.31836243633E+02  0.00000000000E+00 0. -1.
        -12    1    4    4    0    0 -0.35798347407E+01 -0.52503421934E+02 -0.12793357659E+03  0.13833446625E+03  0.00000000000E+00 0.  1.
</event>
<event>
12    1  0.8562501E-002  0.2192160E+03  0.7818608E-02  0.1134499E+00
         21   -1    0    0  501  502  0.00000000000E+00  0.00000000000E+00  0.28549132167E+03  0.28549132167E+03  0.00000000000E+00 0. -1.
         21   -1    0    0  502  503 -0.00000000000E+00 -0.00000000000E+00 -0.27871216245E+03  0.27871216245E+03  0.00000000000E+00 0. -1.
         -6    2    1    2    0  503  0.30307544679E+02 -0.13084516308E+03 -0.17424535042E+03  0.27990521424E+03  0.17305052110E+03 0.  0.
        -24    2    3    3    0    0  0.60181563232E+02 -0.63224843468E+02 -0.35368261396E+02  0.12250794468E+03  0.78345907436E+02 0.  0.
          6    2    1    2  501    0 -0.30307544679E+02  0.13084516308E+03  0.18102450964E+03  0.28429826988E+03  0.17325307846E+03 0.  0.
         24    2    5    5    0    0 -0.88195810721E+02  0.81565266451E+02  0.11640906337E+03  0.18441430993E+03  0.77628435209E+02 0.  0.
          5    1    5    5  501    0  0.57888266042E+02  0.49279896630E+02  0.64615446274E+02  0.99883959946E+02  0.47000000000E+01 0. -1.
        -13    1    6    6    0    0 -0.20103756402E+01  0.35815125312E+02  0.48408551193E+01  0.36196666830E+02  0.00000000000E+00 0.  1.
         14    1    6    6    0    0 -0.86185435081E+02  0.45750141139E+02  0.11156820825E+03  0.14821764310E+03  0.00000000000E+00 0. -1.
         -5    1    3    3    0  503 -0.29874018554E+02 -0.67620319613E+02 -0.13887708902E+03  0.15739726956E+03  0.47000000000E+01 0.  1.
         13    1    4    4    0    0  0.34228887095E+01 -0.60221573728E+02 -0.21140682463E+02  0.63916215191E+02  0.00000000000E+00 0. -1.
        -14    1    4    4    0    0  0.56758674523E+02 -0.30032697403E+01 -0.14227578932E+02  0.58591729493E+02  0.00000000000E+00 0.  1.
</event>
<event>
12    1  0.8562501E-002  0.1906230E+03  0.7818608E-02  0.1158098E+00
         21   -1    0    0  501  502  0.00000000000E+00  0.00000000000E+00  0.30327767479E+03  0.30327767479E+03  0.00000000000E+00 0. -1.
         21   -1    0    0  502  503 -0.00000000000E+00 -0.00000000000E+00 -0.15234079136E+03  0.15234079136E+03  0.00000000000E+00 0. -1.
         -6    2    1    2    0  503  0.72265420629E+02  0.24178051878E+02 -0.30816748255E+02  0.19223373618E+03  0.17377361175E+03 0.  0.
        -24    2    3    3    0    0  0.53990177970E+02  0.56433929520E+02  0.27445767980E+02  0.12301641945E+03  0.90994733674E+02 0.  0.
          6    2    1    2  501    0 -0.72265420629E+02 -0.24178051878E+02  0.18175363168E+03  0.26338472997E+03  0.17472911646E+03 0.  0.
         24    2    5    5    0    0  0.23116622126E+02 -0.66239770795E+00  0.12588351591E+03  0.15027292728E+03  0.78743101965E+02 0.  0.
          5    1    5    5  501    0 -0.95382042754E+02 -0.23515654170E+02  0.55870115776E+02  0.11311180269E+03  0.47000000000E+01 0. -1.
        -13    1    6    6    0    0 -0.54460400485E+01 -0.15989899324E+02 -0.31906808116E+01  0.17190598496E+02  0.00000000000E+00 0.  1.
         14    1    6    6    0    0  0.28562662174E+02  0.15327501616E+02  0.12907419672E+03  0.13308232878E+03  0.00000000000E+00 0. -1.
         -5    1    3    3    0  503  0.18275242658E+02 -0.32255877642E+02 -0.58262516234E+02  0.69217316725E+02  0.47000000000E+01 0.  1.
         11    1    4    4    0    0  0.49838979160E+02  0.27712412533E+02 -0.25633691866E+02  0.62521898650E+02  0.00000000000E+00 0. -1.
        -12    1    4    4    0    0  0.41511988108E+01  0.28721516988E+02  0.53079459846E+02  0.60494520803E+02  0.00000000000E+00 0.  1.
</event>
<event>
12    1  0.8562501E-002  0.2337268E+03  0.7818608E-02  0.1124104E+00
         21   -1    0    0  501  502  0.00000000000E+00  0.00000000000E+00  0.40189302696E+02  0.40189302696E+02  0.00000000000E+00 0. -1.
         21   -1    0    0  502  503 -0.00000000000E+00 -0.00000000000E+00 -0.14917663446E+04  0.14917663446E+04  0.00000000000E+00 0.  1.
         -6    2    1    2    0  503  0.14071249051E+03  0.69626709102E+02 -0.49529147497E+03  0.54752163619E+03  0.17268008950E+03 0.  0.
        -24    2    3    3    0    0  0.71688450166E+02  0.64413533276E+01 -0.11675160506E+03  0.15755852198E+03  0.77543701516E+02 0.  0.
          6    2    1    2  501    0 -0.14071249051E+03 -0.69626709102E+02 -0.95628556698E+03  0.98443401115E+03  0.17314835576E+03 0.  0.
         24    2    5    5    0    0 -0.12856039812E+03  0.65180346856E+01 -0.54610757397E+03  0.56704477877E+03  0.82073369934E+02 0.  0.
          5    1    5    5  501    0 -0.12152092389E+02 -0.76144743787E+02 -0.41017799301E+03  0.41738923238E+03  0.47000000000E+01 0. -1.
        -13    1    6    6    0    0 -0.36538253859E+02 -0.30137291241E+02 -0.10885255179E+03  0.11871048121E+03  0.00000000000E+00 0.  1.
         14    1    6    6    0    0 -0.92022144259E+02  0.36655325927E+02 -0.43725502218E+03  0.44833429757E+03  0.00000000000E+00 0. -1.
         -5    1    3    3    0  503  0.69024040341E+02  0.63185355774E+02 -0.37853986991E+03  0.38996311421E+03  0.47000000000E+01 0.  1.
         11    1    4    4    0    0  0.74603193383E+02 -0.76692893577E+01 -0.12115813731E+03  0.14249122323E+03  0.00000000000E+00 0. -1.
        -12    1    4    4    0    0 -0.29147432170E+01  0.14110642685E+02  0.44065322513E+01  0.15067298746E+02  0.00000000000E+00 0.  1.
</event>
<event>
12    1  0.8562501E-002  0.1808310E+03  0.7818608E-02  0.1167748E+00
         21   -1    0    0  503  502  0.00000000000E+00  0.00000000000E+00  0.29011514337E+03  0.29011514337E+03  0.00000000000E+00 0.  1.
         21   -1    0    0  501  503 -0.00000000000E+00 -0.00000000000E+00 -0.11604294349E+03  0.11604294349E+03  0.00000000000E+00 0. -1.
          6    2    1    2  501    0  0.41810094256E+02 -0.37889337996E+02  0.12947257665E+03  0.21990828504E+03  0.16856102696E+03 0.  0.
         24    2    3    3    0    0  0.84629134965E+02 -0.58181829872E+02  0.87036496963E+02  0.15612610623E+03  0.79074606746E+02 0.  0.
         -6    2    1    2    0  502 -0.41810094256E+02  0.37889337996E+02  0.44599623226E+02  0.18624980183E+03  0.17180272516E+03 0.  0.
        -24    2    5    5    0    0  0.20862589284E+02  0.56298157685E+02 -0.42393745840E+01  0.10455471255E+03  0.85492604534E+02 0.  0.
          5    1    3    3  501    0 -0.42819040709E+02  0.20292491876E+02  0.42436079690E+02  0.63782178806E+02  0.47000000000E+01 0. -1.
        -11    1    4    4    0    0 -0.94951114750E+01 -0.29682870287E+02  0.18279552013E+02  0.36129931528E+02  0.00000000000E+00 0.  1.
         12    1    4    4    0    0  0.94124246440E+02 -0.28498959585E+02  0.68756944950E+02  0.11999617471E+03  0.00000000000E+00 0. -1.
         -5    1    5    5    0  502 -0.62672683540E+02 -0.18408819689E+02  0.48838997810E+02  0.81695089274E+02  0.47000000000E+01 0.  1.
         13    1    6    6    0    0 -0.20916543184E+02  0.29044579615E+02 -0.31526129630E+02  0.47696815756E+02  0.00000000000E+00 0. -1.
        -14    1    6    6    0    0  0.41779132467E+02  0.27253578070E+02  0.27286755046E+02  0.56857896798E+02  0.00000000000E+00 0.  1.
</event>
<event>
12    1  0.8562501E-002  0.2218479E+03  0.7818608E-02  0.1132568E+00
         21   -1    0    0  501  502  0.00000000000E+00  0.00000000000E+00  0.81005368154E+03  0.81005368154E+03  0.00000000000E+00 0. -1.
         21   -1    0    0  502  503 -0.00000000000E+00 -0.00000000000E+00 -0.76957611487E+02  0.76957611487E+02  0.00000000000E+00 0. -1.
         -6    2    1    2    0  503 -0.11362226791E+03  0.81910111171E+02  0.16235181233E+03  0.27466702042E+03  0.17165248342E+03 0.  0.
        -24    2    3    3    0    0 -0.84201187181E+02  0.45014152009E+02  0.19694815260E+02  0.12433398810E+03  0.77168264495E+02 0.  0.
          6    2    1    2  501    0  0.11362226791E+03 -0.81910111171E+02  0.57074425772E+03  0.61234427260E+03  0.17203840965E+03 0.  0.
         24    2    5    5    0    0  0.11544747225E+02 -0.66360692587E+02  0.39598714100E+03  0.40930795937E+03  0.78677614719E+02 0.  0.
          5    1    5    5  501    0  0.10207752068E+03 -0.15549418584E+02  0.17475711672E+03  0.20303631323E+03  0.47000000000E+01 0. -1.
        -11    1    6    6    0    0 -0.11167174771E+02  0.41606856860E+01  0.19050156262E+03  0.19087394390E+03  0.00000000000E+00 0.  1.
         12    1    6    6    0    0  0.22711921996E+02 -0.70521378273E+02  0.20548557838E+03  0.21843401547E+03  0.00000000000E+00 0. -1.
         -5    1    3    3    0  503 -0.29421080725E+02  0.36895959161E+02  0.14265699707E+03  0.15033303232E+03  0.47000000000E+01 0.  1.
         13    1    4    4    0    0  0.69427353872E+01  0.28840416062E+02 -0.14151627817E+00  0.29664645627E+02  0.00000000000E+00 0. -1.
        -14    1    4    4    0    0 -0.91143922568E+02  0.16173735947E+02  0.19836331538E+02  0.94669342474E+02  0.00000000000E+00 0.  1.
</event>
<event>
12    1  0.8562501E-002  0.1793167E+03  0.7818608E-02  0.1168757E+00
         21   -1    0    0  501  502  0.00000000000E+00  0.00000000000E+00  0.17730210737E+03  0.17730210737E+03  0.00000000000E+00 0.  1.
         21   -1    0    0  502  503 -0.00000000000E+00 -0.00000000000E+00 -0.21663886531E+03  0.21663886531E+03  0.00000000000E+00 0.  1.
         -6    2    1    2    0  503  0.26828702695E+02 -0.47702237271E+02 -0.10056139818E+03  0.20558957268E+03  0.17076063615E+03 0.  0.
        -24    2    3    3    0    0 -0.15510564631E+02  0.33646585473E+02 -0.40675577415E+02  0.95959987031E+02  0.78620265732E+02 0.  0.
          6    2    1    2  501    0 -0.26828702695E+02  0.47702237271E+02  0.61224640243E+02  0.18835140000E+03  0.16950666825E+03 0.  0.
         24    2    5    5    0    0  0.20442504278E+02  0.66233631915E+02  0.81780997057E+02  0.13337291874E+03  0.79343644963E+02 0.  0.
          5    1    5    5  501    0 -0.47271206973E+02 -0.18531394643E+02 -0.20556356814E+02  0.54978481259E+02  0.47000000000E+01 0. -1.
        -13    1    6    6    0    0  0.44728803328E+02  0.67565027233E+02  0.62310975063E+02  0.10221720191E+03  0.00000000000E+00 0.  1.
         14    1    6    6    0    0 -0.24286299050E+02 -0.13313953188E+01  0.19470021993E+02  0.31155716834E+02  0.00000000000E+00 0. -1.
         -5    1    3    3    0  503  0.42339267326E+02 -0.81348822745E+02 -0.59885820767E+02  0.10962958564E+03  0.47000000000E+01 0.  1.
         11    1    4    4    0    0  0.18049825480E+02  0.39750726648E+02 -0.43630237526E+02  0.61721261292E+02  0.00000000000E+00 0. -1.
        -12    1    4    4    0    0 -0.33560390110E+02 -0.61041411751E+01  0.29546601113E+01  0.34238725739E+02  0.00000000000E+00 0.  1.
</event>
<event>
12    1  0.8562501E-002  0.1831008E+03  0.7818608E-02  0.1165035E+00
         21   -1    0    0  501  502  0.00000000000E+00  0.00000000000E+00  0.29595016180E+03  0.29595016180E+03  0.00000000000E+00 0. -1.
         21   -1    0    0  502  503 -0.00000000000E+00 -0.00000000000E+00 -0.19014050170E+03  0.19014050170E+03  0.00000000000E+00 0.  1.
         -6    2    1    2    0  503  0.44961241278E+02 -0.40055011410E+02 -0.10206826793E+03  0.20962786039E+03  0.17291613973E+03 0.  0.
        -24    2    3    3    0    0  0.95342173410E+02 -0.12643159695E+02 -0.79732014112E+02  0.14789742891E+03  0.79161075574E+02 0.  0.
          6    2    1    2  501    0 -0.44961241278E+02  0.40055011410E+02  0.20787792803E+03  0.27646280310E+03  0.17202479873E+03 0.  0.
         24    2    5    5    0    0 -0.26911957985E+02 -0.11002212607E+02  0.28830818863E+02  0.89346331206E+02  0.79411892175E+02 0.  0.
          5    1    5    5  501    0 -0.18049283293E+02  0.51057224017E+02  0.17904710917E+03  0.18711647189E+03  0.47000000000E+01 0. -1.
        -11    1    6    6    0    0 -0.35693062061E+02  0.50195199249E+01  0.49837607428E+02  0.61505913323E+02  0.00000000000E+00 0.  1.
         12    1    6    6    0    0  0.87811040759E+01 -0.16021732532E+02 -0.21006788565E+02  0.27840417883E+02  0.00000000000E+00 0. -1.
         -5    1    3    3    0  503 -0.50380932131E+02 -0.27411851714E+02 -0.22336253817E+02  0.61730431486E+02  0.47000000000E+01 0.  1.
         11    1    4    4    0    0 -0.76793988517E+01  0.15798297935E+02 -0.90142645142E+01  0.19743767348E+02  0.00000000000E+00 0. -1.
        -12    1    4    4    0    0  0.10302157226E+03 -0.28441457630E+02 -0.70717749598E+02  0.12815366156E+03  0.00000000000E+00 0.  1.
</event>
<event>
12    1  0.8562501E-002  0.1959651E+03  0.7818608E-02  0.1153599E+00
         21   -1    0    0  501  502  0.00000000000E+00  0.00000000000E+00  0.94822200390E+02  0.94822200390E+02  0.00000000000E+00 0.  1.
         21   -1    0    0  502  503 -0.00000000000E+00 -0.00000000000E+00 -0.40489957701E+03  0.40489957701E+03  0.00000000000E+00 0.  1.
         -6    2    1    2    0  503 -0.97676939167E+02  0.81899541000E+01 -0.13159615691E+03  0.23605056001E+03  0.16968930011E+03 0.  0.
        -24    2    3    3    0    0 -0.11480978581E+03 -0.51286291735E+00 -0.15255082168E+03  0.20723283224E+03  0.80573839538E+02 0.  0.
          6    2    1    2  501    0  0.97676939167E+02 -0.81899541000E+01 -0.17848121970E+03  0.26367121739E+03  0.16750852307E+03 0.  0.
         24    2    5    5    0    0  0.94205654802E+02  0.48573932463E+02 -0.95108045149E+02  0.16263971306E+03  0.78562100909E+02 0.  0.
          5    1    5    5  501    0  0.34712843644E+01 -0.56763886563E+02 -0.83373174554E+02  0.10103150433E+03  0.47000000000E+01 0. -1.
        -13    1    6    6    0    0  0.16727965752E+02  0.56086047831E+01 -0.67614016114E+02  0.69878011284E+02  0.00000000000E+00 0.  1.
         14    1    6    6    0    0  0.77477689050E+02  0.42965327680E+02 -0.27494029035E+02  0.92761701773E+02  0.00000000000E+00 0. -1.
         -5    1    3    3    0  503  0.17132846647E+02  0.87028170173E+01  0.20954664762E+02  0.28817727766E+02  0.47000000000E+01 0.  1.
         11    1    4    4    0    0 -0.12312326742E+01  0.22957368828E+01 -0.61717987813E+02  0.61772941984E+02  0.00000000000E+00 0. -1.
        -12    1    4    4    0    0 -0.11357855314E+03 -0.28085998001E+01 -0.90832833864E+02  0.14545989026E+03  0.00000000000E+00 0.  1.
</event>
<event>
12    1  0.8562501E-002  0.1985236E+03  0.7818608E-02  0.1151025E+00
         21   -1    0    0  501  502  0.00000000000E+00  0.00000000000E+00  0.17808051203E+04  0.17808051203E+04  0.00000000000E+00 0. -1.
         21   -1    0    0  502  503 -0.00000000000E+00 -0.00000000000E+00 -0.27003310437E+02  0.27003310437E+02  0.00000000000E+00 0. -1.
         -6    2    1    2    0  503 -0.76451980598E+02 -0.61567409143E+02  0.49254594991E+03  0.53104907894E+03  0.17255770128E+03 0.  0.
        -24    2    3    3    0    0  0.22466149195E+02 -0.30063516677E+02  0.16554323837E+03  0.18793079759E+03  0.80652824004E+02 0.  0.
          6    2    1    2  501    0  0.76451980598E+02  0.61567409143E+02  0.12612558600E+04  0.12767593518E+04  0.17237356792E+03 0.  0.
         24    2    5    5    0    0  0.44994230238E+02  0.47557099968E+01  0.32622979075E+03  0.33946910896E+03  0.82257534812E+02 0.  0.
          5    1    5    5  501    0  0.31457750361E+02  0.56811699146E+02  0.93502606921E+03  0.93729024284E+03  0.47000000000E+01 0. -1.
        -13    1    6    6    0    0 -0.11936419280E+02  0.26464588662E+02  0.64367083173E+02  0.70611429347E+02  0.00000000000E+00 0.  1.
         14    1    6    6    0    0  0.56930649518E+02 -0.21708878665E+02  0.26186270758E+03  0.26885767961E+03  0.00000000000E+00 0. -1.
         -5    1    3    3    0  503 -0.98918129794E+02 -0.31503892466E+02  0.32700271154E+03  0.34311828135E+03  0.47000000000E+01 0.  1.
         11    1    4    4    0    0 -0.56267016506E+01 -0.38173249448E+02  0.28938338835E+02  0.48231568494E+02  0.00000000000E+00 0. -1.
        -12    1    4    4    0    0  0.28092850846E+02  0.81097327712E+01  0.13660489953E+03  0.13969922910E+03  0.00000000000E+00 0.  1.
</event>
<event>
12    1  0.8562501E-002  0.2232119E+03  0.7818608E-02  0.1134942E+00
         21   -1    0    0  501  502  0.00000000000E+00  0.00000000000E+00  0.34646475554E+03  0.34646475554E+03  0.00000000000E+00 0. -1.
         21   -1    0    0  502  503 -0.00000000000E+00 -0.00000000000E+00 -0.26633947779E+03  0.26633947779E+03  0.00000000000E+00 0.  1.
         -6    2    1    2    0  503  0.78176163497E+02 -0.79138771708E+02 -0.17622781534E+03  0.28439369969E+03  0.19351763692E+03 0.  0.
        -24    2    3    3    0    0 -0.23418526629E+02 -0.37448414755E+02 -0.20732909510E+02  0.93972265330E+02  0.80312651290E+02 0.  0.
          6    2    1    2  501    0 -0.78176163497E+02  0.79138771708E+02  0.25635309309E+03  0.32841053364E+03  0.17251699203E+03 0.  0.
         24    2    5    5    0    0  0.14301656121E+02  0.69470337768E+02  0.17584187735E+03  0.20532612521E+03  0.78789508617E+02 0.  0.
          5    1    5    5  501    0 -0.92477819618E+02  0.96684339401E+01  0.80511215747E+02  0.12308440842E+03  0.47000000000E+01 0. -1.
        -11    1    6    6    0    0  0.29166092393E+02 -0.37937306935E+01  0.33739487411E+02  0.44759427485E+02  0.00000000000E+00 0.  1.
         12    1    6    6    0    0 -0.14864436272E+02  0.73264068461E+02  0.14210238994E+03  0.16056669773E+03  0.00000000000E+00 0. -1.
         -5    1    3    3    0  503  0.10159469013E+03 -0.41690356953E+02 -0.15549490583E+03  0.19042143436E+03  0.47000000000E+01 0.  1.
         11    1    4    4    0    0 -0.32702240719E+02  0.16269395346E+02 -0.13681322476E+02  0.39003953103E+02  0.00000000000E+00 0. -1.
        -12    1    4    4    0    0  0.92837140896E+01 -0.53717810101E+02 -0.70515870345E+01  0.54968312227E+02  0.00000000000E+00 0.  1.
</event>
<event>
12    1  0.8562501E-002  0.2322013E+03  0.7818608E-02  0.1125291E+00
         21   -1    0    0  503  502  0.00000000000E+00  0.00000000000E+00  0.44480619812E+02  0.44480619812E+02  0.00000000000E+00 0. -1.
         21   -1    0    0  501  503 -0.00000000000E+00 -0.00000000000E+00 -0.19779364445E+04  0.19779364445E+04  0.00000000000E+00 0. -1.
          6    2    1    2  501    0  0.12719092415E+03  0.86877037728E+02 -0.15996740417E+04  0.16164388323E+04  0.17375933867E+03 0.  0.
         24    2    3    3    0    0  0.14613821502E+03  0.91948469325E+02 -0.15630946820E+04  0.15746673251E+04  0.80630645698E+02 0.  0.
         -6    2    1    2    0  502 -0.12719092415E+03 -0.86877037728E+02 -0.33378178300E+03  0.40597823209E+03  0.17228724678E+03 0.  0.
        -24    2    5    5    0    0 -0.89754513036E+02 -0.20605114709E+01 -0.26411907936E+03  0.28991656624E+03  0.78946874414E+02 0.  0.
          5    1    3    3  501    0 -0.18947290877E+02 -0.50714315979E+01 -0.36579359764E+02  0.41771507164E+02  0.47000000000E+01 0. -1.
        -11    1    4    4    0    0  0.18160677625E+02 -0.13841493808E+02 -0.26824603524E+03  0.26921614474E+03  0.00000000000E+00 0.  1.
         12    1    4    4    0    0  0.12797753740E+03  0.10578996313E+03 -0.12948486467E+04  0.13054511804E+04  0.00000000000E+00 0. -1.
         -5    1    5    5    0  502 -0.37436411109E+02 -0.84816526257E+02 -0.69662703636E+02  0.11606166585E+03  0.47000000000E+01 0.  1.
         13    1    6    6    0    0 -0.59164428085E+02 -0.38012402693E+02 -0.13110462835E+03  0.14877431191E+03  0.00000000000E+00 0. -1.
        -14    1    6    6    0    0 -0.30590084952E+02  0.35951891222E+02 -0.13301445101E+03  0.14114225433E+03  0.00000000000E+00 0.  1.
</event>
<event>
12    1  0.8562501E-002  0.2150782E+03  0.7818608E-02  0.1137639E+00
         21   -1    0    0  503  502  0.00000000000E+00  0.00000000000E+00  0.31330713763E+04  0.31330713763E+04  0.00000000000E+00 0. -1.
         21   -1    0    0  501  503 -0.00000000000E+00 -0.00000000000E+00 -0.64806541712E+02  0.64806541712E+02  0.00000000000E+00 0. -1.
          6    2    1    2  501    0 -0.86058383017E+02  0.94942169249E+02  0.12906452868E+03  0.25083115072E+03  0.17273839416E+03 0.  0.
         24    2    3    3    0    0  0.17718587639E+02  0.68686920860E+02  0.52149244836E+02  0.11893327888E+03  0.79960863197E+02 0.  0.
         -6    2    1    2    0  502  0.86058383017E+02 -0.94942169249E+02  0.29392003059E+04  0.29470467673E+04  0.17252869201E+03 0.  0.
        -24    2    5    5    0    0  0.19016419035E+02 -0.48433774840E+01  0.19077139408E+04  0.19094540588E+04  0.79102720762E+02 0.  0.
          5    1    3    3  501    0 -0.10377697066E+03  0.26255248389E+02  0.76915283840E+02  0.13189787184E+03  0.47000000000E+01 0. -1.
        -11    1    4    4    0    0 -0.13583694266E+02  0.23234696994E+02  0.57499148793E+02  0.63486376540E+02  0.00000000000E+00 0.  1.
         12    1    4    4    0    0  0.31302281905E+02  0.45452223866E+02 -0.53499039566E+01  0.55446902341E+02  0.00000000000E+00 0. -1.
         -5    1    5    5    0  502  0.67041963982E+02 -0.90098791765E+02  0.10314863652E+04  0.10375927085E+04  0.47000000000E+01 0.  1.
         11    1    6    6    0    0  0.33400909199E+02 -0.30707220586E+02  0.75621259462E+03  0.75757246676E+03  0.00000000000E+00 0. -1.
        -12    1    6    6    0    0 -0.14384490163E+02  0.25863843102E+02  0.11515013461E+04  0.11518815920E+04  0.00000000000E+00 0.  1.
</event>
<event>
12    1  0.8562501E-002  0.1990228E+03  0.7818608E-02  0.1151933E+00
         21   -1    0    0  501  502  0.00000000000E+00  0.00000000000E+00  0.13781231117E+03  0.13781231117E+03  0.00000000000E+00 0. -1.
         21   -1    0    0  502  503 -0.00000000000E+00 -0.00000000000E+00 -0.34855694640E+03  0.34855694640E+03  0.00000000000E+00 0. -1.
         -6    2    1    2    0  503  0.99375873830E+02  0.14154494793E+02 -0.21586006265E+03  0.29360795655E+03  0.17185503042E+03 0.  0.
        -24    2    3    3    0    0 -0.58413594100E+01  0.37994624694E+02 -0.10017138113E+03  0.13535190138E+03  0.82511324227E+02 0.  0.
          6    2    1    2  501    0 -0.99375873830E+02 -0.14154494793E+02  0.51154274229E+01  0.19276130103E+03  0.16448354797E+03 0.  0.
         24    2    5    5    0    0 -0.67922370355E-01  0.16120489102E+02 -0.21470976703E+02  0.85487955050E+02  0.81162262386E+02 0.  0.
          5    1    5    5  501    0 -0.99307951460E+02 -0.30274983894E+02  0.26586404126E+02  0.10727334598E+03  0.47000000000E+01 0. -1.
        -11    1    6    6    0    0 -0.22623598327E+01  0.23399272797E+02 -0.50380617506E+02  0.55595421212E+02  0.00000000000E+00 0.  1.
         12    1    6    6    0    0  0.21944374624E+01 -0.72787836954E+01  0.28909640803E+02  0.29892533837E+02  0.00000000000E+00 0. -1.
         -5    1    3    3    0  503  0.10521723324E+03 -0.23840129901E+02 -0.11568868153E+03  0.15825605517E+03  0.47000000000E+01 0.  1.
         13    1    4    4    0    0  0.19798960505E+02 -0.11560227896E+02 -0.66130952356E+02  0.69992432203E+02  0.00000000000E+00 0. -1.
        -14    1    4    4    0    0 -0.25640319915E+02  0.49554852590E+02 -0.34040428770E+02  0.65359469179E+02  0.00000000000E+00 0.  1.
</event>
<event>
12    1  0.8562501E-002  0.1787948E+03  0.7818608E-02  0.1169043E+00
         21   -1    0    0  501  502  0.00000000000E+00  0.00000000000E+00  0.54296657379E+02  0.54296657379E+02  0.00000000000E+00 0. -1.
         21   -1    0    0  502  503 -0.00000000000E+00 -0.00000000000E+00 -0.63513287465E+03  0.63513287465E+03  0.00000000000E+00 0. -1.
         -6    2    1    2    0  503  0.38493653008E+02  0.25034765518E+02 -0.19613570701E+03  0.26521018995E+03  0.17250718385E+03 0.  0.
        -24    2    3    3    0    0  0.49134652145E+02 -0.45521611521E+02 -0.14104483608E+03  0.17494099663E+03  0.78894076823E+02 0.  0.
          6    2    1    2  501    0 -0.38493653008E+02 -0.25034765518E+02 -0.38470051026E+03  0.42421934208E+03  0.17279776270E+03 0.  0.
         24    2    5    5    0    0 -0.43075760590E+02  0.32598628363E+02 -0.32854560857E+03  0.34348479691E+03  0.84388370501E+02 0.  0.
          5    1    5    5  501    0  0.45821075811E+01 -0.57633393881E+02 -0.56154901686E+02  0.80734545168E+02  0.47000000000E+01 0. -1.
        -13    1    6    6    0    0  0.10819029411E+01  0.85138949439E+01  0.22617227874E+01  0.88753766713E+01  0.00000000000E+00 0.  1.
         14    1    6    6    0    0 -0.44157663531E+02  0.24084733419E+02 -0.33080733136E+03  0.33460942024E+03  0.00000000000E+00 0. -1.
         -5    1    3    3    0  503 -0.10640999137E+02  0.70556377039E+02 -0.55090870931E+02  0.90269193324E+02  0.47000000000E+01 0.  1.
         11    1    4    4    0    0  0.88185650286E+01 -0.38123073317E+02 -0.14181669193E+02  0.41620374210E+02  0.00000000000E+00 0. -1.
        -12    1    4    4    0    0  0.40316087117E+02 -0.73985382045E+01 -0.12686316689E+03  0.13332062242E+03  0.00000000000E+00 0.  1.
</event>
<event>
12    1  0.8562501E-002  0.1825996E+03  0.7818608E-02  0.1165604E+00
         21   -1    0    0  503  502  0.00000000000E+00  0.00000000000E+00  0.20420267191E+03  0.20420267191E+03  0.00000000000E+00 0.  1.
         21   -1    0    0  501  503 -0.00000000000E+00 -0.00000000000E+00 -0.16323746207E+03  0.16323746207E+03  0.00000000000E+00 0.  1.
          6    2    1    2  501    0 -0.29988053764E+02  0.53319629254E+02  0.57874361130E+01  0.18269134153E+03  0.17204756790E+03 0.  0.
         24    2    3    3    0    0 -0.44055768849E+02  0.96615062483E+02  0.19828981508E+02  0.13482015872E+03  0.80671591180E+02 0.  0.
         -6    2    1    2    0  502  0.29988053764E+02 -0.53319629254E+02  0.35177773726E+02  0.18474879244E+03  0.17074066391E+03 0.  0.
        -24    2    5    5    0    0 -0.28253286080E+02  0.11769542018E+02  0.42888837151E+02  0.96941022953E+02  0.81371612282E+02 0.  0.
          5    1    3    3  501    0  0.14067715085E+02 -0.43295433229E+02 -0.14041545395E+02  0.47871182806E+02  0.47000000000E+01 0. -1.
        -11    1    4    4    0    0 -0.19918875988E+02  0.78453835835E+02 -0.21386715960E+02  0.83720711878E+02  0.00000000000E+00 0.  1.
         12    1    4    4    0    0 -0.24136892861E+02  0.18161226648E+02  0.41215697468E+02  0.51099446847E+02  0.00000000000E+00 0. -1.
         -5    1    5    5    0  502  0.58241339844E+02 -0.65089171272E+02 -0.77110634243E+01  0.87807769490E+02  0.47000000000E+01 0.  1.
         11    1    6    6    0    0  0.96629619039E+01  0.34440846030E+02  0.38489765778E+02  0.52545283116E+02  0.00000000000E+00 0. -1.
        -12    1    6    6    0    0 -0.37916247984E+02 -0.22671304012E+02  0.43990713720E+01  0.44395739837E+02  0.00000000000E+00 0.  1.
</event>
<event>
12    1  0.8562501E-002  0.2584419E+03  0.7818608E-02  0.1108167E+00
         21   -1    0    0  503  502  0.00000000000E+00  0.00000000000E+00  0.27829523275E+03  0.27829523275E+03  0.00000000000E+00 0. -1.
         21   -1    0    0  501  503 -0.00000000000E+00 -0.00000000000E+00 -0.48501573041E+03  0.48501573041E+03  0.00000000000E+00 0. -1.
          6    2    1    2  501    0  0.19008266930E+03  0.30784999279E+02 -0.37495913305E+03  0.45539714403E+03  0.17237479510E+03 0.  0.
         24    2    3    3    0    0  0.21187490933E+03  0.15004636624E+02 -0.29267146263E+03  0.36869493948E+03  0.71855807254E+02 0.  0.
         -6    2    1    2    0  502 -0.19008266930E+03 -0.30784999279E+02  0.16823863539E+03  0.30791381913E+03  0.17154458378E+03 0.  0.
        -24    2    5    5    0    0 -0.28822444749E+02  0.13281951547E+02  0.84374475026E+02  0.12082548820E+03  0.80452489110E+02 0.  0.
          5    1    3    3  501    0 -0.21792240030E+02  0.15780362655E+02 -0.82287670418E+02  0.86702204551E+02  0.47000000000E+01 0. -1.
        -11    1    4    4    0    0  0.20965276077E+02  0.92008774692E+01 -0.50717013621E+01  0.23450396625E+02  0.00000000000E+00 0.  1.
         12    1    4    4    0    0  0.19090963325E+03  0.58037591543E+01 -0.28759976127E+03  0.34524454286E+03  0.00000000000E+00 0. -1.
         -5    1    5    5    0  502 -0.16126022455E+03 -0.44066950826E+02  0.83864160367E+02  0.18708833093E+03  0.47000000000E+01 0.  1.
         11    1    6    6    0    0 -0.44719531188E+02  0.12880367869E+02  0.92067020629E+02  0.10316044122E+03  0.00000000000E+00 0. -1.
        -12    1    6    6    0    0  0.15897086439E+02  0.40158367799E+00 -0.76925456029E+01  0.17665046973E+02  0.00000000000E+00 0.  1.
</event>
<event>
12    1  0.8562501E-002  0.2590740E+03  0.7818608E-02  0.1108531E+00
         21   -1    0    0  503  502  0.00000000000E+00  0.00000000000E+00  0.16608740533E+03  0.16608740533E+03  0.00000000000E+00 0.  1.
         21   -1    0    0  501  503 -0.00000000000E+00 -0.00000000000E+00 -0.48530692122E+03  0.48530692122E+03  0.00000000000E+00 0. -1.
          6    2    1    2  501    0  0.36895903249E+02  0.18796609379E+03 -0.30095468376E+03  0.39710585957E+03  0.17443274331E+03 0.  0.
         24    2    3    3    0    0  0.34177121878E+02  0.12580555723E+03 -0.90491469057E+02  0.17758779922E+03  0.79709513680E+02 0.  0.
         -6    2    1    2    0  502 -0.36895903249E+02 -0.18796609379E+03 -0.18264832142E+02  0.25428846698E+03  0.16624217351E+03 0.  0.
        -24    2    5    5    0    0  0.10677753956E+02 -0.62802923190E+02 -0.52813325545E+02  0.11592387421E+03  0.81184208231E+02 0.  0.
          5    1    3    3  501    0  0.27187813705E+01  0.62160536562E+02 -0.21046321470E+03  0.21951806035E+03  0.47000000000E+01 0. -1.
        -11    1    4    4    0    0  0.11358852127E+02  0.76670386568E+02 -0.95715085579E+02  0.12316147655E+03  0.00000000000E+00 0.  1.
         12    1    4    4    0    0  0.22818269751E+02  0.49135170662E+02  0.52236165215E+01  0.54426322676E+02  0.00000000000E+00 0. -1.
         -5    1    5    5    0  502 -0.47573657205E+02 -0.12516317060E+03  0.34548493403E+02  0.13836459277E+03  0.47000000000E+01 0.  1.
         11    1    6    6    0    0  0.97990546900E+01  0.75269287930E+01  0.14166759686E+02  0.18798223583E+02  0.00000000000E+00 0. -1.
        -12    1    6    6    0    0  0.87869926643E+00 -0.70329851983E+02 -0.66980085230E+02  0.97125650627E+02  0.00000000000E+00 0.  1.
</event>
<event>
12    1  0.8562501E-002  0.2434049E+03  0.7818608E-02  0.1117598E+00
         21   -1    0    0  503  502  0.00000000000E+00  0.00000000000E+00  0.40206592363E+03  0.40206592363E+03  0.00000000000E+00 0. -1.
         21   -1    0    0  501  503 -0.00000000000E+00 -0.00000000000E+00 -0.25910397023E+03  0.25910397023E+03  0.00000000000E+00 0. -1.
          6    2    1    2  501    0 -0.92402989125E+02  0.14524940693E+03  0.28880456128E+03  0.37769564490E+03  0.17207621262E+03 0.  0.
         24    2    3    3    0    0 -0.28931811549E+01  0.11149401794E+03  0.10350470597E+03  0.16910619554E+03  0.73786141496E+02 0.  0.
         -6    2    1    2    0  502  0.92402989125E+02 -0.14524940693E+03 -0.14584260788E+03  0.28347424897E+03  0.17161550322E+03 0.  0.
        -24    2    5    5    0    0  0.63857400641E+02 -0.16946795307E+03 -0.91901145153E+02  0.21764750668E+03  0.78278106462E+02 0.  0.
          5    1    3    3  501    0 -0.89509807970E+02  0.33755388982E+02  0.18529985531E+03  0.20858944936E+03  0.47000000000E+01 0. -1.
        -13    1    4    4    0    0 -0.86987160470E+01 -0.44658579271E+01 -0.42884173141E+01  0.10677175233E+02  0.00000000000E+00 0.  1.
         14    1    4    4    0    0  0.58055348921E+01  0.11595987587E+03  0.10779312329E+03  0.15842902031E+03  0.00000000000E+00 0. -1.
         -5    1    5    5    0  502  0.28545588484E+02  0.24218546141E+02 -0.53941462726E+02  0.65826742286E+02  0.47000000000E+01 0.  1.
         13    1    6    6    0    0  0.19513323516E+01 -0.71102889528E+02 -0.27743456458E+01  0.71183745272E+02  0.00000000000E+00 0. -1.
        -14    1    6    6    0    0  0.61906068289E+02 -0.98365063539E+02 -0.89126799508E+02  0.14646376141E+03  0.00000000000E+00 0.  1.
</event>
<event>
12    1  0.8562501E-002  0.2913723E+03  0.7818608E-02  0.1090154E+00
         21   -1    0    0  503  502  0.00000000000E+00  0.00000000000E+00  0.55917734967E+03  0.55917734967E+03  0.00000000000E+00 0.  1.
         21   -1    0    0  501  503 -0.00000000000E+00 -0.00000000000E+00 -0.24048804450E+03  0.24048804450E+03  0.00000000000E+00 0. -1.
          6    2    1    2  501    0  0.19366409630E+02  0.23484804208E+03 -0.85551391950E+02  0.30367225721E+03  0.17137426423E+03 0.  0.
         24    2    3    3    0    0 -0.14836330424E+02  0.19919607227E+03 -0.21350777294E+02  0.22252609709E+03  0.95722600724E+02 0.  0.
         -6    2    1    2    0  502 -0.19366409630E+02 -0.23484804208E+03  0.40424069712E+03  0.49599313696E+03  0.16452960223E+03 0.  0.
        -24    2    5    5    0    0  0.47708272334E+02 -0.12815016965E+03  0.19580208726E+03  0.25237008177E+03  0.81569942771E+02 0.  0.
          5    1    3    3  501    0  0.34202740054E+02  0.35651969818E+02 -0.64200614656E+02  0.81146160115E+02  0.47000000000E+01 0. -1.
        -11    1    4    4    0    0  0.38969919546E+02  0.71860479735E+02  0.45916036163E+01  0.81875918321E+02  0.00000000000E+00 0.  1.
         12    1    4    4    0    0 -0.53806249970E+02  0.12733559253E+03 -0.25942380910E+02  0.14065017877E+03  0.00000000000E+00 0. -1.
         -5    1    5    5    0  502 -0.67074681964E+02 -0.10669787244E+03  0.20843860986E+03  0.24362305520E+03  0.47000000000E+01 0.  1.
         11    1    6    6    0    0 -0.19380362755E+02 -0.44733651178E+02  0.87050744056E+02  0.99772391216E+02  0.00000000000E+00 0. -1.
        -12    1    6    6    0    0  0.67088635089E+02 -0.83416518468E+02  0.10875134321E+03  0.15259769055E+03  0.00000000000E+00 0.  1.
</event>
<event>
12    1  0.8562501E-002  0.2089593E+03  0.7818608E-02  0.1142738E+00
         21   -1    0    0  501  502  0.00000000000E+00  0.00000000000E+00  0.57516672277E+02  0.57516672277E+02  0.00000000000E+00 0.  1.
         21   -1    0    0  502  503 -0.00000000000E+00 -0.00000000000E+00 -0.95528815476E+03  0.95528815476E+03  0.00000000000E+00 0.  1.
         -6    2    1    2    0  503  0.15822816700E+02 -0.11543786261E+03 -0.68343400358E+03  0.71466498873E+03  0.17345820022E+03 0.  0.
        -24    2    3    3    0    0  0.22302210323E+02 -0.22952716225E+02 -0.12623167012E+03  0.14978268661E+03  0.74001370925E+02 0.  0.
          6    2    1    2  501    0 -0.15822816700E+02  0.11543786261E+03 -0.21433747890E+03  0.29813983830E+03  0.17137837281E+03 0.  0.
         24    2    5    5    0    0 -0.39704822710E+02  0.59423246260E+02 -0.21121444001E+03  0.23698568204E+03  0.80268790203E+02 0.  0.
          5    1    5    5  501    0  0.23882006010E+02  0.56014616352E+02 -0.31230388942E+01  0.61154156262E+02  0.47000000000E+01 0. -1.
        -11    1    6    6    0    0  0.20361404356E+02  0.10634790296E+02 -0.92252373693E+02  0.95069374690E+02  0.00000000000E+00 0.  1.
         12    1    6    6    0    0 -0.60066227066E+02  0.48788455965E+02 -0.11896206631E+03  0.14191630735E+03  0.00000000000E+00 0. -1.
         -5    1    3    3    0  503 -0.64793936231E+01 -0.92485146388E+02 -0.55720233346E+03  0.56488230213E+03  0.47000000000E+01 0.  1.
         11    1    4    4    0    0 -0.16828157461E+02 -0.11267452711E+02 -0.36510717493E+01  0.20578452300E+02  0.00000000000E+00 0. -1.
        -12    1    4    4    0    0  0.39130367784E+02 -0.11685263514E+02 -0.12258059837E+03  0.12920423431E+03  0.00000000000E+00 0.  1.
</event>
<event>
12    1  0.8562501E-002  0.1915186E+03  0.7818608E-02  0.1157316E+00
         21   -1    0    0  501  502  0.00000000000E+00  0.00000000000E+00  0.24013089168E+03  0.24013089168E+03  0.00000000000E+00 0. -1.
         21   -1    0    0  502  503 -0.00000000000E+00 -0.00000000000E+00 -0.31212036328E+03  0.31212036328E+03  0.00000000000E+00 0.  1.
         -6    2    1    2    0  503  0.82213104757E+02 -0.16213169127E+02 -0.23382915117E+03  0.30225066191E+03  0.17221361515E+03 0.  0.
        -24    2    3    3    0    0  0.27882476625E+02 -0.14378663472E+01 -0.23073959660E+03  0.24566654689E+03  0.79572550917E+02 0.  0.
          6    2    1    2  501    0 -0.82213104757E+02  0.16213169127E+02  0.16183967957E+03  0.25000059305E+03  0.17113256030E+03 0.  0.
         24    2    5    5    0    0 -0.20342239902E+02  0.69392393424E+02  0.71201675584E+02  0.12796219097E+03  0.77945703684E+02 0.  0.
          5    1    5    5  501    0 -0.61870864854E+02 -0.53179224297E+02  0.90638003990E+02  0.12203840208E+03  0.47000000000E+01 0. -1.
        -13    1    6    6    0    0 -0.35623613688E+02  0.45184001252E+02  0.79517074976E+02  0.98150909492E+02  0.00000000000E+00 0.  1.
         14    1    6    6    0    0  0.15281373786E+02  0.24208392172E+02 -0.83153993924E+01  0.29811281479E+02  0.00000000000E+00 0. -1.
         -5    1    3    3    0  503  0.54330628131E+02 -0.14775302780E+02 -0.30895545719E+01  0.56584115022E+02  0.47000000000E+01 0.  1.
         11    1    4    4    0    0  0.51601703145E+02  0.12176438296E+02 -0.11340202079E+03  0.12518394360E+03  0.00000000000E+00 0. -1.
        -12    1    4    4    0    0 -0.23719226520E+02 -0.13614304643E+02 -0.11733757581E+03  0.12048260328E+03  0.00000000000E+00 0.  1.
</event>
<event>
12    1  0.8562501E-002  0.1794973E+03  0.7818608E-02  0.1168508E+00
         21   -1    0    0  501  502  0.00000000000E+00  0.00000000000E+00  0.14788653107E+03  0.14788653107E+03  0.00000000000E+00 0.  1.
         21   -1    0    0  502  503 -0.00000000000E+00 -0.00000000000E+00 -0.28986137038E+03  0.28986137038E+03  0.00000000000E+00 0.  1.
         -6    2    1    2    0  503 -0.20149947739E+02  0.46230722115E+02 -0.18075536186E+03  0.25410906275E+03  0.17133480344E+03 0.  0.
        -24    2    3    3    0    0 -0.43482322109E+02 -0.15350879246E+02 -0.46646037903E+02  0.10462965249E+03  0.81517786394E+02 0.  0.
          6    2    1    2  501    0  0.20149947739E+02 -0.46230722115E+02  0.38780522549E+02  0.18363883870E+03  0.17226721710E+03 0.  0.
         24    2    5    5    0    0  0.60825268843E+02  0.13567153359E+02  0.42234565070E+02  0.11108342492E+03  0.81682236904E+02 0.  0.
          5    1    5    5  501    0 -0.40675321104E+02 -0.59797875474E+02 -0.34540425213E+01  0.72555413773E+02  0.47000000000E+01 0. -1.
        -13    1    6    6    0    0  0.12499730676E+02 -0.20574086924E+02 -0.15323701852E+02  0.28536856137E+02  0.00000000000E+00 0.  1.
         14    1    6    6    0    0  0.48325538167E+02  0.34141240283E+02  0.57558266922E+02  0.82546568785E+02  0.00000000000E+00 0. -1.
         -5    1    3    3    0  503  0.23332374370E+02  0.61581601362E+02 -0.13410932396E+03  0.14947941026E+03  0.47000000000E+01 0.  1.
         11    1    4    4    0    0 -0.26407415846E+02  0.32395566345E+02 -0.12982358420E+02  0.43764894158E+02  0.00000000000E+00 0. -1.
        -12    1    4    4    0    0 -0.17074906263E+02 -0.47746445592E+02 -0.33663679483E+02  0.60864758332E+02  0.00000000000E+00 0.  1.
</event>
<event>
12    1  0.8562501E-002  0.2586972E+03  0.7818608E-02  0.1108061E+00
         21   -1    0    0  501  502  0.00000000000E+00  0.00000000000E+00  0.14660266178E+03  0.14660266178E+03  0.00000000000E+00 0.  1.
         21   -1    0    0  502  503 -0.00000000000E+00 -0.00000000000E+00 -0.57022463491E+03  0.57022463491E+03  0.00000000000E+00 0. -1.
         -6    2    1    2    0  503 -0.26395747142E+02  0.19116362393E+03 -0.37324119874E+03  0.45412908488E+03  0.17229035583E+03 0.  0.
        -24    2    3    3    0    0 -0.19196112190E+02  0.14541495599E+03 -0.37196817240E+03  0.40756207984E+03  0.78946358389E+02 0.  0.
          6    2    1    2  501    0  0.26395747142E+02 -0.19116362393E+03 -0.50380774388E+02  0.26269821180E+03  0.17097327708E+03 0.  0.
         24    2    5    5    0    0  0.73474843913E+02 -0.13519088601E+03  0.35091072227E+01  0.17172789751E+03  0.76177612208E+02 0.  0.
          5    1    5    5  501    0 -0.47079096771E+02 -0.55972737920E+02 -0.53889881611E+02  0.90970314295E+02  0.47000000000E+01 0. -1.
        -13    1    6    6    0    0  0.61108869777E+02 -0.11998312804E+03 -0.25179519251E+02  0.13698267471E+03  0.00000000000E+00 0.  1.
         14    1    6    6    0    0  0.12365974136E+02 -0.15207757968E+02  0.28688626473E+02  0.34745222803E+02  0.00000000000E+00 0. -1.
         -5    1    3    3    0  503 -0.71996349521E+01  0.45748667940E+02 -0.12730263472E+01  0.46567005034E+02  0.47000000000E+01 0.  1.
         11    1    4    4    0    0 -0.19078946231E+02  0.13878411709E+03 -0.25950192216E+03  0.29490046618E+03  0.00000000000E+00 0. -1.
        -12    1    4    4    0    0 -0.11716595913E+00  0.66308388980E+01 -0.11246625023E+03  0.11266161367E+03  0.00000000000E+00 0.  1.
</event>
<event>
12    1  0.8562501E-002  0.1749241E+03  0.7818608E-02  0.1173135E+00
         21   -1    0    0  501  502  0.00000000000E+00  0.00000000000E+00  0.36942321758E+03  0.36942321758E+03  0.00000000000E+00 0. -1.
         21   -1    0    0  502  503 -0.00000000000E+00 -0.00000000000E+00 -0.82415842121E+02  0.82415842121E+02  0.00000000000E+00 0. -1.
         -6    2    1    2    0  503  0.11204110314E+02 -0.28458329049E+02  0.15519625462E+03  0.23384675730E+03  0.17222955574E+03 0.  0.
        -24    2    3    3    0    0  0.35039148522E+02  0.13308596394E+02  0.13003869406E+02  0.83669030852E+02  0.73665089677E+02 0.  0.
          6    2    1    2  501    0 -0.11204110314E+02  0.28458329049E+02  0.13181112084E+03  0.21799230240E+03  0.17091244469E+03 0.  0.
         24    2    5    5    0    0  0.18807362022E+02 -0.39012903865E+02  0.10516943962E+03  0.13934800877E+03  0.80507968448E+02 0.  0.
          5    1    5    5  501    0 -0.30011472337E+02  0.67471232914E+02  0.26641681215E+02  0.78644293631E+02  0.47000000000E+01 0. -1.
        -13    1    6    6    0    0  0.32269195651E+02 -0.28177560754E+02  0.11859478294E+02  0.44451357048E+02  0.00000000000E+00 0.  1.
         14    1    6    6    0    0 -0.13461833629E+02 -0.10835343111E+02  0.93309961330E+02  0.94896651724E+02  0.00000000000E+00 0. -1.
         -5    1    3    3    0  503 -0.23835038208E+02 -0.41766925443E+02  0.14219238522E+03  0.15017772645E+03  0.47000000000E+01 0.  1.
         13    1    4    4    0    0 -0.18899472831E+02  0.96463320067E+01 -0.11698452872E+02  0.24230055593E+02  0.00000000000E+00 0. -1.
        -14    1    4    4    0    0  0.53938621353E+02  0.36622643873E+01  0.24702322278E+02  0.59438975259E+02  0.00000000000E+00 0.  1.
</event>
<event>
12    1  0.8562501E-002  0.1927240E+03  0.7818608E-02  0.1156090E+00
         21   -1    0    0  503  502  0.00000000000E+00  0.00000000000E+00  0.42705863926E+03  0.42705863926E+03  0.00000000000E+00 0. -1.
         21   -1    0    0  501  503 -0.00000000000E+00 -0.00000000000E+00 -0.12751977252E+03  0.12751977252E+03  0.00000000000E+00 0. -1.
          6    2    1    2  501    0  0.84627712073E+02 -0.16729814633E+02 -0.69103496635E+01  0.19256507456E+03  0.17202272716E+03 0.  0.
         24    2    3    3    0    0  0.21068412147E+01  0.14445334597E+01  0.52579698747E+02  0.89118678222E+02  0.71909586502E+02 0.  0.
         -6    2    1    2    0  502 -0.84627712073E+02  0.16729814633E+02  0.30644921641E+03  0.36201333722E+03  0.17233919385E+03 0.  0.
        -24    2    5    5    0    0 -0.17457872384E+02 -0.42779663071E+01  0.27139380705E+03  0.28324731695E+03  0.79065578798E+02 0.  0.
          5    1    3    3  501    0  0.82520870859E+02 -0.18174348093E+02 -0.59490048410E+02  0.10344639634E+03  0.47000000000E+01 0. -1.
        -13    1    4    4    0    0  0.33948648457E+02 -0.11542528544E+02  0.36466369758E+02  0.51142319272E+02  0.00000000000E+00 0.  1.
         14    1    4    4    0    0 -0.31841807242E+02  0.12987062004E+02  0.16113328989E+02  0.37976358950E+02  0.00000000000E+00 0. -1.
         -5    1    5    5    0  502 -0.67169839689E+02  0.21007780940E+02  0.35055409366E+02  0.78766020274E+02  0.47000000000E+01 0.  1.
         11    1    6    6    0    0  0.22803744411E+02 -0.23070417140E+02  0.72107007719E+02  0.79067537386E+02  0.00000000000E+00 0. -1.
        -12    1    6    6    0    0 -0.40261616795E+02  0.18792450833E+02  0.19928679933E+03  0.20417977956E+03  0.00000000000E+00 0.  1.
</event>
<event>
12    1  0.8562501E-002  0.2042394E+03  0.7818608E-02  0.1146222E+00
         21   -1    0    0  503  502  0.00000000000E+00  0.00000000000E+00  0.18943110302E+03  0.18943110302E+03  0.00000000000E+00 0. -1.
         21   -1    0    0  501  503 -0.00000000000E+00 -0.00000000000E+00 -0.33392661950E+03  0.33392661950E+03  0.00000000000E+00 0. -1.
          6    2    1    2  501    0  0.55317144326E+02  0.96028977995E+02 -0.22500180785E+03  0.30387421589E+03  0.17155807901E+03 0.  0.
         24    2    3    3    0    0  0.35718456864E+01  0.24828688846E+02 -0.19366163057E+03  0.21032554504E+03  0.78120329419E+02 0.  0.
         -6    2    1    2    0  502 -0.55317144326E+02 -0.96028977995E+02  0.80506291376E+02  0.21948350663E+03  0.17149401057E+03 0.  0.
        -24    2    5    5    0    0 -0.80417887781E+01 -0.20033812032E+02  0.98995499754E+02  0.12797304101E+03  0.78172669538E+02 0.  0.
          5    1    3    3  501    0  0.51745298640E+02  0.71200289148E+02 -0.31340177280E+02  0.93548670852E+02  0.47000000000E+01 0. -1.
        -11    1    4    4    0    0  0.15823042153E+02 -0.97472997096E+01 -0.66314787434E+01  0.19732081110E+02  0.00000000000E+00 0.  1.
         12    1    4    4    0    0 -0.12251196466E+02  0.34575988556E+02 -0.18703015183E+03  0.19059346393E+03  0.00000000000E+00 0. -1.
         -5    1    5    5    0  502 -0.47275355548E+02 -0.75995165962E+02 -0.18489208378E+02  0.91510465622E+02  0.47000000000E+01 0.  1.
         11    1    6    6    0    0 -0.37523253345E+02 -0.18571804586E+02  0.86143213591E+02  0.95778701781E+02  0.00000000000E+00 0. -1.
        -12    1    6    6    0    0  0.29481464567E+02 -0.14620074463E+01  0.12852286163E+02  0.32194339229E+02  0.00000000000E+00 0.  1.
</event>
<event>
12    1  0.8562501E-002  0.2313578E+03  0.7818608E-02  0.1125826E+00
         21   -1    0    0  503  502  0.00000000000E+00  0.00000000000E+00  0.41028849273E+03  0.41028849273E+03  0.00000000000E+00 0.  1.
         21   -1    0    0  501  503 -0.00000000000E+00 -0.00000000000E+00 -0.13100925015E+03  0.13100925015E+03  0.00000000000E+00 0.  1.
          6    2    1    2  501    0  0.66038947652E+02  0.13989039060E+03  0.11584307809E+03  0.25803493073E+03  0.17097351474E+03 0.  0.
         24    2    3    3    0    0  0.13829879044E+02  0.12365774151E+03  0.13476566033E+03  0.19998805432E+03  0.79692760512E+02 0.  0.
         -6    2    1    2    0  502 -0.66038947652E+02 -0.13989039060E+03  0.16343616449E+03  0.28326281216E+03  0.17203481304E+03 0.  0.
        -24    2    5    5    0    0 -0.35416001516E+02 -0.17364693303E+02  0.12110090287E+03  0.14997862065E+03  0.79198057045E+02 0.  0.
          5    1    3    3  501    0  0.52209068608E+02  0.16232649095E+02 -0.18922582241E+02  0.58046876404E+02  0.47000000000E+01 0. -1.
        -13    1    4    4    0    0  0.37883051676E+02  0.30263743233E+02  0.64363898148E+02  0.80583690307E+02  0.00000000000E+00 0.  1.
         14    1    4    4    0    0 -0.24053172632E+02  0.93393998274E+02  0.70401762183E+02  0.11940436401E+03  0.00000000000E+00 0. -1.
         -5    1    5    5    0  502 -0.30622946135E+02 -0.12252569730E+03  0.42335261626E+02  0.13328419151E+03  0.47000000000E+01 0.  1.
         13    1    6    6    0    0 -0.34685344457E+02  0.21837552121E+02  0.29984353152E+02  0.50783986026E+02  0.00000000000E+00 0. -1.
        -14    1    6    6    0    0 -0.73065705901E+00 -0.39202245424E+02  0.91116549716E+02  0.99194634624E+02  0.00000000000E+00 0.  1.
</event>
<event>
12    1  0.8562501E-002  0.1967890E+03  0.7818608E-02  0.1152680E+00
         21   -1    0    0  501  502  0.00000000000E+00  0.00000000000E+00  0.12114484475E+03  0.12114484475E+03  0.00000000000E+00 0. -1.
         21   -1    0    0  502  503 -0.00000000000E+00 -0.00000000000E+00 -0.31834601954E+03  0.31834601954E+03  0.00000000000E+00 0. -1.
         -6    2    1    2    0  503  0.29651720255E+00 -0.10003000051E+03 -0.92803269054E+02  0.21672457017E+03  0.16837756277E+03 0.  0.
        -24    2    3    3    0    0  0.40965665081E+02 -0.12049358115E+03 -0.78488188742E+02  0.16876886930E+03  0.78266510439E+02 0.  0.
          6    2    1    2  501    0 -0.29651720255E+00  0.10003000051E+03 -0.10439790574E+03  0.22276629412E+03  0.16946920118E+03 0.  0.
         24    2    5    5    0    0 -0.11640293253E+02  0.44571015243E+02 -0.13007691675E+03  0.16042945181E+03  0.81826236070E+02 0.  0.
          5    1    5    5  501    0  0.11343776050E+02  0.55458985269E+02  0.25679011017E+02  0.62336842308E+02  0.47000000000E+01 0. -1.
        -11    1    6    6    0    0  0.13420118479E+02  0.45386265709E+01  0.67412139055E+01  0.15688934829E+02  0.00000000000E+00 0.  1.
         12    1    6    6    0    0 -0.25060411732E+02  0.40032388672E+02 -0.13681813066E+03  0.14474051698E+03  0.00000000000E+00 0. -1.
         -5    1    3    3    0  503 -0.40669147879E+02  0.20463580643E+02 -0.14315080312E+02  0.47955700873E+02  0.47000000000E+01 0.  1.
         13    1    4    4    0    0 -0.11069295409E+02 -0.40712749131E+02  0.45095698130E+01  0.42431043618E+02  0.00000000000E+00 0. -1.
        -14    1    4    4    0    0  0.52034960491E+02 -0.79780832024E+02 -0.82997758555E+02  0.12633782568E+03  0.00000000000E+00 0.  1.
</event>
<event>
12    1  0.8562501E-002  0.2958673E+03  0.7818608E-02  0.1087683E+00
         21   -1    0    0  501  502  0.00000000000E+00  0.00000000000E+00  0.14765385219E+03  0.14765385219E+03  0.00000000000E+00 0.  1.
         21   -1    0    0  502  503 -0.00000000000E+00 -0.00000000000E+00 -0.67854446599E+03  0.67854446599E+03  0.00000000000E+00 0. -1.
         -6    2    1    2    0  503 -0.23752918623E+03  0.12898319438E+02 -0.41806366661E+03  0.51216667490E+03  0.17592894187E+03 0.  0.
        -24    2    3    3    0    0 -0.15670066440E+03  0.77002252563E+02 -0.28153573180E+03  0.34098101205E+03  0.80754177447E+02 0.  0.
          6    2    1    2  501    0  0.23752918623E+03 -0.12898319438E+02 -0.11282694719E+03  0.31403164327E+03  0.17117088541E+03 0.  0.
         24    2    5    5    0    0  0.25570453384E+03  0.19494788314E+01 -0.11216581860E+03  0.29008738581E+03  0.78618772880E+02 0.  0.
          5    1    5    5  501    0 -0.18175347615E+02 -0.14847798269E+02 -0.66112858620E+00  0.23944257462E+02  0.47000000000E+01 0. -1.
        -11    1    6    6    0    0  0.94333833604E+02  0.38265147081E+02 -0.35886846116E+02  0.10793960982E+03  0.00000000000E+00 0.  1.
         12    1    6    6    0    0  0.16137070024E+03 -0.36315668250E+02 -0.76278972489E+02  0.18214777599E+03  0.00000000000E+00 0. -1.
         -5    1    3    3    0  503 -0.80828521826E+02 -0.64103933125E+02 -0.13652793481E+03  0.17118566285E+03  0.47000000000E+01 0.  1.
         13    1    4    4    0    0 -0.16902676965E+01  0.18653749802E+02 -0.69183224147E+02  0.71673829882E+02  0.00000000000E+00 0. -1.
        -14    1    4    4    0    0 -0.15501039670E+03  0.58348502761E+02 -0.21235250765E+03  0.26930718217E+03  0.00000000000E+00 0.  1.
</event>
<event>
12    1  0.8562501E-002  0.1782968E+03  0.7818608E-02  0.1172136E+00
         21   -1    0    0  503  502  0.00000000000E+00  0.00000000000E+00  0.37843672392E+03  0.37843672392E+03  0.00000000000E+00 0. -1.
         21   -1    0    0  501  503 -0.00000000000E+00 -0.00000000000E+00 -0.41608984561E+03  0.41608984561E+03  0.00000000000E+00 0. -1.
          6    2    1    2  501    0  0.38113463687E+01 -0.36533556613E+02 -0.37620021295E+03  0.41189896469E+03  0.16366102092E+03 0.  0.
         24    2    3    3    0    0  0.51230487520E+02 -0.30564335598E+02 -0.14595851342E+03  0.17670216040E+03  0.79756030410E+02 0.  0.
         -6    2    1    2    0  502 -0.38113463687E+01  0.36533556613E+02  0.33854709126E+03  0.38262760484E+03  0.17447212920E+03 0.  0.
        -24    2    5    5    0    0  0.11053293370E+02  0.42659936019E+02  0.35039805612E+03  0.36210870119E+03  0.80011676080E+02 0.  0.
          5    1    3    3  501    0 -0.47419141151E+02 -0.59692210151E+01 -0.23024169953E+03  0.23519680429E+03  0.47000000000E+01 0. -1.
        -13    1    4    4    0    0 -0.90793443034E+00 -0.36498415319E+02 -0.23354663480E+02  0.43340500366E+02  0.00000000000E+00 0.  1.
         14    1    4    4    0    0  0.52138421950E+02  0.59340797213E+01 -0.12260384994E+03  0.13336166003E+03  0.00000000000E+00 0. -1.
         -5    1    5    5    0  502 -0.14864639739E+02 -0.61263794064E+01 -0.11850964858E+02  0.20518903657E+02  0.47000000000E+01 0.  1.
         13    1    6    6    0    0 -0.11524563188E+02  0.14969015028E+01  0.25988003956E+03  0.26013975327E+03  0.00000000000E+00 0. -1.
        -14    1    6    6    0    0  0.22577856559E+02  0.41163034516E+02  0.90518016555E+02  0.10196894791E+03  0.00000000000E+00 0.  1.
</event>
<event>
12    1  0.8562501E-002  0.1971435E+03  0.7818608E-02  0.1152364E+00
         21   -1    0    0  501  502  0.00000000000E+00  0.00000000000E+00  0.50441761713E+03  0.50441761713E+03  0.00000000000E+00 0. -1.
         21   -1    0    0  502  503 -0.00000000000E+00 -0.00000000000E+00 -0.84929680252E+02  0.84929680252E+02  0.00000000000E+00 0.  1.
         -6    2    1    2    0  503 -0.70252476107E+02  0.64823197683E+02  0.11845814925E+03  0.22999542749E+03  0.17241840443E+03 0.  0.
        -24    2    3    3    0    0 -0.11174212430E+03  0.65425424322E+02  0.72584863104E+02  0.16796154993E+03  0.78585821951E+02 0.  0.
          6    2    1    2  501    0  0.70252476107E+02 -0.64823197683E+02  0.30102978763E+03  0.35935186989E+03  0.17139829637E+03 0.  0.
         24    2    5    5    0    0  0.48339896230E+02  0.31328077188E+02  0.13851261279E+03  0.16919627325E+03  0.78252418445E+02 0.  0.
          5    1    5    5  501    0  0.21912579877E+02 -0.96151274871E+02  0.16251717484E+03  0.19015559664E+03  0.47000000000E+01 0. -1.
        -11    1    6    6    0    0  0.52671546422E+02  0.69283646474E+01  0.37094045474E+02  0.64793998556E+02  0.00000000000E+00 0.  1.
         12    1    6    6    0    0 -0.43316501920E+01  0.24399712540E+02  0.10141856731E+03  0.10440227469E+03  0.00000000000E+00 0. -1.
         -5    1    3    3    0  503  0.41489648190E+02 -0.60222663857E+00  0.45873286148E+02  0.62033877566E+02  0.47000000000E+01 0.  1.
         13    1    4    4    0    0 -0.42461375545E+02 -0.10173038783E+02  0.42893296195E+02  0.61206976643E+02  0.00000000000E+00 0. -1.
        -14    1    4    4    0    0 -0.69280748752E+02  0.75598463105E+02  0.29691566908E+02  0.10675457328E+03  0.00000000000E+00 0.  1.
</event>
<event>
12    1  0.8562501E-002  0.2614997E+03  0.7818608E-02  0.1106434E+00
         21   -1    0    0  501  502  0.00000000000E+00  0.00000000000E+00  0.18173886745E+03  0.18173886745E+03  0.00000000000E+00 0.  1.
         21   -1    0    0  502  503 -0.00000000000E+00 -0.00000000000E+00 -0.60236060195E+03  0.60236060195E+03  0.00000000000E+00 0.  1.
         -6    2    1    2    0  503 -0.14405067215E+03 -0.13094767701E+03 -0.45114785661E+03  0.52082409939E+03  0.17270050298E+03 0.  0.
        -24    2    3    3    0    0 -0.29358565142E+02 -0.83306770833E+02 -0.12721249415E+03  0.17386568056E+03  0.79020964273E+02 0.  0.
          6    2    1    2  501    0  0.14405067215E+03  0.13094767701E+03  0.30526122101E+02  0.26327537001E+03  0.17459721092E+03 0.  0.
         24    2    5    5    0    0  0.35813981722E+02  0.93696103151E+02 -0.32722475408E+02  0.13241156296E+03  0.80002878541E+02 0.  0.
          5    1    5    5  501    0  0.10823669043E+03  0.37251573860E+02  0.63248597509E+02  0.13086380705E+03  0.47000000000E+01 0. -1.
        -13    1    6    6    0    0  0.31821622383E+02  0.54092573066E+02  0.20436270512E+02  0.66001994397E+02  0.00000000000E+00 0.  1.
         14    1    6    6    0    0  0.39923593392E+01  0.39603530085E+02 -0.53158745920E+02  0.66409568558E+02  0.00000000000E+00 0. -1.
         -5    1    3    3    0  503 -0.11469210701E+03 -0.47640906178E+02 -0.32393536245E+03  0.34695841883E+03  0.47000000000E+01 0.  1.
         11    1    4    4    0    0 -0.11222528742E+02 -0.69042016173E+02 -0.13282655553E+03  0.15011874967E+03  0.00000000000E+00 0. -1.
        -12    1    4    4    0    0 -0.18136036399E+02 -0.14264754661E+02  0.56140613732E+01  0.23746930895E+02  0.00000000000E+00 0.  1.
</event>
<event>
12    1  0.8562501E-002  0.2375872E+03  0.7818608E-02  0.1121439E+00
         21   -1    0    0  503  502  0.00000000000E+00  0.00000000000E+00  0.28411365145E+03  0.28411365145E+03  0.00000000000E+00 0. -1.
         21   -1    0    0  501  503 -0.00000000000E+00 -0.00000000000E+00 -0.20833236341E+03  0.20833236341E+03  0.00000000000E+00 0.  1.
          6    2    1    2  501    0  0.15825200208E+03 -0.41424970933E+02 -0.15473391779E+02  0.23809054869E+03  0.17230194178E+03 0.  0.
         24    2    3    3    0    0  0.39971006435E+02  0.32452209329E+02  0.10640660453E+02  0.96131873650E+02  0.80481589391E+02 0.  0.
         -6    2    1    2    0  502 -0.15825200208E+03  0.41424970933E+02  0.91254679818E+02  0.25435546618E+03  0.17207429270E+03 0.  0.
        -24    2    5    5    0    0 -0.17937352020E+03  0.32528544742E+02  0.10434432808E+03  0.22754700075E+03  0.87503901492E+02 0.  0.
          5    1    3    3  501    0  0.11828099564E+03 -0.73877180262E+02 -0.26114052232E+02  0.14195867503E+03  0.47000000000E+01 0. -1.
        -11    1    4    4    0    0  0.36222922838E+02  0.19134839815E+02 -0.31565082239E+02  0.51716502689E+02  0.00000000000E+00 0.  1.
         12    1    4    4    0    0  0.37480835972E+01  0.13317369514E+02  0.42205742692E+02  0.44415370961E+02  0.00000000000E+00 0. -1.
         -5    1    5    5    0  502  0.21121518124E+02  0.88964261906E+01 -0.13089648261E+02  0.26808465424E+02  0.47000000000E+01 0.  1.
         13    1    6    6    0    0 -0.71620572151E+02  0.58490881549E+00  0.88806898068E+02  0.11408993653E+03  0.00000000000E+00 0. -1.
        -14    1    6    6    0    0 -0.10775294805E+03  0.31943635927E+02  0.15537430011E+02  0.11345706422E+03  0.00000000000E+00 0.  1.
</event>
<event>
12    1  0.8562501E-002  0.3282567E+03  0.7818608E-02  0.1071969E+00
         21   -1    0    0  501  502  0.00000000000E+00  0.00000000000E+00  0.14123635997E+04  0.14123635997E+04  0.00000000000E+00 0.  1.
         21   -1    0    0  502  503 -0.00000000000E+00 -0.00000000000E+00 -0.86995716567E+02  0.86995716567E+02  0.00000000000E+00 0.  1.
         -6    2    1    2    0  503 -0.18437897114E+03  0.20961358095E+03  0.39869315368E+03  0.51643846241E+03  0.17268177770E+03 0.  0.
        -24    2    3    3    0    0 -0.55502444530E+02  0.14082522696E+03  0.28123251021E+03  0.32892822397E+03  0.78675191950E+02 0.  0.
          6    2    1    2  501    0  0.18437897114E+03 -0.20961358095E+03  0.92667472949E+03  0.98292085389E+03  0.17167962145E+03 0.  0.
         24    2    5    5    0    0  0.16828092226E+03 -0.13323298214E+03  0.50844809722E+03  0.55744612022E+03  0.78467910989E+02 0.  0.
          5    1    5    5  501    0  0.16098048878E+02 -0.76380598812E+02  0.41822663227E+03  0.42547473367E+03  0.47000000000E+01 0. -1.
        -11    1    6    6    0    0  0.10331754875E+03 -0.32204563363E+02  0.25261683867E+03  0.27482160934E+03  0.00000000000E+00 0.  1.
         12    1    6    6    0    0  0.64963373509E+02 -0.10102841877E+03  0.25583125855E+03  0.28262451088E+03  0.00000000000E+00 0. -1.
         -5    1    3    3    0  503 -0.12887652661E+03  0.68788353985E+02  0.11746064347E+03  0.18751023844E+03  0.47000000000E+01 0.  1.
         11    1    4    4    0    0  0.19266229754E+02  0.37966001388E+02  0.56954358549E+02  0.71108394920E+02  0.00000000000E+00 0. -1.
        -12    1    4    4    0    0 -0.74768674284E+02  0.10285922557E+03  0.22427815166E+03  0.25781982905E+03  0.00000000000E+00 0.  1.
</event>
<event>
12    1  0.8562501E-002  0.2412351E+03  0.7818608E-02  0.1120583E+00
         21   -1    0    0  503  502  0.00000000000E+00  0.00000000000E+00  0.20997705279E+03  0.20997705279E+03  0.00000000000E+00 0.  1.
         21   -1    0    0  501  503 -0.00000000000E+00 -0.00000000000E+00 -0.82044916847E+03  0.82044916847E+03  0.00000000000E+00 0. -1.
          6    2    1    2  501    0 -0.14526497993E+03 -0.88814760432E+02 -0.73062359607E+03  0.76941874707E+03  0.17089292888E+03 0.  0.
         24    2    3    3    0    0 -0.29537749615E+01 -0.43346598368E+02 -0.24461298020E+03  0.26094235474E+03  0.79798183164E+02 0.  0.
         -6    2    1    2    0  502  0.14526497993E+03  0.88814760432E+02  0.12015148039E+03  0.26100747419E+03  0.15715771466E+03 0.  0.
        -24    2    5    5    0    0  0.29121983110E+02  0.46900391208E+02  0.93518895458E+02  0.13460575491E+03  0.79531055889E+02 0.  0.
          5    1    3    3  501    0 -0.14231120497E+03 -0.45468162064E+02 -0.48601061587E+03  0.50847639233E+03  0.47000000000E+01 0. -1.
        -11    1    4    4    0    0 -0.35053351280E+02 -0.29811035360E+02 -0.76624852553E+02  0.89380105694E+02  0.00000000000E+00 0.  1.
         12    1    4    4    0    0  0.32099576319E+02 -0.13535563008E+02 -0.16798812765E+03  0.17156224904E+03  0.00000000000E+00 0. -1.
         -5    1    5    5    0  502  0.11614299682E+03  0.41914369224E+02  0.26632584934E+02  0.12640171928E+03  0.47000000000E+01 0.  1.
         11    1    6    6    0    0 -0.94991955910E+01 -0.61549699951E+01 -0.79029247938E+01  0.13804875690E+02  0.00000000000E+00 0. -1.
        -12    1    6    6    0    0  0.38621178701E+02  0.53055361203E+02  0.10142182025E+03  0.12080087922E+03  0.00000000000E+00 0.  1.
</event>
<event>
12    1  0.8562501E-002  0.2653435E+03  0.7818608E-02  0.1103993E+00
         21   -1    0    0  503  502  0.00000000000E+00  0.00000000000E+00  0.13361516391E+04  0.13361516391E+04  0.00000000000E+00 0. -1.
         21   -1    0    0  501  503 -0.00000000000E+00 -0.00000000000E+00 -0.14343853905E+03  0.14343853905E+03  0.00000000000E+00 0. -1.
          6    2    1    2  501    0  0.19471154446E+03  0.52815214631E+02  0.78016631708E+01  0.26533226084E+03  0.17215780624E+03 0.  0.
         24    2    3    3    0    0  0.59791131837E+02 -0.18103595840E+01  0.53959831822E+02  0.11255746700E+03  0.78608288863E+02 0.  0.
         -6    2    1    2    0  502 -0.19471154446E+03 -0.52815214631E+02  0.11849114369E+04  0.12142579173E+04  0.17235180327E+03 0.  0.
        -24    2    5    5    0    0 -0.20764464369E+03 -0.19451144638E+02  0.91347220304E+03  0.94042991676E+03  0.80512840813E+02 0.  0.
          5    1    3    3  501    0  0.13492041262E+03  0.54625574215E+02 -0.46158168651E+02  0.15277479384E+03  0.47000000000E+01 0. -1.
        -13    1    4    4    0    0  0.43576264914E+01  0.62916152156E+01 -0.19050398829E+02  0.20530246618E+02  0.00000000000E+00 0.  1.
         14    1    4    4    0    0  0.55433505346E+02 -0.81019747996E+01  0.73010230652E+02  0.92027220377E+02  0.00000000000E+00 0. -1.
         -5    1    5    5    0  502  0.12933099234E+02 -0.33364069993E+02  0.27143923384E+03  0.27382800055E+03  0.47000000000E+01 0.  1.
         11    1    6    6    0    0 -0.11024331390E+03 -0.34274412507E+02  0.62564626007E+03  0.63620874432E+03  0.00000000000E+00 0. -1.
        -12    1    6    6    0    0 -0.97401329786E+02  0.14823267869E+02  0.28782594296E+03  0.30422117244E+03  0.00000000000E+00 0.  1.
</event>
<event>
12    1  0.8562501E-002  0.1885163E+03  0.7818608E-02  0.1160801E+00
         21   -1    0    0  503  502  0.00000000000E+00  0.00000000000E+00  0.59672433193E+03  0.59672433193E+03  0.00000000000E+00 0.  1.
         21   -1    0    0  501  503 -0.00000000000E+00 -0.00000000000E+00 -0.11094764375E+03  0.11094764375E+03  0.00000000000E+00 0.  1.
          6    2    1    2  501    0  0.45097232727E+02 -0.62640512708E+02 -0.25504473729E+01  0.18422017689E+03  0.16725123187E+03 0.  0.
         24    2    3    3    0    0  0.29425042816E+01 -0.43549556591E+02 -0.62696579632E+02  0.10818641491E+03  0.76604288801E+02 0.  0.
         -6    2    1    2    0  502 -0.45097232727E+02  0.62640512708E+02  0.48832713554E+03  0.52345179879E+03  0.17199069774E+03 0.  0.
        -24    2    5    5    0    0 -0.18393533662E+02  0.78131269053E+02  0.47695258260E+03  0.49021745615E+03  0.79916024555E+02 0.  0.
          5    1    3    3  501    0  0.42154728446E+02 -0.19090956117E+02  0.60146132259E+02  0.76033761985E+02  0.47000000000E+01 0. -1.
        -13    1    4    4    0    0  0.38257202443E+02 -0.10240223970E+02 -0.29253913237E+02  0.49236847639E+02  0.00000000000E+00 0.  1.
         14    1    4    4    0    0 -0.35314698161E+02 -0.33309332621E+02 -0.33442666394E+02  0.58949567271E+02  0.00000000000E+00 0. -1.
         -5    1    5    5    0  502 -0.26703699065E+02 -0.15490756345E+02  0.11374552949E+02  0.33234342639E+02  0.47000000000E+01 0.  1.
         11    1    6    6    0    0 -0.13963299069E+02  0.45657572020E+02  0.90007883615E+02  0.10188722548E+03  0.00000000000E+00 0. -1.
        -12    1    6    6    0    0 -0.44302345929E+01  0.32473697033E+02  0.38694469898E+03  0.38833023066E+03  0.00000000000E+00 0.  1.
</event>
<event>
12    1  0.8562501E-002  0.2076898E+03  0.7818608E-02  0.1143474E+00
         21   -1    0    0  501  502  0.00000000000E+00  0.00000000000E+00  0.20693985635E+03  0.20693985635E+03  0.00000000000E+00 0.  1.
         21   -1    0    0  502  503 -0.00000000000E+00 -0.00000000000E+00 -0.21037252076E+03  0.21037252076E+03  0.00000000000E+00 0.  1.
         -6    2    1    2    0  503 -0.10764354082E+03  0.42104670799E+02 -0.23336409878E+02  0.20867105092E+03  0.17216005426E+03 0.  0.
        -24    2    3    3    0    0 -0.17583121129E+02 -0.33197691798E+02  0.61716195193E+01  0.87534191104E+02  0.78821905809E+02 0.  0.
          6    2    1    2  501    0  0.10764354082E+03 -0.42104670799E+02  0.19903745466E+02  0.20864132619E+03  0.17255465432E+03 0.  0.
         24    2    5    5    0    0  0.91082746352E+02  0.44792184910E+01 -0.44169019512E+02  0.12757513184E+03  0.77513752958E+02 0.  0.
          5    1    5    5  501    0  0.16560794464E+02 -0.46583889290E+02  0.64072764979E+02  0.81066194352E+02  0.47000000000E+01 0. -1.
        -11    1    6    6    0    0  0.61867529808E+02 -0.33110944932E+02 -0.15046025515E+02  0.71765651970E+02  0.00000000000E+00 0.  1.
         12    1    6    6    0    0  0.29215216544E+02  0.37590163423E+02 -0.29122993997E+02  0.55809479869E+02  0.00000000000E+00 0. -1.
         -5    1    3    3    0  503 -0.90060419687E+02  0.75302362597E+02 -0.29508029397E+02  0.12113685981E+03  0.47000000000E+01 0.  1.
         11    1    4    4    0    0 -0.21178296566E+01 -0.20071717250E+01  0.39340681883E+02  0.39448741321E+02  0.00000000000E+00 0. -1.
        -12    1    4    4    0    0 -0.15465291473E+02 -0.31190520073E+02 -0.33169062364E+02  0.48085449783E+02  0.00000000000E+00 0.  1.
</event>
<event>
12    1  0.8562501E-002  0.1844828E+03  0.7818608E-02  0.1163650E+00
         21   -1    0    0  501  502  0.00000000000E+00  0.00000000000E+00  0.20832709515E+04  0.20832709515E+04  0.00000000000E+00 0. -1.
         21   -1    0    0  502  503 -0.00000000000E+00 -0.00000000000E+00 -0.20758273558E+02  0.20758273558E+02  0.00000000000E+00 0. -1.
         -6    2    1    2    0  503 -0.82052732459E+01 -0.65745643832E+02  0.15180933854E+04  0.15292020613E+04  0.17164382131E+03 0.  0.
        -24    2    3    3    0    0  0.49906173798E+02 -0.62469705932E+02  0.67665712996E+03  0.68574208362E+03  0.77357891442E+02 0.  0.
          6    2    1    2  501    0  0.82052732459E+01  0.65745643832E+02  0.54441929255E+03  0.57482716373E+03  0.17217457964E+03 0.  0.
         24    2    5    5    0    0 -0.27563787589E+02 -0.17461487854E+02  0.18103244488E+03  0.20029419651E+03  0.79248678932E+02 0.  0.
          5    1    5    5  501    0  0.35769060835E+02  0.83207131686E+02  0.36338684767E+03  0.37453296722E+03  0.47000000000E+01 0. -1.
        -11    1    6    6    0    0 -0.39747394243E+02 -0.33070096723E+02  0.16986766311E+03  0.17756269207E+03  0.00000000000E+00 0.  1.
         12    1    6    6    0    0  0.12183606653E+02  0.15608608870E+02  0.11164781768E+02  0.22731504435E+02  0.00000000000E+00 0. -1.
         -5    1    3    3    0  503 -0.58111447044E+02 -0.32759379000E+01  0.84143625542E+03  0.84345997770E+03  0.47000000000E+01 0.  1.
         13    1    4    4    0    0  0.39434478483E+02 -0.26365576704E+02  0.14096344266E+03  0.14873101188E+03  0.00000000000E+00 0. -1.
        -14    1    4    4    0    0  0.10471695316E+02 -0.36104129228E+02  0.53569368731E+03  0.53701107174E+03  0.00000000000E+00 0.  1.
</event>
<event>
12    1  0.8562501E-002  0.2342143E+03  0.7818608E-02  0.1124622E+00
         21   -1    0    0  501  502  0.00000000000E+00  0.00000000000E+00  0.14128186880E+03  0.14128186880E+03  0.00000000000E+00 0.  1.
         21   -1    0    0  502  503 -0.00000000000E+00 -0.00000000000E+00 -0.14122112735E+04  0.14122112735E+04  0.00000000000E+00 0.  1.
         -6    2    1    2    0  503  0.11983935842E+03  0.10401033049E+03 -0.12977090126E+04  0.13177528083E+04  0.16505805541E+03 0.  0.
        -24    2    3    3    0    0  0.55287009246E+02  0.32682503177E+02 -0.99102590737E+03  0.99630097399E+03  0.79740092076E+02 0.  0.
          6    2    1    2  501    0 -0.11983935842E+03 -0.10401033049E+03  0.26779607973E+02  0.23574033394E+03  0.17226937327E+03 0.  0.
         24    2    5    5    0    0 -0.57166984065E+02 -0.12987498326E+03  0.39451890617E+02  0.16660652515E+03  0.77882650239E+02 0.  0.
          5    1    5    5  501    0 -0.62672374359E+02  0.25864652760E+02 -0.12672282644E+02  0.69133808788E+02  0.47000000000E+01 0. -1.
        -11    1    6    6    0    0 -0.29646437732E+02 -0.96034055244E+02  0.61400195923E+02  0.11777705675E+03  0.00000000000E+00 0.  1.
         12    1    6    6    0    0 -0.27520546333E+02 -0.33840928011E+02 -0.21948305306E+02  0.48829468407E+02  0.00000000000E+00 0. -1.
         -5    1    3    3    0  503  0.64552349177E+02  0.71327827317E+02 -0.30668310526E+03  0.32145183432E+03  0.47000000000E+01 0.  1.
         13    1    4    4    0    0  0.16244215245E+02 -0.18189917423E+02 -0.98494669201E+02  0.10146894838E+03  0.00000000000E+00 0. -1.
        -14    1    4    4    0    0  0.39042794001E+02  0.50872420600E+02 -0.89253123817E+03  0.89483202561E+03  0.00000000000E+00 0.  1.
</event>
<event>
12    1  0.8562501E-002  0.1848147E+03  0.7818608E-02  0.1163301E+00
         21   -1    0    0  501  502  0.00000000000E+00  0.00000000000E+00  0.17854551722E+03  0.17854551722E+03  0.00000000000E+00 0.  1.
         21   -1    0    0  502  503 -0.00000000000E+00 -0.00000000000E+00 -0.19884990573E+03  0.19884990573E+03  0.00000000000E+00 0.  1.
         -6    2    1    2    0  503  0.63757564039E+02 -0.47027431464E+01 -0.47744947903E+02  0.19088234678E+03  0.17340515418E+03 0.  0.
        -24    2    3    3    0    0  0.65418176166E+02  0.60927763750E+02 -0.38156258409E+02  0.12436803227E+03  0.77587223349E+02 0.  0.
          6    2    1    2  501    0 -0.63757564039E+02  0.47027431464E+01  0.27440559394E+02  0.18651307618E+03  0.17305201681E+03 0.  0.
         24    2    5    5    0    0  0.78181642841E+01 -0.43336497929E+02 -0.33478209121E+01  0.94856827457E+02  0.83948996807E+02 0.  0.
          5    1    5    5  501    0 -0.71575728323E+02  0.48039241075E+02  0.30788380306E+02  0.91656248723E+02  0.47000000000E+01 0. -1.
        -13    1    6    6    0    0  0.11092070098E+02 -0.37066822076E+02  0.37213963663E+02  0.53682980631E+02  0.00000000000E+00 0.  1.
         14    1    6    6    0    0 -0.32739058143E+01 -0.62696758530E+01 -0.40561784575E+02  0.41173846827E+02  0.00000000000E+00 0. -1.
         -5    1    3    3    0  503 -0.16606121274E+01 -0.65630506896E+02 -0.95886894939E+01  0.66514314507E+02  0.47000000000E+01 0.  1.
         11    1    4    4    0    0 -0.52497531223E+01 -0.50673790088E+01 -0.25893248191E+02  0.26901645670E+02  0.00000000000E+00 0. -1.
        -12    1    4    4    0    0  0.70667929289E+02  0.65995142759E+02 -0.12263010218E+02  0.97466386602E+02  0.00000000000E+00 0.  1.
</event>
<event>
12    1  0.8562501E-002  0.2005635E+03  0.7818608E-02  0.1149477E+00
         21   -1    0    0  501  502  0.00000000000E+00  0.00000000000E+00  0.81181312585E+02  0.81181312585E+02  0.00000000000E+00 0. -1.
         21   -1    0    0  502  503 -0.00000000000E+00 -0.00000000000E+00 -0.55896337048E+03  0.55896337048E+03  0.00000000000E+00 0. -1.
         -6    2    1    2    0  503 -0.46661743332E+02 -0.93013604237E+02 -0.34936503978E+03  0.40284196737E+03  0.17145515678E+03 0.  0.
        -24    2    3    3    0    0 -0.73040453082E+02 -0.50607107121E+02 -0.32684805932E+03  0.34785786298E+03  0.79242992629E+02 0.  0.
          6    2    1    2  501    0  0.46661743332E+02  0.93013604237E+02 -0.12841701812E+03  0.23730271570E+03  0.17027272087E+03 0.  0.
         24    2    5    5    0    0 -0.27401332441E+02  0.74970792699E+02 -0.11260973217E+03  0.15931013573E+03  0.79544420233E+02 0.  0.
          5    1    5    5  501    0  0.74063075773E+02  0.18042811538E+02 -0.15807285945E+02  0.77992579968E+02  0.47000000000E+01 0. -1.
        -13    1    6    6    0    0  0.45735550956E+01 -0.50626946421E+01  0.83528232298E+01  0.10785079469E+02  0.00000000000E+00 0.  1.
         14    1    6    6    0    0 -0.31974887536E+02  0.80033487341E+02 -0.12096255540E+03  0.14852505626E+03  0.00000000000E+00 0. -1.
         -5    1    3    3    0  503  0.26378709750E+02 -0.42406497117E+02 -0.22516980462E+02  0.54984104384E+02  0.47000000000E+01 0.  1.
         13    1    4    4    0    0  0.76975977627E-01 -0.35486227400E+02 -0.51331504951E+02  0.62403538849E+02  0.00000000000E+00 0. -1.
        -14    1    4    4    0    0 -0.73117429059E+02 -0.15120879721E+02 -0.27551655437E+03  0.28545432413E+03  0.00000000000E+00 0.  1.
</event>
<event>
12    1  0.8562501E-002  0.2613603E+03  0.7818608E-02  0.1106513E+00
         21   -1    0    0  501  502  0.00000000000E+00  0.00000000000E+00  0.41226161556E+03  0.41226161556E+03  0.00000000000E+00 0.  1.
         21   -1    0    0  502  503 -0.00000000000E+00 -0.00000000000E+00 -0.83469041626E+03  0.83469041626E+03  0.00000000000E+00 0. -1.
         -6    2    1    2    0  503  0.12731124519E+03  0.15014070580E+03 -0.76961385352E+03  0.81238713493E+03  0.17004995966E+03 0.  0.
        -24    2    3    3    0    0  0.59456647091E+02  0.67487185879E+01 -0.25167975311E+03  0.27068303595E+03  0.79661595154E+02 0.  0.
          6    2    1    2  501    0 -0.12731124519E+03 -0.15014070580E+03  0.34718505282E+03  0.43456489689E+03  0.17192674026E+03 0.  0.
         24    2    5    5    0    0 -0.81687343084E+02 -0.11726505484E+02  0.16969719198E+03  0.20486060429E+03  0.79752098865E+02 0.  0.
          5    1    5    5  501    0 -0.45623902106E+02 -0.13841420032E+03  0.17748786084E+03  0.22970429260E+03  0.47000000000E+01 0. -1.
        -13    1    6    6    0    0 -0.63451958286E+02 -0.41381532428E+02  0.13965262740E+03  0.15887554430E+03  0.00000000000E+00 0.  1.
         14    1    6    6    0    0 -0.18235384798E+02  0.29655026943E+02  0.30044564583E+02  0.45985059994E+02  0.00000000000E+00 0. -1.
         -5    1    3    3    0  503  0.67854598099E+02  0.14339198721E+03 -0.51793410041E+03  0.54170409897E+03  0.47000000000E+01 0.  1.
         11    1    4    4    0    0  0.45769203072E+01  0.32611600788E+02 -0.13747325217E+03  0.14136251189E+03  0.00000000000E+00 0. -1.
        -12    1    4    4    0    0  0.54879726784E+02 -0.25862882200E+02 -0.11420650094E+03  0.12932052406E+03  0.00000000000E+00 0.  1.
</event>
<event>
12    1  0.8562501E-002  0.2735624E+03  0.7818608E-02  0.1099310E+00
         21   -1    0    0  501  502  0.00000000000E+00  0.00000000000E+00  0.97411368699E+02  0.97411368699E+02  0.00000000000E+00 0. -1.
         21   -1    0    0  502  503 -0.00000000000E+00 -0.00000000000E+00 -0.15608510364E+04  0.15608510364E+04  0.00000000000E+00 0. -1.
         -6    2    1    2    0  503  0.21268012284E+03  0.11587426059E+02 -0.13227034601E+04  0.13506212634E+04  0.17107381625E+03 0.  0.
        -24    2    3    3    0    0  0.20965331548E+03  0.35512419237E+02 -0.12880438369E+04  0.13081366033E+04  0.83359477571E+02 0.  0.
          6    2    1    2  501    0 -0.21268012284E+03 -0.11587426059E+02 -0.14073620755E+03  0.30764114168E+03  0.17166621346E+03 0.  0.
         24    2    5    5    0    0 -0.28951454358E+02  0.11446234743E+02 -0.26399507570E+02  0.89967661175E+02  0.80175077538E+02 0.  0.
          5    1    5    5  501    0 -0.18372866848E+03 -0.23033660803E+02 -0.11433669998E+03  0.21767348051E+03  0.47000000000E+01 0. -1.
        -13    1    6    6    0    0 -0.36800405978E+01 -0.57403274630E+01  0.27322721341E+02  0.28160702400E+02  0.00000000000E+00 0.  1.
         14    1    6    6    0    0 -0.25271413760E+02  0.17186562206E+02 -0.53722228911E+02  0.61806958775E+02  0.00000000000E+00 0. -1.
         -5    1    3    3    0  503  0.30268073615E+01 -0.23924993178E+02 -0.34659623235E+02  0.42484660104E+02  0.47000000000E+01 0.  1.
         11    1    4    4    0    0  0.13341498882E+03  0.29431626660E+02 -0.57525223786E+03  0.59125368249E+03  0.00000000000E+00 0. -1.
        -12    1    4    4    0    0  0.76238326656E+02  0.60807925772E+01 -0.71279159905E+03  0.71688292082E+03  0.00000000000E+00 0.  1.
</event>
<event>
12    1  0.8562501E-002  0.1807259E+03  0.7818608E-02  0.1167410E+00
         21   -1    0    0  501  502  0.00000000000E+00  0.00000000000E+00  0.16245204996E+03  0.16245204996E+03  0.00000000000E+00 0.  1.
         21   -1    0    0  502  503 -0.00000000000E+00 -0.00000000000E+00 -0.27382203328E+03  0.27382203328E+03  0.00000000000E+00 0.  1.
         -6    2    1    2    0  503 -0.24450740085E+02  0.38473141677E+02 -0.16936636419E+03  0.24768287796E+03  0.17488230727E+03 0.  0.
        -24    2    3    3    0    0  0.28723210126E+02  0.52497943246E+02 -0.42416605199E+02  0.10925421277E+03  0.80970721661E+02 0.  0.
          6    2    1    2  501    0  0.24450740085E+02 -0.38473141677E+02  0.57996380865E+02  0.18859120528E+03  0.17356566825E+03 0.  0.
         24    2    5    5    0    0  0.44746794022E+02  0.13999597687E+02 -0.17168479481E+02  0.94585011800E+02  0.80332455824E+02 0.  0.
          5    1    5    5  501    0 -0.20296053937E+02 -0.52472739365E+02  0.75164860346E+02  0.94006193480E+02  0.47000000000E+01 0. -1.
        -11    1    6    6    0    0 -0.18952247454E+02 -0.10048444926E+02  0.66394416210E+01  0.22455313715E+02  0.00000000000E+00 0.  1.
         12    1    6    6    0    0  0.63699041476E+02  0.24048042614E+02 -0.23807921102E+02  0.72129698084E+02  0.00000000000E+00 0. -1.
         -5    1    3    3    0  503 -0.53173950211E+02 -0.14024801569E+02 -0.12694975899E+03  0.13842866519E+03  0.47000000000E+01 0.  1.
         11    1    4    4    0    0 -0.17064250397E+02  0.28279077213E+02  0.11033918894E+02  0.34823012733E+02  0.00000000000E+00 0. -1.
        -12    1    4    4    0    0  0.45787460524E+02  0.24218866033E+02 -0.53450524093E+02  0.74431200037E+02  0.00000000000E+00 0.  1.
</event>
<event>
12    1  0.8562501E-002  0.1870451E+03  0.7818608E-02  0.1161302E+00
         21   -1    0    0  503  502  0.00000000000E+00  0.00000000000E+00  0.39909976004E+02  0.39909976004E+02  0.00000000000E+00 0. -1.
         21   -1    0    0  501  503 -0.00000000000E+00 -0.00000000000E+00 -0.93680762727E+03  0.93680762727E+03  0.00000000000E+00 0. -1.
          6    2    1    2  501    0 -0.19327672358E+02 -0.70525087572E+02 -0.32087501505E+03  0.37108738917E+03  0.17145765724E+03 0.  0.
         24    2    3    3    0    0  0.29590121143E+02 -0.53794256791E+02 -0.29724012144E+03  0.31404732066E+03  0.80651301856E+02 0.  0.
         -6    2    1    2    0  502  0.19327672358E+02  0.70525087572E+02 -0.57602263622E+03  0.60563021410E+03  0.17215844998E+03 0.  0.
        -24    2    5    5    0    0  0.46301031276E+02  0.10799645045E+03 -0.43297651484E+03  0.45524421752E+03  0.77276234191E+02 0.  0.
          5    1    3    3  501    0 -0.48917793501E+02 -0.16730830782E+02 -0.23634893610E+02  0.57040068510E+02  0.47000000000E+01 0. -1.
        -13    1    4    4    0    0 -0.16607647843E+02  0.45413425279E+01 -0.17384316670E+02  0.24467370617E+02  0.00000000000E+00 0.  1.
         14    1    4    4    0    0  0.46197768986E+02 -0.58335599318E+02 -0.27985580477E+03  0.28957995004E+03  0.00000000000E+00 0. -1.
         -5    1    5    5    0  502 -0.26973358918E+02 -0.37471362879E+02 -0.14304612137E+03  0.15038599658E+03  0.47000000000E+01 0.  1.
         13    1    6    6    0    0 -0.82934239265E+01  0.53429115140E+02 -0.26389030570E+03  0.26937250170E+03  0.00000000000E+00 0. -1.
        -14    1    6    6    0    0  0.54594455203E+02  0.54567335310E+02 -0.16908620914E+03  0.18587171582E+03  0.00000000000E+00 0.  1.
</event>
<event>
12    1  0.8562501E-002  0.2310832E+03  0.7818608E-02  0.1126719E+00
         21   -1    0    0  503  502  0.00000000000E+00  0.00000000000E+00  0.19304500430E+03  0.19304500430E+03  0.00000000000E+00 0.  1.
         21   -1    0    0  501  503 -0.00000000000E+00 -0.00000000000E+00 -0.13274892822E+04  0.13274892822E+04  0.00000000000E+00 0.  1.
          6    2    1    2  501    0 -0.13134140519E+03  0.71819248343E+02 -0.12442643449E+04  0.12646829567E+04  0.16976646260E+03 0.  0.
         24    2    3    3    0    0 -0.10391122760E+03  0.11142802128E+03 -0.10739645738E+04  0.10876367154E+04  0.79623939045E+02 0.  0.
         -6    2    1    2    0  502  0.13134140519E+03 -0.71819248343E+02  0.10982006699E+03  0.25585132982E+03  0.17604228670E+03 0.  0.
        -24    2    5    5    0    0  0.12027166066E+03 -0.55018267520E+02  0.11087696946E+02  0.15498020860E+03  0.80022783727E+02 0.  0.
          5    1    3    3  501    0 -0.27430177587E+02 -0.39608772936E+02 -0.17029977108E+03  0.17704624132E+03  0.47000000000E+01 0. -1.
        -13    1    4    4    0    0 -0.10935519893E+03  0.11082217169E+03 -0.88485436218E+03  0.89844719129E+03  0.00000000000E+00 0.  1.
         14    1    4    4    0    0  0.54439713224E+01  0.60584958924E+00 -0.18911021165E+03  0.18918952410E+03  0.00000000000E+00 0. -1.
         -5    1    5    5    0  502  0.11069744526E+02 -0.16800980823E+02  0.98732370044E+02  0.10087112121E+03  0.47000000000E+01 0.  1.
         13    1    6    6    0    0  0.79922590614E+02 -0.74330869040E+02  0.14563139661E+02  0.11011259519E+03  0.00000000000E+00 0. -1.
        -14    1    6    6    0    0  0.40349070050E+02  0.19312601520E+02 -0.34754427153E+01  0.44867613414E+02  0.00000000000E+00 0.  1.
</event>
<event>
12    1  0.8562501E-002  0.1880129E+03  0.7818608E-02  0.1161221E+00
         21   -1    0    0  501  502  0.00000000000E+00  0.00000000000E+00  0.20234985129E+03  0.20234985129E+03  0.00000000000E+00 0. -1.
         21   -1    0    0  502  503 -0.00000000000E+00 -0.00000000000E+00 -0.20109400578E+03  0.20109400578E+03  0.00000000000E+00 0. -1.
         -6    2    1    2    0  503 -0.58655854068E+01 -0.64536545623E+02 -0.77558076086E+02  0.20338171089E+03  0.17649219344E+03 0.  0.
        -24    2    3    3    0    0  0.63456401030E+02 -0.38293427697E+02 -0.70194422469E+02  0.12874557730E+03  0.78454224191E+02 0.  0.
          6    2    1    2  501    0  0.58655854068E+01  0.64536545623E+02  0.78813921603E+02  0.20006214618E+03  0.17208677254E+03 0.  0.
         24    2    5    5    0    0  0.50405682972E+02  0.51545428624E+02  0.94932114205E+02  0.15072174139E+03  0.92234879158E+02 0.  0.
          5    1    5    5  501    0 -0.44540097565E+02  0.12991116998E+02 -0.16118192602E+02  0.49340404789E+02  0.47000000000E+01 0. -1.
        -13    1    6    6    0    0  0.25126614616E+02 -0.16276216632E+02 -0.17028020403E+01  0.29986022155E+02  0.00000000000E+00 0.  1.
         14    1    6    6    0    0  0.25279068357E+02  0.67821645256E+02  0.96634916246E+02  0.12073571924E+03  0.00000000000E+00 0. -1.
         -5    1    3    3    0  503 -0.69321986437E+02 -0.26243117926E+02 -0.73636536172E+01  0.74636133586E+02  0.47000000000E+01 0.  1.
         11    1    4    4    0    0  0.40842264710E+02 -0.62588062740E+02 -0.48401985992E+02  0.89039926057E+02  0.00000000000E+00 0. -1.
        -12    1    4    4    0    0  0.22614136320E+02  0.24294635044E+02 -0.21792436477E+02  0.39705651248E+02  0.00000000000E+00 0.  1.
</event>
<event>
12    1  0.8562501E-002  0.2098321E+03  0.7818608E-02  0.1143698E+00
         21   -1    0    0  501  502  0.00000000000E+00  0.00000000000E+00  0.69797934197E+03  0.69797934197E+03  0.00000000000E+00 0. -1.
         21   -1    0    0  502  503 -0.00000000000E+00 -0.00000000000E+00 -0.66192535842E+02  0.66192535842E+02  0.00000000000E+00 0. -1.
         -6    2    1    2    0  503  0.45163237755E+02  0.96259487399E+02  0.20747118209E+03  0.29508271572E+03  0.18089751452E+03 0.  0.
        -24    2    3    3    0    0  0.67250827662E+02  0.28077829024E+02  0.44929049338E+02  0.11737893105E+03  0.80300408941E+02 0.  0.
          6    2    1    2  501    0 -0.45163237755E+02 -0.96259487399E+02  0.42431562403E+03  0.46908916209E+03  0.16939683064E+03 0.  0.
         24    2    5    5    0    0 -0.74422829287E+02 -0.45614145820E+02  0.15738656638E+03  0.19578660787E+03  0.77087331820E+02 0.  0.
          5    1    5    5  501    0  0.29259591532E+02 -0.50645341579E+02  0.26692905766E+03  0.27330255422E+03  0.47000000000E+01 0. -1.
        -11    1    6    6    0    0 -0.19602601293E+02 -0.10580317169E+02 -0.32163907268E+01  0.22506671415E+02  0.00000000000E+00 0.  1.
         12    1    6    6    0    0 -0.54820227994E+02 -0.35033828650E+02  0.16060295710E+03  0.17327993645E+03  0.00000000000E+00 0. -1.
         -5    1    3    3    0  503 -0.22087589907E+02  0.68181658375E+02  0.16254213276E+03  0.17770378468E+03  0.47000000000E+01 0.  1.
         13    1    4    4    0    0  0.74310799261E+02  0.14998233201E+02  0.59647089788E+02  0.96461480427E+02  0.00000000000E+00 0. -1.
        -14    1    4    4    0    0 -0.70599715989E+01  0.13079595823E+02 -0.14718040451E+02  0.20917450623E+02  0.00000000000E+00 0.  1.
</event>
<event>
12    1  0.8562501E-002  0.2746402E+03  0.7818608E-02  0.1098704E+00
         21   -1    0    0  501  502  0.00000000000E+00  0.00000000000E+00  0.12502344937E+04  0.12502344937E+04  0.00000000000E+00 0. -1.
         21   -1    0    0  502  503 -0.00000000000E+00 -0.00000000000E+00 -0.60257568802E+02  0.60257568802E+02  0.00000000000E+00 0. -1.
         -6    2    1    2    0  503  0.20767548351E+03  0.55331296516E+02  0.58832088551E+03  0.64926780293E+03  0.17098700761E+03 0.  0.
        -24    2    3    3    0    0  0.12430855861E+03 -0.22939584387E+02  0.24026240992E+03  0.28287570777E+03  0.79459411974E+02 0.  0.
          6    2    1    2  501    0 -0.20767548351E+03 -0.55331296516E+02  0.60165603936E+03  0.66122425955E+03  0.17040209178E+03 0.  0.
         24    2    5    5    0    0 -0.17168755232E+03 -0.62461493048E+02  0.32206556380E+03  0.37919785135E+03  0.81772424126E+02 0.  0.
          5    1    5    5  501    0 -0.35987931191E+02  0.71301965316E+01  0.27959047556E+03  0.28202640819E+03  0.47000000000E+01 0. -1.
        -11    1    6    6    0    0 -0.91610028238E+01 -0.14472685110E+02  0.22721282797E+01  0.17278459247E+02  0.00000000000E+00 0.  1.
         12    1    6    6    0    0 -0.16252654950E+03 -0.47988807938E+02  0.31979343552E+03  0.36191939210E+03  0.00000000000E+00 0. -1.
         -5    1    3    3    0  503  0.83366924897E+02  0.78270880903E+02  0.34805847559E+03  0.36639209516E+03  0.47000000000E+01 0.  1.
         11    1    4    4    0    0  0.13205312539E+03 -0.19988900455E+02  0.23991023245E+03  0.27458059601E+03  0.00000000000E+00 0. -1.
        -12    1    4    4    0    0 -0.77445667780E+01 -0.29506839312E+01  0.35217746474E+00  0.82951117659E+01  0.00000000000E+00 0.  1.
</event>
<event>
12    1  0.8562501E-002  0.1774917E+03  0.7818608E-02  0.1170534E+00
         21   -1    0    0  503  502  0.00000000000E+00  0.00000000000E+00  0.72022383497E+03  0.72022383497E+03  0.00000000000E+00 0.  1.
         21   -1    0    0  501  503 -0.00000000000E+00 -0.00000000000E+00 -0.51396922613E+03  0.51396922613E+03  0.00000000000E+00 0.  1.
          6    2    1    2  501    0 -0.15376475157E+02 -0.37170784707E+02 -0.48727411292E+03  0.51859365747E+03  0.17287341386E+03 0.  0.
         24    2    3    3    0    0  0.14842408332E+02  0.16749362889E+02 -0.95580318162E+02  0.12202502269E+03  0.72482209547E+02 0.  0.
         -6    2    1    2    0  502  0.15376475157E+02  0.37170784707E+02  0.69352872176E+03  0.71559940363E+03  0.17170415063E+03 0.  0.
        -24    2    5    5    0    0  0.60956862636E+02 -0.54589808761E+01  0.28586853210E+03  0.30316299778E+03  0.80258619496E+02 0.  0.
          5    1    3    3  501    0 -0.30218883489E+02 -0.53920147596E+02 -0.39169379476E+03  0.39656863477E+03  0.47000000000E+01 0. -1.
        -13    1    4    4    0    0 -0.87744035385E+01  0.21657398303E+02 -0.95068504076E+02  0.97898179380E+02  0.00000000000E+00 0.  1.
         14    1    4    4    0    0  0.23616811871E+02 -0.49080354137E+01 -0.51181408622E+00  0.24126843312E+02  0.00000000000E+00 0. -1.
         -5    1    5    5    0  502 -0.45580387479E+02  0.42629765583E+02  0.40766018965E+03  0.41243640584E+03  0.47000000000E+01 0.  1.
         13    1    6    6    0    0  0.48938455491E+02  0.33579501513E+02  0.15102479651E+03  0.16226843349E+03  0.00000000000E+00 0. -1.
        -14    1    6    6    0    0  0.12018407145E+02 -0.39038482389E+02  0.13484373560E+03  0.14089456429E+03  0.00000000000E+00 0.  1.
</event>
<event>
12    1  0.8562501E-002  0.2414638E+03  0.7818608E-02  0.1118978E+00
         21   -1    0    0  501  502  0.00000000000E+00  0.00000000000E+00  0.98004566748E+02  0.98004566748E+02  0.00000000000E+00 0. -1.
         21   -1    0    0  502  503 -0.00000000000E+00 -0.00000000000E+00 -0.75527284429E+03  0.75527284429E+03  0.00000000000E+00 0. -1.
         -6    2    1    2    0  503  0.95176443075E+02 -0.13949015573E+03 -0.52714829925E+03  0.57981900949E+03  0.17259401931E+03 0.  0.
        -24    2    3    3    0    0  0.59778200395E+02 -0.16740357864E+03 -0.40178549285E+03  0.44651440344E+03  0.79662656478E+02 0.  0.
          6    2    1    2  501    0 -0.95176443075E+02  0.13949015573E+03 -0.13011997828E+03  0.27345840154E+03  0.17126654596E+03 0.  0.
         24    2    5    5    0    0 -0.11932101997E+03  0.60362067960E+02 -0.91015948534E+02  0.18183182237E+03  0.83053137722E+02 0.  0.
          5    1    5    5  501    0  0.24144576895E+02  0.79128087766E+02 -0.39104029750E+02  0.91626579166E+02  0.47000000000E+01 0. -1.
        -11    1    6    6    0    0 -0.11026000377E+02  0.21273879861E+02  0.12481768241E+02  0.27017497794E+02  0.00000000000E+00 0.  1.
         12    1    6    6    0    0 -0.10829501959E+03  0.39088188100E+02 -0.10349771678E+03  0.15481432458E+03  0.00000000000E+00 0. -1.
         -5    1    3    3    0  503  0.35398242679E+02  0.27913422914E+02 -0.12536280641E+03  0.13330460605E+03  0.47000000000E+01 0.  1.
         13    1    4    4    0    0 -0.10215914372E+02 -0.70667032754E+02 -0.19594905899E+03  0.20855269872E+03  0.00000000000E+00 0. -1.
        -14    1    4    4    0    0  0.69994114767E+02 -0.96736545887E+02 -0.20583643386E+03  0.23796170472E+03  0.00000000000E+00 0.  1.
</event>
<event>
12    1  0.8562501E-002  0.1981349E+03  0.7818608E-02  0.1151403E+00
         21   -1    0    0  503  502  0.00000000000E+00  0.00000000000E+00  0.44666933069E+03  0.44666933069E+03  0.00000000000E+00 0. -1.
         21   -1    0    0  501  503 -0.00000000000E+00 -0.00000000000E+00 -0.95037304066E+02  0.95037304066E+02  0.00000000000E+00 0. -1.
          6    2    1    2  501    0  0.19120503074E+02 -0.95756518578E+02  0.10051268418E+03  0.22183419769E+03  0.17196716866E+03 0.  0.
         24    2    3    3    0    0  0.15332868823E+02 -0.57837239972E+02 -0.17082163164E+02  0.98129484827E+02  0.75877218584E+02 0.  0.
         -6    2    1    2    0  502 -0.19120503074E+02  0.95756518578E+02  0.25111934245E+03  0.31987243707E+03  0.17240228350E+03 0.  0.
        -24    2    5    5    0    0 -0.66838624110E+02  0.69316057876E+02  0.22868423685E+03  0.26069861684E+03  0.79969813585E+02 0.  0.
          5    1    3    3  501    0  0.37876342504E+01 -0.37919278606E+02  0.11759484734E+03  0.12370471286E+03  0.47000000000E+01 0. -1.
        -13    1    4    4    0    0  0.37443663982E+02 -0.34752245424E+01 -0.10697771734E+02  0.39096642798E+02  0.00000000000E+00 0.  1.
         14    1    4    4    0    0 -0.22110795158E+02 -0.54362015429E+02 -0.63843914298E+01  0.59032842029E+02  0.00000000000E+00 0. -1.
         -5    1    5    5    0  502  0.47718121037E+02  0.26440460702E+02  0.22435105596E+02  0.59173820229E+02  0.47000000000E+01 0.  1.
         11    1    6    6    0    0 -0.34729170670E+02  0.69766460888E+02  0.20894204423E+03  0.22300280762E+03  0.00000000000E+00 0. -1.
        -12    1    6    6    0    0 -0.32109453440E+02 -0.45040301204E+00  0.19742192624E+02  0.37695809219E+02  0.00000000000E+00 0.  1.
</event>
<event>
12    1  0.8562501E-002  0.1777431E+03  0.7818608E-02  0.1171118E+00
         21   -1    0    0  501  502  0.00000000000E+00  0.00000000000E+00  0.63748641875E+02  0.63748641875E+02  0.00000000000E+00 0. -1.
         21   -1    0    0  502  503 -0.00000000000E+00 -0.00000000000E+00 -0.48339656761E+03  0.48339656761E+03  0.00000000000E+00 0. -1.
         -6    2    1    2    0  503 -0.33098654063E+02 -0.18095269434E+00 -0.21780153337E+03  0.28112294437E+03  0.17463404098E+03 0.  0.
        -24    2    3    3    0    0 -0.72495273158E+02  0.33221210188E+02 -0.94998819620E+02  0.14781730088E+03  0.80411226043E+02 0.  0.
          6    2    1    2  501    0  0.33098654063E+02  0.18095269434E+00 -0.20184639236E+03  0.26602226511E+03  0.17008917009E+03 0.  0.
         24    2    5    5    0    0  0.80512711131E+02  0.10426138231E+02 -0.17813982988E+03  0.21182680645E+03  0.80906093291E+02 0.  0.
          5    1    5    5  501    0 -0.47414057069E+02 -0.10245185537E+02 -0.23706562484E+02  0.54195458659E+02  0.47000000000E+01 0. -1.
        -13    1    6    6    0    0 -0.66742540046E+01  0.19358547232E+02 -0.68313260100E+02  0.71316200985E+02  0.00000000000E+00 0.  1.
         14    1    6    6    0    0  0.87186965136E+02 -0.89324090005E+01 -0.10982656978E+03  0.14051060547E+03  0.00000000000E+00 0. -1.
         -5    1    3    3    0  503  0.39396619096E+02 -0.33402162883E+02 -0.12280271375E+03  0.13330564349E+03  0.47000000000E+01 0.  1.
         13    1    4    4    0    0 -0.68510394668E+02  0.19762700136E+02 -0.10751552443E+03  0.12901095491E+03  0.00000000000E+00 0. -1.
        -14    1    4    4    0    0 -0.39848784907E+01  0.13458510052E+02  0.12516704809E+02  0.18806345968E+02  0.00000000000E+00 0.  1.
</event>
<event>
12    1  0.8562501E-002  0.1898058E+03  0.7818608E-02  0.1159089E+00
         21   -1    0    0  501  502  0.00000000000E+00  0.00000000000E+00  0.20240030654E+02  0.20240030654E+02  0.00000000000E+00 0.  1.
         21   -1    0    0  502  503 -0.00000000000E+00 -0.00000000000E+00 -0.22258651938E+04  0.22258651938E+04  0.00000000000E+00 0.  1.
         -6    2    1    2    0  503  0.49749296758E+02  0.55504825121E+02 -0.16204817851E+04  0.16315598244E+04  0.17455791815E+03 0.  0.
        -24    2    3    3    0    0 -0.42116814869E+02  0.29892379585E+02 -0.80921892618E+03  0.81469698646E+03  0.78921028929E+02 0.  0.
          6    2    1    2  501    0 -0.49749296758E+02 -0.55504825121E+02 -0.58514337806E+03  0.61454540001E+03  0.17238763776E+03 0.  0.
         24    2    5    5    0    0 -0.54926292799E+02 -0.67743201723E+02 -0.22743068283E+03  0.25655511875E+03  0.80559136323E+02 0.  0.
          5    1    5    5  501    0  0.51769960413E+01  0.12238376602E+02 -0.35771269523E+03  0.35799028126E+03  0.47000000000E+01 0. -1.
        -13    1    6    6    0    0  0.17908328972E+02 -0.32186699759E+02 -0.85819844111E+02  0.93390243233E+02  0.00000000000E+00 0.  1.
         14    1    6    6    0    0 -0.72834621771E+02 -0.35556501964E+02 -0.14161083872E+03  0.16316487552E+03  0.00000000000E+00 0. -1.
         -5    1    3    3    0  503  0.91866111626E+02  0.25612445536E+02 -0.81126285891E+03  0.81686283798E+03  0.47000000000E+01 0.  1.
         13    1    4    4    0    0  0.12922189545E+02 -0.16770126604E+02 -0.23769459347E+03  0.23863557969E+03  0.00000000000E+00 0. -1.
        -14    1    4    4    0    0 -0.55039004414E+02  0.46662506189E+02 -0.57152433272E+03  0.57606140678E+03  0.00000000000E+00 0.  1.
</event>
<event>
12    1  0.8562501E-002  0.2768350E+03  0.7818608E-02  0.1097699E+00
         21   -1    0    0  501  502  0.00000000000E+00  0.00000000000E+00  0.94088781880E+03  0.94088781880E+03  0.00000000000E+00 0. -1.
         21   -1    0    0  502  503 -0.00000000000E+00 -0.00000000000E+00 -0.92095875133E+02  0.92095875133E+02  0.00000000000E+00 0.  1.
         -6    2    1    2    0  503 -0.19641597956E+03 -0.86176548301E+02  0.24549760816E+03  0.37000906509E+03  0.17501999351E+03 0.  0.
        -24    2    3    3    0    0 -0.15827127162E+03 -0.11957700770E+03  0.23491506676E+03  0.31800243460E+03  0.81191154881E+02 0.  0.
          6    2    1    2  501    0  0.19641597956E+03  0.86176548301E+02  0.60329433551E+03  0.66297462885E+03  0.17194670318E+03 0.  0.
         24    2    5    5    0    0  0.74364495474E+02  0.87451031776E+02  0.25161023058E+03  0.29068174853E+03  0.89500891894E+02 0.  0.
          5    1    5    5  501    0  0.12205148409E+03 -0.12744834753E+01  0.35168410492E+03  0.37229288032E+03  0.47000000000E+01 0. -1.
        -13    1    6    6    0    0  0.46071686686E+02  0.26846820404E+02  0.34518657662E+02  0.63520782478E+02  0.00000000000E+00 0.  1.
         14    1    6    6    0    0  0.28292808788E+02  0.60604211372E+02  0.21709157292E+03  0.22716096605E+03  0.00000000000E+00 0. -1.
         -5    1    3    3    0  503 -0.38144707940E+02  0.33400459402E+02  0.10582541407E+02  0.52006630488E+02  0.47000000000E+01 0.  1.
         11    1    4    4    0    0 -0.97670645142E+01  0.11653274832E+02  0.25434499698E+02  0.29632889471E+02  0.00000000000E+00 0. -1.
        -12    1    4    4    0    0 -0.14850420711E+03 -0.13123028253E+03  0.20948056706E+03  0.28836954513E+03  0.00000000000E+00 0.  1.
</event>
<event>
12    1  0.8562501E-002  0.2098872E+03  0.7818608E-02  0.1141672E+00
         21   -1    0    0  501  502  0.00000000000E+00  0.00000000000E+00  0.17299985895E+03  0.17299985895E+03  0.00000000000E+00 0. -1.
         21   -1    0    0  502  503 -0.00000000000E+00 -0.00000000000E+00 -0.34119580723E+03  0.34119580723E+03  0.00000000000E+00 0. -1.
         -6    2    1    2    0  503  0.65019777027E+02 -0.10006913295E+03 -0.21368166132E+03  0.29952046431E+03  0.17265935648E+03 0.  0.
        -24    2    3    3    0    0 -0.20642804042E+02 -0.91075884936E+02 -0.92047805679E+02  0.15040359355E+03  0.73671570143E+02 0.  0.
          6    2    1    2  501    0 -0.65019777027E+02  0.10006913295E+03  0.45485713042E+02  0.21467520188E+03  0.17255459842E+03 0.  0.
         24    2    5    5    0    0  0.17916033246E+02  0.61028464018E+02  0.63757424807E+02  0.12108851529E+03  0.80944188480E+02 0.  0.
          5    1    5    5  501    0 -0.82935810273E+02  0.39040668930E+02 -0.18271711765E+02  0.93586686591E+02  0.47000000000E+01 0. -1.
        -13    1    6    6    0    0  0.29878071297E+02  0.26261494596E+02 -0.78936713019E+01  0.40554596403E+02  0.00000000000E+00 0.  1.
         14    1    6    6    0    0 -0.11962038051E+02  0.34766969423E+02  0.71651096109E+02  0.80533918884E+02  0.00000000000E+00 0. -1.
         -5    1    3    3    0  503  0.85662581069E+02 -0.89932480127E+01 -0.12163385565E+03  0.14911687076E+03  0.47000000000E+01 0.  1.
         13    1    4    4    0    0  0.96458656056E+01 -0.87967276924E+02 -0.69078999269E+02  0.11226394200E+03  0.00000000000E+00 0. -1.
        -14    1    4    4    0    0 -0.30288669647E+02 -0.31086080119E+01 -0.22968806410E+02  0.38139651554E+02  0.00000000000E+00 0.  1.
</event>
<event>
12    1  0.8562501E-002  0.1730038E+03  0.7818608E-02  0.1174842E+00
         21   -1    0    0  503  502  0.00000000000E+00  0.00000000000E+00  0.38883778263E+03  0.38883778263E+03  0.00000000000E+00 0.  1.
         21   -1    0    0  501  503 -0.00000000000E+00 -0.00000000000E+00 -0.79459706973E+02  0.79459706973E+02  0.00000000000E+00 0.  1.
          6    2    1    2  501    0 -0.11797548269E+02  0.11738296050E+02  0.11212241267E+03  0.20615949227E+03  0.17220142592E+03 0.  0.
         24    2    3    3    0    0 -0.75146417350E+02  0.33742279588E+01  0.57293949468E+02  0.12183104377E+03  0.76823415213E+02 0.  0.
         -6    2    1    2    0  502  0.11797548269E+02 -0.11738296050E+02  0.19725566299E+03  0.26213799734E+03  0.17184168100E+03 0.  0.
        -24    2    5    5    0    0  0.30527944128E+01 -0.61635354218E+02  0.57858176921E+02  0.11374683771E+03  0.76043001056E+02 0.  0.
          5    1    3    3  501    0  0.63348869081E+02  0.83640680913E+01  0.54828463204E+02  0.84328448499E+02  0.47000000000E+01 0. -1.
        -13    1    4    4    0    0 -0.47069401115E+02 -0.35198090924E+02  0.39954082258E+02  0.71068718963E+02  0.00000000000E+00 0.  1.
         14    1    4    4    0    0 -0.28077016236E+02  0.38572318883E+02  0.17339867210E+02  0.50762324805E+02  0.00000000000E+00 0. -1.
         -5    1    5    5    0  502  0.87447538561E+01  0.49897058168E+02  0.13939748607E+03  0.14839115963E+03  0.47000000000E+01 0.  1.
         13    1    6    6    0    0  0.39290664337E+02 -0.37106618004E+02  0.34881652673E+02  0.64322524025E+02  0.00000000000E+00 0. -1.
        -14    1    6    6    0    0 -0.36237869925E+02 -0.24528736214E+02  0.22976524248E+02  0.49424313687E+02  0.00000000000E+00 0.  1.
</event>
<event>
12    1  0.8562501E-002  0.1797020E+03  0.7818608E-02  0.1168127E+00
         21   -1    0    0  503  502  0.00000000000E+00  0.00000000000E+00  0.35483729359E+02  0.35483729359E+02  0.00000000000E+00 0.  1.
         21   -1    0    0  501  503 -0.00000000000E+00 -0.00000000000E+00 -0.93108924240E+03  0.93108924240E+03  0.00000000000E+00 0.  1.
          6    2    1    2  501    0 -0.51252833368E+02  0.16590180713E+02 -0.52148867806E+03  0.55153537407E+03  0.17128555246E+03 0.  0.
         24    2    3    3    0    0  0.18817085244E+02  0.33829823010E+02 -0.40275556379E+03  0.41251508352E+03  0.80362368951E+02 0.  0.
         -6    2    1    2    0  502  0.51252833368E+02 -0.16590180713E+02 -0.37411683499E+03  0.41503759770E+03  0.17143720208E+03 0.  0.
        -24    2    5    5    0    0 -0.17315786543E+02  0.32374589104E+02 -0.24254099085E+03  0.25872541941E+03  0.82248160612E+02 0.  0.
          5    1    3    3  501    0 -0.70069918612E+02 -0.17239642297E+02 -0.11873311427E+03  0.13902029055E+03  0.47000000000E+01 0. -1.
        -11    1    4    4    0    0  0.17092779071E+02  0.62570534707E+01 -0.36640939183E+03  0.36686122204E+03  0.00000000000E+00 0.  1.
         12    1    4    4    0    0  0.17243061734E+01  0.27572769539E+02 -0.36346171964E+02  0.45653861483E+02  0.00000000000E+00 0. -1.
         -5    1    5    5    0  502  0.68568619911E+02 -0.48964769817E+02 -0.13157584414E+03  0.15631217829E+03  0.47000000000E+01 0.  1.
         11    1    6    6    0    0  0.19084735359E+02  0.37291285600E+02 -0.64321575888E+02  0.76760225573E+02  0.00000000000E+00 0. -1.
        -12    1    6    6    0    0 -0.36400521903E+02 -0.49166964952E+01 -0.17821941496E+03  0.18196519383E+03  0.00000000000E+00 0.  1.
</event>
<event>
12    1  0.8562501E-002  0.1933820E+03  0.7818608E-02  0.1160507E+00
         21   -1    0    0  501  502  0.00000000000E+00  0.00000000000E+00  0.11037552417E+03  0.11037552417E+03  0.00000000000E+00 0.  1.
         21   -1    0    0  502  503 -0.00000000000E+00 -0.00000000000E+00 -0.38327089570E+03  0.38327089570E+03  0.00000000000E+00 0.  1.
         -6    2    1    2    0  503 -0.98933118779E+01 -0.16585899425E+02 -0.24353949928E+03  0.29804901008E+03  0.17073006478E+03 0.  0.
        -24    2    3    3    0    0  0.50054061312E+02  0.10670367731E+02 -0.92607759716E+02  0.13330960477E+03  0.81092464285E+02 0.  0.
          6    2    1    2  501    0  0.98933118779E+01  0.16585899425E+02 -0.29355872240E+02  0.19559740979E+03  0.19241520159E+03 0.  0.
         24    2    5    5    0    0  0.23826974228E+02  0.85823104890E+02 -0.34397800346E+02  0.12463651488E+03  0.80110686798E+02 0.  0.
          5    1    5    5  501    0 -0.13933662350E+02 -0.69237205466E+02  0.50419281055E+01  0.70960894909E+02  0.47000000000E+01 0. -1.
        -13    1    6    6    0    0  0.46886687996E+02  0.24558769419E+02 -0.59524646952E+01  0.53262805996E+02  0.00000000000E+00 0.  1.
         14    1    6    6    0    0 -0.23059713768E+02  0.61264335471E+02 -0.28445335650E+02  0.71373708885E+02  0.00000000000E+00 0. -1.
         -5    1    3    3    0  503 -0.59947373190E+02 -0.27256267155E+02 -0.15093173957E+03  0.16473940531E+03  0.47000000000E+01 0.  1.
         13    1    4    4    0    0  0.12928421978E+02 -0.34117237212E+02 -0.46343568901E+02  0.58981830663E+02  0.00000000000E+00 0. -1.
        -14    1    4    4    0    0  0.37125639335E+02  0.44787604942E+02 -0.46264190815E+02  0.74327774111E+02  0.00000000000E+00 0.  1.
</event>
<event>
12    1  0.8562501E-002  0.1938128E+03  0.7818608E-02  0.1155638E+00
         21   -1    0    0  503  502  0.00000000000E+00  0.00000000000E+00  0.53448830495E+03  0.53448830495E+03  0.00000000000E+00 0. -1.
         21   -1    0    0  501  503 -0.00000000000E+00 -0.00000000000E+00 -0.70404870546E+02  0.70404870546E+02  0.00000000000E+00 0. -1.
          6    2    1    2  501    0 -0.82578567279E+02 -0.33947726561E+02  0.26758873805E+03  0.32889758194E+03  0.16911007884E+03 0.  0.
         24    2    3    3    0    0 -0.37206594273E+02 -0.83478612418E+02  0.19750341432E+03  0.23170721622E+03  0.79546376345E+02 0.  0.
         -6    2    1    2    0  502  0.82578567279E+02  0.33947726561E+02  0.19649469636E+03  0.27599559355E+03  0.17202248124E+03 0.  0.
        -24    2    5    5    0    0  0.16996551788E+02  0.12240073805E+02  0.12888786435E+02  0.79767555032E+02  0.75881749061E+02 0.  0.
          5    1    3    3  501    0 -0.45371973006E+02  0.49530885857E+02  0.70085323730E+02  0.97190365729E+02  0.47000000000E+01 0. -1.
        -13    1    4    4    0    0 -0.43365917893E+02 -0.42135770139E+02  0.50199537375E+02  0.78587654963E+02  0.00000000000E+00 0.  1.
         14    1    4    4    0    0  0.61593236203E+01 -0.41342842279E+02  0.14730387694E+03  0.15311956125E+03  0.00000000000E+00 0. -1.
         -5    1    5    5    0  502  0.65582015491E+02  0.21707652756E+02  0.18360590992E+03  0.19622803852E+03  0.47000000000E+01 0.  1.
         11    1    6    6    0    0 -0.17298040634E+01 -0.12399094275E+02  0.37939515562E+02  0.39951678338E+02  0.00000000000E+00 0. -1.
        -12    1    6    6    0    0  0.18726355852E+02  0.24639168080E+02 -0.25050729127E+02  0.39815876694E+02  0.00000000000E+00 0.  1.
</event>
<event>
12    1  0.8562501E-002  0.2225205E+03  0.7818608E-02  0.1132035E+00
         21   -1    0    0  501  502  0.00000000000E+00  0.00000000000E+00  0.10680631628E+04  0.10680631628E+04  0.00000000000E+00 0. -1.
         21   -1    0    0  502  503 -0.00000000000E+00 -0.00000000000E+00 -0.20360553355E+03  0.20360553355E+03  0.00000000000E+00 0.  1.
         -6    2    1    2    0  503  0.40252720584E+02  0.13650978954E+03 -0.12656161903E+03  0.25599452542E+03  0.17105598347E+03 0.  0.
        -24    2    3    3    0    0 -0.33457486671E+02  0.30838435973E+02 -0.36019376353E+02  0.98452095180E+02  0.79529912768E+02 0.  0.
          6    2    1    2  501    0 -0.40252720584E+02 -0.13650978954E+03  0.99101924833E+03  0.10156741710E+04  0.17093761109E+03 0.  0.
         24    2    5    5    0    0  0.79927651999E+01 -0.15145978347E+03  0.74575282795E+03  0.76521691678E+03  0.80035610969E+02 0.  0.
          5    1    5    5  501    0 -0.48245485784E+02  0.14949993935E+02  0.24526642038E+03  0.25045725420E+03  0.47000000000E+01 0. -1.
        -13    1    6    6    0    0  0.27288671157E+02 -0.34282632240E+02  0.32795753464E+03  0.33087175004E+03  0.00000000000E+00 0.  1.
         14    1    6    6    0    0 -0.19295905957E+02 -0.11717715123E+03  0.41779529331E+03  0.43434516674E+03  0.00000000000E+00 0. -1.
         -5    1    3    3    0  503  0.73710207255E+02  0.10567135356E+03 -0.90542242673E+02  0.15754243024E+03  0.47000000000E+01 0.  1.
         11    1    4    4    0    0  0.25102872294E+02  0.13617587941E+02 -0.21359680443E+01  0.28638352924E+02  0.00000000000E+00 0. -1.
        -12    1    4    4    0    0 -0.58560358965E+02  0.17220848033E+02 -0.33883408309E+02  0.69813742256E+02  0.00000000000E+00 0.  1.
</event>
<event>
12    1  0.8562501E-002  0.2642240E+03  0.7818608E-02  0.1105152E+00
         21   -1    0    0  501  502  0.00000000000E+00  0.00000000000E+00  0.23032881301E+03  0.23032881301E+03  0.00000000000E+00 0. -1.
         21   -1    0    0  502  503 -0.00000000000E+00 -0.00000000000E+00 -0.30438952103E+03  0.30438952103E+03  0.00000000000E+00 0.  1.
         -6    2    1    2    0  503 -0.29507482063E+02 -0.19354060702E+03 -0.72058027840E+02  0.27048670017E+03  0.17216863108E+03 0.  0.
        -24    2    3    3    0    0 -0.27436793094E+02 -0.21276532644E+02 -0.23978380693E+02  0.91565092910E+02  0.81263368392E+02 0.  0.
          6    2    1    2  501    0  0.29507482063E+02  0.19354060702E+03 -0.20026801781E+01  0.26423163388E+03  0.17744206815E+03 0.  0.
         24    2    5    5    0    0 -0.26241330183E+02  0.28880363334E+02 -0.99030216781E+01  0.90147081680E+02  0.80658190539E+02 0.  0.
          5    1    5    5  501    0  0.55748812246E+02  0.16466024369E+03  0.79003415000E+01  0.17408455220E+03  0.47000000000E+01 0. -1.
        -13    1    6    6    0    0 -0.26309205942E+02  0.17912036752E+02  0.33009716790E+02  0.45854735638E+02  0.00000000000E+00 0.  1.
         14    1    6    6    0    0  0.67875758669E-01  0.10968326582E+02 -0.42912738468E+02  0.44292346042E+02  0.00000000000E+00 0. -1.
         -5    1    3    3    0  503 -0.20706889681E+01 -0.17226407438E+03 -0.48079647147E+02  0.17892160726E+03  0.47000000000E+01 0.  1.
         11    1    4    4    0    0 -0.37952009638E+02  0.93225979673E+01 -0.39599375168E+02  0.55636106820E+02  0.00000000000E+00 0. -1.
        -12    1    4    4    0    0  0.10515216543E+02 -0.30599130611E+02  0.15620994475E+02  0.35928986090E+02  0.00000000000E+00 0.  1.
</event>
<event>
12    1  0.8562501E-002  0.1899843E+03  0.7818608E-02  0.1159092E+00
         21   -1    0    0  501  502  0.00000000000E+00  0.00000000000E+00  0.90891528690E+02  0.90891528690E+02  0.00000000000E+00 0.  1.
         21   -1    0    0  502  503 -0.00000000000E+00 -0.00000000000E+00 -0.81890110459E+03  0.81890110459E+03  0.00000000000E+00 0.  1.
         -6    2    1    2    0  503 -0.28567447177E+01 -0.75253785454E+02 -0.69140037366E+03  0.71631327756E+03  0.17146119587E+03 0.  0.
        -24    2    3    3    0    0  0.44220799084E+02 -0.94498874888E+02 -0.41444699980E+03  0.43468953941E+03  0.79392465626E+02 0.  0.
          6    2    1    2  501    0  0.28567447177E+01  0.75253785454E+02 -0.36609202243E+02  0.19347935573E+03  0.17442114031E+03 0.  0.
         24    2    5    5    0    0  0.39684101664E+02  0.10863048371E+03 -0.34341964937E+02  0.14350447633E+03  0.77709421913E+02 0.  0.
          5    1    5    5  501    0 -0.36827356946E+02 -0.33376698256E+02 -0.22672373060E+01  0.49974879400E+02  0.47000000000E+01 0. -1.
        -11    1    6    6    0    0  0.39712857961E+02  0.10398187405E+02 -0.11894012540E+02  0.42739921889E+02  0.00000000000E+00 0.  1.
         12    1    6    6    0    0 -0.28756297340E-01  0.98232296304E+02 -0.22447952396E+02  0.10076455444E+03  0.00000000000E+00 0. -1.
         -5    1    3    3    0  503 -0.47077543801E+02  0.19245089434E+02 -0.27695337386E+03  0.28162373815E+03  0.47000000000E+01 0.  1.
         11    1    4    4    0    0  0.94755039317E+01  0.10880530423E+02 -0.18342280170E+02  0.23336888372E+02  0.00000000000E+00 0. -1.
        -12    1    4    4    0    0  0.34745295152E+02 -0.10537940531E+03 -0.39610471963E+03  0.41135265104E+03  0.00000000000E+00 0.  1.
</event>
<event>
12    1  0.8562501E-002  0.1850972E+03  0.7818608E-02  0.1163540E+00
         21   -1    0    0  501  502  0.00000000000E+00  0.00000000000E+00  0.19280549571E+03  0.19280549571E+03  0.00000000000E+00 0.  1.
         21   -1    0    0  502  503 -0.00000000000E+00 -0.00000000000E+00 -0.18991229160E+03  0.18991229160E+03  0.00000000000E+00 0.  1.
         -6    2    1    2    0  503  0.61383750064E+01 -0.61424410664E+02 -0.51584502315E+02  0.18977014382E+03  0.17187527086E+03 0.  0.
        -24    2    3    3    0    0  0.65769464709E+01  0.23589932427E+02  0.69533431315E+01  0.86443476277E+02  0.82609832789E+02 0.  0.
          6    2    1    2  501    0 -0.61383750064E+01  0.61424410664E+02  0.54477706428E+02  0.19294764348E+03  0.17450024285E+03 0.  0.
         24    2    5    5    0    0  0.48505072547E+02  0.49613622002E+02 -0.13972598795E+02  0.10444377140E+03  0.76805040953E+02 0.  0.
          5    1    5    5  501    0 -0.54643447553E+02  0.11810788662E+02  0.68450305223E+02  0.88503872087E+02  0.47000000000E+01 0. -1.
        -13    1    6    6    0    0 -0.13377491780E+02  0.38034703894E+02 -0.88548289883E+01  0.41279583126E+02  0.00000000000E+00 0.  1.
         14    1    6    6    0    0  0.61882564327E+02  0.11578918108E+02 -0.51177698065E+01  0.63164188272E+02  0.00000000000E+00 0. -1.
         -5    1    3    3    0  503 -0.43857146454E+00 -0.85014343091E+02 -0.58537845447E+02  0.10332666754E+03  0.47000000000E+01 0.  1.
         11    1    4    4    0    0  0.40769050463E+02  0.28239019425E+02 -0.51846092907E+01  0.49864194240E+02  0.00000000000E+00 0. -1.
        -12    1    4    4    0    0 -0.34192103992E+02 -0.46490869984E+01  0.12137952422E+02  0.36579282037E+02  0.00000000000E+00 0.  1.
</event>
<event>
12    1  0.8562501E-002  0.2053679E+03  0.7818608E-02  0.1145448E+00
         21   -1    0    0  503  502  0.00000000000E+00  0.00000000000E+00  0.60051985769E+03  0.60051985769E+03  0.00000000000E+00 0. -1.
         21   -1    0    0  501  503 -0.00000000000E+00 -0.00000000000E+00 -0.16544067221E+03  0.16544067221E+03  0.00000000000E+00 0. -1.
          6    2    1    2  501    0  0.10818199870E+03 -0.25327854281E+02 -0.73224347231E+02  0.21803158997E+03  0.17271689018E+03 0.  0.
         24    2    3    3    0    0  0.28522379304E+01 -0.69957155769E+02 -0.27536004797E+02  0.94760962128E+02  0.57613101624E+02 0.  0.
         -6    2    1    2    0  502 -0.10818199870E+03  0.25327854281E+02  0.50830353271E+03  0.54792893992E+03  0.17178124692E+03 0.  0.
        -24    2    5    5    0    0 -0.72455219583E+02  0.25525785219E+02  0.49844049728E+03  0.51056838063E+03  0.79597848017E+02 0.  0.
          5    1    3    3  501    0  0.10532976077E+03  0.44629301488E+02 -0.45688342434E+02  0.12327062785E+03  0.47000000000E+01 0. -1.
        -11    1    4    4    0    0 -0.19573237032E+01 -0.58158169539E+01  0.15969620750E+02  0.17107999001E+02  0.00000000000E+00 0.  1.
         12    1    4    4    0    0  0.48095616336E+01 -0.64141338815E+02 -0.43505625547E+02  0.77652963127E+02  0.00000000000E+00 0. -1.
         -5    1    5    5    0  502 -0.35726779118E+02 -0.19793093787E+00  0.98630354253E+01  0.37360559292E+02  0.47000000000E+01 0.  1.
         11    1    6    6    0    0 -0.72359505893E+02 -0.17889219893E+01  0.23969975341E+03  0.25038983629E+03  0.00000000000E+00 0. -1.
        -12    1    6    6    0    0 -0.95713689650E-01  0.27314707208E+02  0.25874074388E+03  0.26017854434E+03  0.00000000000E+00 0.  1.
</event>
<event>
12    1  0.8562501E-002  0.2231529E+03  0.7818608E-02  0.1132745E+00
         21   -1    0    0  503  502  0.00000000000E+00  0.00000000000E+00  0.10301536030E+04  0.10301536030E+04  0.00000000000E+00 0.  1.
         21   -1    0    0  501  503 -0.00000000000E+00 -0.00000000000E+00 -0.51089803471E+02  0.51089803471E+02  0.00000000000E+00 0. -1.
          6    2    1    2  501    0 -0.13963185853E+03  0.30457354264E+02  0.34243068165E+03  0.40872481439E+03  0.17138405942E+03 0.  0.
         24    2    3    3    0    0 -0.10106463053E+02  0.22382546123E+02  0.19522182088E+03  0.21242257475E+03  0.80054181355E+02 0.  0.
         -6    2    1    2    0  502  0.13963185853E+03 -0.30457354264E+02  0.63663311784E+03  0.67251859204E+03  0.16295650818E+03 0.  0.
        -24    2    5    5    0    0  0.15574445707E+03  0.63964399928E+01  0.48413532433E+03  0.51473556060E+03  0.79173447133E+02 0.  0.
          5    1    3    3  501    0 -0.12952539547E+03  0.80748081403E+01  0.14720886077E+03  0.19630223964E+03  0.47000000000E+01 0. -1.
        -13    1    4    4    0    0 -0.89270024598E+00 -0.29995037812E+02  0.82413553180E+02  0.87706858084E+02  0.00000000000E+00 0.  1.
         14    1    4    4    0    0 -0.92137628073E+01  0.52377583936E+02  0.11280826770E+03  0.12471571667E+03  0.00000000000E+00 0. -1.
         -5    1    5    5    0  502 -0.16112598545E+02 -0.36853794256E+02  0.15249779351E+03  0.15778303144E+03  0.47000000000E+01 0.  1.
         13    1    6    6    0    0  0.72499899212E+02 -0.24626502401E+02  0.14284024515E+03  0.16206799697E+03  0.00000000000E+00 0. -1.
        -14    1    6    6    0    0  0.83244557858E+02  0.31022942393E+02  0.34129507918E+03  0.35266756363E+03  0.00000000000E+00 0.  1.
</event>
<event>
12    1  0.8562501E-002  0.1796025E+03  0.7818608E-02  0.1168995E+00
         21   -1    0    0  501  502  0.00000000000E+00  0.00000000000E+00  0.12687361730E+03  0.12687361730E+03  0.00000000000E+00 0.  1.
         21   -1    0    0  502  503 -0.00000000000E+00 -0.00000000000E+00 -0.63824123180E+03  0.63824123180E+03  0.00000000000E+00 0.  1.
         -6    2    1    2    0  503  0.37780945011E+01  0.52030062817E+02 -0.55512591859E+03  0.58345681581E+03  0.17185944546E+03 0.  0.
        -24    2    3    3    0    0 -0.58472385950E+02  0.18517111517E+02 -0.23605282767E+03  0.25661133616E+03  0.79790582509E+02 0.  0.
          6    2    1    2  501    0 -0.37780945011E+01 -0.52030062817E+02  0.43758304089E+02  0.18165803329E+03  0.16841451971E+03 0.  0.
         24    2    5    5    0    0 -0.64531366488E+02 -0.25024455049E+02  0.65248261614E+02  0.11162824547E+03  0.58420963117E+02 0.  0.
          5    1    5    5  501    0  0.60753271987E+02 -0.27005607769E+02 -0.21489957525E+02  0.70029787822E+02  0.47000000000E+01 0. -1.
        -13    1    6    6    0    0  0.26423041798E+01 -0.12186644065E+02 -0.51398387293E+01  0.13487550078E+02  0.00000000000E+00 0.  1.
         14    1    6    6    0    0 -0.67173670668E+02 -0.12837810984E+02  0.70388100343E+02  0.98140695391E+02  0.00000000000E+00 0. -1.
         -5    1    3    3    0  503  0.62250480451E+02  0.33512951300E+02 -0.31907309091E+03  0.32684547965E+03  0.47000000000E+01 0.  1.
         13    1    4    4    0    0 -0.39913132221E+02  0.32702279527E+02 -0.60519577328E+02  0.79530600714E+02  0.00000000000E+00 0. -1.
        -14    1    4    4    0    0 -0.18559253729E+02 -0.14185168010E+02 -0.17553325034E+03  0.17708073545E+03  0.00000000000E+00 0.  1.
</event>
<event>
12    1  0.8562501E-002  0.2067761E+03  0.7818608E-02  0.1145297E+00
         21   -1    0    0  503  502  0.00000000000E+00  0.00000000000E+00  0.85694101928E+03  0.85694101928E+03  0.00000000000E+00 0.  1.
         21   -1    0    0  501  503 -0.00000000000E+00 -0.00000000000E+00 -0.31111876458E+03  0.31111876458E+03  0.00000000000E+00 0.  1.
          6    2    1    2  501    0 -0.98429674375E+02 -0.33179968172E+02 -0.26302619621E+03  0.33457306549E+03  0.17879330292E+03 0.  0.
         24    2    3    3    0    0 -0.31944901879E+02 -0.58365351294E+02 -0.63402991115E+02  0.12261542229E+03  0.81164102367E+02 0.  0.
         -6    2    1    2    0  502  0.98429674375E+02  0.33179968172E+02  0.80884845091E+03  0.83348671837E+03  0.17226427973E+03 0.  0.
        -24    2    5    5    0    0  0.20830063271E+02  0.47780896640E+02  0.14526207433E+03  0.16520245554E+03  0.58939591612E+02 0.  0.
          5    1    3    3  501    0 -0.66484772496E+02  0.25185383122E+02 -0.19962320510E+03  0.21195764320E+03  0.47000000000E+01 0. -1.
        -11    1    4    4    0    0 -0.40243354671E+02 -0.88063026642E+01 -0.59292062783E+02  0.72198526792E+02  0.00000000000E+00 0.  1.
         12    1    4    4    0    0  0.82984527922E+01 -0.49559048630E+02 -0.41109283323E+01  0.50416895498E+02  0.00000000000E+00 0. -1.
         -5    1    5    5    0  502  0.77599611105E+02 -0.14600928468E+02  0.66358637658E+03  0.66828426283E+03  0.47000000000E+01 0.  1.
         11    1    6    6    0    0 -0.18826332864E+02  0.57233217429E+01  0.25405134926E+02  0.32134220100E+02  0.00000000000E+00 0. -1.
        -12    1    6    6    0    0  0.39656396134E+02  0.42057574897E+02  0.11985693940E+03  0.13306823544E+03  0.00000000000E+00 0.  1.
</event>
<event>
12    1  0.8562501E-002  0.1875695E+03  0.7818608E-02  0.1160690E+00
         21   -1    0    0  503  502  0.00000000000E+00  0.00000000000E+00  0.66368928072E+02  0.66368928072E+02  0.00000000000E+00 0.  1.
         21   -1    0    0  501  503 -0.00000000000E+00 -0.00000000000E+00 -0.72095778810E+03  0.72095778810E+03  0.00000000000E+00 0.  1.
          6    2    1    2  501    0  0.56194192467E+02  0.46149043558E+02 -0.53000661112E+03  0.56221821488E+03  0.17290110417E+03 0.  0.
         24    2    3    3    0    0  0.72582046800E+02  0.75609834122E+02 -0.49794309286E+03  0.51545648744E+03  0.82237863407E+02 0.  0.
         -6    2    1    2    0  502 -0.56194192467E+02 -0.46149043558E+02 -0.12458224890E+03  0.22510850129E+03  0.17281660546E+03 0.  0.
        -24    2    5    5    0    0 -0.65337513755E+02 -0.68830504395E+02 -0.14629279589E+03  0.19207084338E+03  0.80517064703E+02 0.  0.
          5    1    3    3  501    0 -0.16387854333E+02 -0.29460790564E+02 -0.32063518258E+02  0.46761727442E+02  0.47000000000E+01 0. -1.
        -11    1    4    4    0    0 -0.77782216523E+01  0.33399985425E+02 -0.23030811905E+03  0.23284735227E+03  0.00000000000E+00 0.  1.
         12    1    4    4    0    0  0.80360268452E+02  0.42209848696E+02 -0.26763497382E+03  0.28260913517E+03  0.00000000000E+00 0. -1.
         -5    1    5    5    0  502  0.91433212885E+01  0.22681460837E+02  0.21710546983E+02  0.33037657910E+02  0.47000000000E+01 0.  1.
         13    1    6    6    0    0 -0.29307047763E+02 -0.20296855613E+02 -0.12169945530E+03  0.12681333848E+03  0.00000000000E+00 0. -1.
        -14    1    6    6    0    0 -0.36030465992E+02 -0.48533648783E+02 -0.24593340582E+02  0.65257504892E+02  0.00000000000E+00 0.  1.
</event>
<event>
12    1  0.8562501E-002  0.2094831E+03  0.7818608E-02  0.1142420E+00
         21   -1    0    0  503  502  0.00000000000E+00  0.00000000000E+00  0.46976663681E+03  0.46976663681E+03  0.00000000000E+00 0.  1.
         21   -1    0    0  501  503 -0.00000000000E+00 -0.00000000000E+00 -0.11988475367E+03  0.11988475367E+03  0.00000000000E+00 0.  1.
          6    2    1    2  501    0 -0.70746159255E+02  0.95072864459E+02  0.33125394103E+02  0.20989112421E+03  0.17003859468E+03 0.  0.
         24    2    3    3    0    0 -0.26279874163E+02  0.71887361507E+02 -0.42860607399E+02  0.11872764204E+03  0.80004979764E+02 0.  0.
         -6    2    1    2    0  502  0.70746159255E+02 -0.95072864459E+02  0.31675648904E+03  0.37976026628E+03  0.17274060869E+03 0.  0.
        -24    2    5    5    0    0  0.10449486236E+03 -0.50086668860E+02  0.27883734099E+03  0.31176993944E+03  0.77604006008E+02 0.  0.
          5    1    3    3  501    0 -0.44466285092E+02  0.23185502952E+02  0.75986001501E+02  0.91163482169E+02  0.47000000000E+01 0. -1.
        -13    1    4    4    0    0 -0.28951889471E+02  0.85522251043E+02 -0.20797713630E+02  0.92654261746E+02  0.00000000000E+00 0.  1.
         14    1    4    4    0    0  0.26720153078E+01 -0.13634889536E+02 -0.22062893768E+02  0.26073380293E+02  0.00000000000E+00 0. -1.
         -5    1    5    5    0  502 -0.33748703102E+02 -0.44986195599E+02  0.37919148047E+02  0.67990326843E+02  0.47000000000E+01 0.  1.
         11    1    6    6    0    0 -0.99350916336E+01  0.66658694811E+00  0.49512196307E+02  0.50503544104E+02  0.00000000000E+00 0. -1.
        -12    1    6    6    0    0  0.11442995399E+03 -0.50753255808E+02  0.22932514468E+03  0.26126639533E+03  0.00000000000E+00 0.  1.
</event>
<event>
12    1  0.8562501E-002  0.2871652E+03  0.7818608E-02  0.1091878E+00
         21   -1    0    0  503  502  0.00000000000E+00  0.00000000000E+00  0.31407739985E+03  0.31407739985E+03  0.00000000000E+00 0. -1.
         21   -1    0    0  501  503 -0.00000000000E+00 -0.00000000000E+00 -0.53179765089E+03  0.53179765089E+03  0.00000000000E+00 0.  1.
          6    2    1    2  501    0  0.21368623783E+03  0.84651655484E+02 -0.40997582327E+03  0.50054371720E+03  0.17215146281E+03 0.  0.
         24    2    3    3    0    0  0.21892015350E+03  0.36605023326E+02 -0.35888752098E+03  0.43005983701E+03  0.82977402681E+02 0.  0.
         -6    2    1    2    0  502 -0.21368623783E+03 -0.84651655484E+02  0.19225557223E+03  0.34533133354E+03  0.17165026612E+03 0.  0.
        -24    2    5    5    0    0 -0.76079125013E+02  0.26340441674E+02  0.49010863285E+02  0.11774376848E+03  0.70566834744E+02 0.  0.
          5    1    3    3  501    0 -0.52339156756E+01  0.48046632158E+02 -0.51088302296E+02  0.70483880189E+02  0.47000000000E+01 0. -1.
        -13    1    4    4    0    0  0.13818495135E+03  0.11045189093E+02 -0.28798272118E+03  0.31961089575E+03  0.00000000000E+00 0.  1.
         14    1    4    4    0    0  0.80735202148E+02  0.25559834232E+02 -0.70904799795E+02  0.11044894126E+03  0.00000000000E+00 0. -1.
         -5    1    5    5    0  502 -0.13760711281E+03 -0.11099209716E+03  0.14324470895E+03  0.22758756506E+03  0.47000000000E+01 0.  1.
         11    1    6    6    0    0 -0.46700597835E+02  0.30260874185E+02  0.63767658953E+02  0.84634394149E+02  0.00000000000E+00 0. -1.
        -12    1    6    6    0    0 -0.29378527178E+02 -0.39204325110E+01 -0.14756795669E+02  0.33109374332E+02  0.00000000000E+00 0.  1.
</event>
<event>
12    1  0.8562501E-002  0.1745084E+03  0.7818608E-02  0.1174602E+00
         21   -1    0    0  503  502  0.00000000000E+00  0.00000000000E+00  0.16762951108E+03  0.16762951108E+03  0.00000000000E+00 0.  1.
         21   -1    0    0  501  503 -0.00000000000E+00 -0.00000000000E+00 -0.17891559577E+03  0.17891559577E+03  0.00000000000E+00 0.  1.
          6    2    1    2  501    0  0.14186126288E+02  0.10265984658E+02 -0.27371772389E+02  0.17664197094E+03  0.17362757659E+03 0.  0.
         24    2    3    3    0    0 -0.29210857586E+02  0.48024576124E+02 -0.60009333034E+02  0.11033729686E+03  0.73576931952E+02 0.  0.
         -6    2    1    2    0  502 -0.14186126288E+02 -0.10265984658E+02  0.16085687698E+02  0.16990313591E+03  0.16823106022E+03 0.  0.
        -24    2    5    5    0    0 -0.60275417580E+02  0.33161667939E+02  0.12832164789E+02  0.10631965383E+03  0.80039878515E+02 0.  0.
          5    1    3    3  501    0  0.43396983874E+02 -0.37758591466E+02  0.32637560645E+02  0.66304674071E+02  0.47000000000E+01 0. -1.
        -13    1    4    4    0    0 -0.52020803979E+01  0.51606770181E+02 -0.73945253623E+01  0.52392741619E+02  0.00000000000E+00 0.  1.
         14    1    4    4    0    0 -0.24008777188E+02 -0.35821940575E+01 -0.52614807671E+02  0.57944555246E+02  0.00000000000E+00 0. -1.
         -5    1    5    5    0  502  0.46089291291E+02 -0.43427652597E+02  0.32535229097E+01  0.63583482078E+02  0.47000000000E+01 0.  1.
         11    1    6    6    0    0 -0.58432386080E+02  0.28917211342E+02 -0.23793899552E+02  0.69402438795E+02  0.00000000000E+00 0. -1.
        -12    1    6    6    0    0 -0.18430314999E+01  0.42444565964E+01  0.36626064341E+02  0.36917215036E+02  0.00000000000E+00 0.  1.
</event>
<event>
12    1  0.8562501E-002  0.2898968E+03  0.7818608E-02  0.1090697E+00
         21   -1    0    0  501  502  0.00000000000E+00  0.00000000000E+00  0.31256326935E+03  0.31256326935E+03  0.00000000000E+00 0. -1.
         21   -1    0    0  502  503 -0.00000000000E+00 -0.00000000000E+00 -0.28976221510E+03  0.28976221510E+03  0.00000000000E+00 0.  1.
         -6    2    1    2    0  503  0.21920217482E+03  0.71009323007E+02 -0.73418207956E+02  0.29687778835E+03  0.17220415372E+03 0.  0.
        -24    2    3    3    0    0  0.15938764228E+03  0.11183908911E+03 -0.29855853518E+02  0.21223372874E+03  0.78989754146E+02 0.  0.
          6    2    1    2  501    0 -0.21920217482E+03 -0.71009323007E+02  0.96219262209E+02  0.30544769611E+03  0.17592109379E+03 0.  0.
         24    2    5    5    0    0 -0.11591971201E+03  0.28610201534E+02  0.36586652649E+02  0.14998241086E+03  0.83067545718E+02 0.  0.
          5    1    5    5  501    0 -0.10328246280E+03 -0.99619524541E+02  0.59632609560E+02  0.15546528524E+03  0.47000000000E+01 0. -1.
        -11    1    6    6    0    0 -0.53516582465E+02 -0.15538236778E+02 -0.15064457864E+02  0.57726937314E+02  0.00000000000E+00 0.  1.
         12    1    6    6    0    0 -0.62403129548E+02  0.44148438313E+02  0.51651110513E+02  0.92255473550E+02  0.00000000000E+00 0. -1.
         -5    1    3    3    0  503  0.59814532532E+02 -0.40829766108E+02 -0.43562354439E+02  0.84644059607E+02  0.47000000000E+01 0.  1.
         13    1    4    4    0    0  0.24597805781E+02  0.47537214402E+02  0.16250092697E+02  0.55936609792E+02  0.00000000000E+00 0. -1.
        -14    1    4    4    0    0  0.13478983650E+03  0.64301874713E+02 -0.46105946215E+02  0.15629711895E+03  0.00000000000E+00 0.  1.
</event>
<event>
12    1  0.8562501E-002  0.1827932E+03  0.7818608E-02  0.1165140E+00
         21   -1    0    0  501  502  0.00000000000E+00  0.00000000000E+00  0.11279690177E+04  0.11279690177E+04  0.00000000000E+00 0.  1.
         21   -1    0    0  502  503 -0.00000000000E+00 -0.00000000000E+00 -0.32382012885E+02  0.32382012885E+02  0.00000000000E+00 0.  1.
         -6    2    1    2    0  503  0.48879362142E+02  0.40307435778E+02  0.37823760321E+03  0.42009168625E+03  0.17146270428E+03 0.  0.
        -24    2    3    3    0    0  0.20057784483E+01  0.51812987783E+02  0.10499241844E+03  0.14257676490E+03  0.81339517516E+02 0.  0.
          6    2    1    2  501    0 -0.48879362142E+02 -0.40307435778E+02  0.71734940160E+03  0.74025934433E+03  0.17140551759E+03 0.  0.
         24    2    5    5    0    0  0.38628749030E+02 -0.23490897938E+02  0.43073654114E+03  0.44007692104E+03  0.78036696641E+02 0.  0.
          5    1    5    5  501    0 -0.87508111172E+02 -0.16816537840E+02  0.28661286046E+03  0.30018242328E+03  0.47000000000E+01 0. -1.
        -13    1    6    6    0    0 -0.62191326516E+01  0.21763513546E+02  0.64899047974E+02  0.68732921958E+02  0.00000000000E+00 0.  1.
         14    1    6    6    0    0  0.44847881682E+02 -0.45254411484E+02  0.36583749317E+03  0.37134399909E+03  0.00000000000E+00 0. -1.
         -5    1    3    3    0  503  0.46873583693E+02 -0.11505552005E+02  0.27324518477E+03  0.27751492135E+03  0.47000000000E+01 0.  1.
         13    1    4    4    0    0  0.24500250877E+02  0.64201169659E+02  0.88543260052E+02  0.11208015605E+03  0.00000000000E+00 0. -1.
        -14    1    4    4    0    0 -0.22494472429E+02 -0.12388181876E+02  0.16449158388E+02  0.30496608856E+02  0.00000000000E+00 0.  1.
</event>
<event>
12    1  0.8562501E-002  0.2128066E+03  0.7818608E-02  0.1139568E+00
         21   -1    0    0  501  502  0.00000000000E+00  0.00000000000E+00  0.73007701214E+03  0.73007701214E+03  0.00000000000E+00 0. -1.
         21   -1    0    0  502  503 -0.00000000000E+00 -0.00000000000E+00 -0.92737249647E+02  0.92737249647E+02  0.00000000000E+00 0.  1.
         -6    2    1    2    0  503  0.12174192654E+03  0.21479244207E+02  0.81279588444E+02  0.22780036451E+03  0.17321714685E+03 0.  0.
        -24    2    3    3    0    0  0.70021050230E-01  0.26966335583E+02  0.65525358042E+02  0.10490021588E+03  0.77351758785E+02 0.  0.
          6    2    1    2  501    0 -0.12174192654E+03 -0.21479244207E+02  0.55606017405E+03  0.59501389728E+03  0.17191906870E+03 0.  0.
         24    2    5    5    0    0 -0.68785885222E+02 -0.31501292889E+02  0.15402979039E+03  0.18935973034E+03  0.80050619529E+02 0.  0.
          5    1    5    5  501    0 -0.52956041319E+02  0.10022048682E+02  0.40203038366E+03  0.40565416694E+03  0.47000000000E+01 0. -1.
        -11    1    6    6    0    0 -0.57302297151E+00 -0.39219544165E+02  0.38424857488E+02  0.54908748600E+02  0.00000000000E+00 0.  1.
         12    1    6    6    0    0 -0.68212862250E+02  0.77182512767E+01  0.11560493290E+03  0.13445098174E+03  0.00000000000E+00 0. -1.
         -5    1    3    3    0  503  0.12167190549E+03 -0.54870913759E+01  0.15754230402E+02  0.12290014863E+03  0.47000000000E+01 0.  1.
         13    1    4    4    0    0  0.36302776956E+02 -0.68653332659E+00  0.30436587345E+02  0.47378779975E+02  0.00000000000E+00 0. -1.
        -14    1    4    4    0    0 -0.36232755905E+02  0.27652868910E+02  0.35088770698E+02  0.57521435904E+02  0.00000000000E+00 0.  1.
</event>
<event>
12    1  0.8562501E-002  0.2045489E+03  0.7818608E-02  0.1146087E+00
         21   -1    0    0  501  502  0.00000000000E+00  0.00000000000E+00  0.44134817134E+02  0.44134817134E+02  0.00000000000E+00 0. -1.
         21   -1    0    0  502  503 -0.00000000000E+00 -0.00000000000E+00 -0.25275158269E+04  0.25275158269E+04  0.00000000000E+00 0. -1.
         -6    2    1    2    0  503 -0.11101531291E+03  0.52194611528E+01 -0.22583859277E+04  0.22675732603E+04  0.17096739453E+03 0.  0.
        -24    2    3    3    0    0 -0.12839179585E+03 -0.33919620187E+02 -0.19586354707E+04  0.19647428848E+04  0.79540571532E+02 0.  0.
          6    2    1    2  501    0  0.11101531291E+03 -0.52194611528E+01 -0.22499508204E+03  0.30407738370E+03  0.17172252577E+03 0.  0.
         24    2    5    5    0    0  0.85312914947E+02 -0.58535805660E+02 -0.11728725918E+03  0.18108831525E+03  0.91279476069E+02 0.  0.
          5    1    5    5  501    0  0.25702397962E+02  0.53316344507E+02 -0.10770782286E+03  0.12298906845E+03  0.47000000000E+01 0. -1.
        -11    1    6    6    0    0  0.29847188648E+02  0.23106437545E+02 -0.45071222852E+02  0.58789261397E+02  0.00000000000E+00 0.  1.
         12    1    6    6    0    0  0.55465726298E+02 -0.81642243204E+02 -0.72216036329E+02  0.12229905385E+03  0.00000000000E+00 0. -1.
         -5    1    3    3    0  503  0.17376482938E+02  0.39139081340E+02 -0.29975045702E+03  0.30283037551E+03  0.47000000000E+01 0.  1.
         13    1    4    4    0    0 -0.84215934275E+02  0.12186373178E+02 -0.13735766636E+04  0.13762098975E+04  0.00000000000E+00 0. -1.
        -14    1    4    4    0    0 -0.44175861571E+02 -0.46105993365E+02 -0.58505880711E+03  0.58853298731E+03  0.00000000000E+00 0.  1.
</event>
<event>
12    1  0.8562501E-002  0.2031942E+03  0.7818608E-02  0.1148173E+00
         21   -1    0    0  501  502  0.00000000000E+00  0.00000000000E+00  0.97452490307E+03  0.97452490307E+03  0.00000000000E+00 0. -1.
         21   -1    0    0  502  503 -0.00000000000E+00 -0.00000000000E+00 -0.15679512184E+03  0.15679512184E+03  0.00000000000E+00 0. -1.
         -6    2    1    2    0  503  0.75579304038E+02 -0.64981018625E+02 -0.75238941167E+02  0.21667665558E+03  0.17706809658E+03 0.  0.
        -24    2    3    3    0    0  0.11436453370E+03 -0.75550459324E+02 -0.43555124209E+02  0.16527664222E+03  0.81438327244E+02 0.  0.
          6    2    1    2  501    0 -0.75579304038E+02  0.64981018625E+02  0.89296872240E+03  0.91464336932E+03  0.17101049642E+03 0.  0.
         24    2    5    5    0    0  0.95358930271E+01 -0.14110085234E+02  0.40416052971E+03  0.41219383084E+03  0.79170655220E+02 0.  0.
          5    1    5    5  501    0 -0.85115197065E+02  0.79091103860E+02  0.48880819269E+03  0.50244953848E+03  0.47000000000E+01 0. -1.
        -11    1    6    6    0    0 -0.33293559438E+02 -0.13823968614E+02  0.13911269260E+03  0.14370770491E+03  0.00000000000E+00 0.  1.
         12    1    6    6    0    0  0.42829452465E+02 -0.28611661992E+00  0.26504783711E+03  0.26848612593E+03  0.00000000000E+00 0. -1.
         -5    1    3    3    0  503 -0.38785229665E+02  0.10569440698E+02 -0.31683816958E+02  0.51400013364E+02  0.47000000000E+01 0.  1.
         11    1    4    4    0    0  0.43732769371E+02 -0.74484386936E+02 -0.96190481539E+01  0.86908026681E+02  0.00000000000E+00 0. -1.
        -12    1    4    4    0    0  0.70631764331E+02 -0.10660723875E+01 -0.33936076055E+02  0.78368615535E+02  0.00000000000E+00 0.  1.
</event>
<event>
12    1  0.8562501E-002  0.1960193E+03  0.7818608E-02  0.1155977E+00
         21   -1    0    0  503  502  0.00000000000E+00  0.00000000000E+00  0.26060862785E+03  0.26060862785E+03  0.00000000000E+00 0.  1.
         21   -1    0    0  501  503 -0.00000000000E+00 -0.00000000000E+00 -0.13913131980E+03  0.13913131980E+03  0.00000000000E+00 0. -1.
          6    2    1    2  501    0 -0.32427857590E+02  0.68137827917E+02  0.45435567019E+02  0.20121621039E+03  0.18091225230E+03 0.  0.
         24    2    3    3    0    0 -0.56592560616E+02  0.10836066875E+02  0.82346395170E+02  0.12874605153E+03  0.80464145579E+02 0.  0.
         -6    2    1    2    0  502  0.32427857590E+02 -0.68137827917E+02  0.76041741033E+02  0.19852373726E+03  0.16713766283E+03 0.  0.
        -24    2    5    5    0    0  0.31781985674E+02 -0.35834893283E+02  0.11524912677E+03  0.14750211603E+03  0.78614749388E+02 0.  0.
          5    1    3    3  501    0  0.24164703026E+02  0.57301761043E+02 -0.36910828151E+02  0.72470158864E+02  0.47000000000E+01 0. -1.
        -13    1    4    4    0    0  0.18041022998E+01 -0.10662503926E+02  0.62501399721E+02  0.63430030287E+02  0.00000000000E+00 0.  1.
         14    1    4    4    0    0 -0.58396662916E+02  0.21498570801E+02  0.19844995449E+02  0.65316021240E+02  0.00000000000E+00 0. -1.
         -5    1    5    5    0  502  0.64587191620E+00 -0.32302934634E+02 -0.39207385741E+02  0.51021621232E+02  0.47000000000E+01 0.  1.
         13    1    6    6    0    0  0.51714058558E+02 -0.19965058144E+02  0.40845548065E+02  0.68857143390E+02  0.00000000000E+00 0. -1.
        -14    1    6    6    0    0 -0.19932072884E+02 -0.15869835139E+02  0.74403578710E+02  0.78644972640E+02  0.00000000000E+00 0.  1.
</event>
<event>
12    1  0.8562501E-002  0.1903029E+03  0.7818608E-02  0.1158223E+00
         21   -1    0    0  503  502  0.00000000000E+00  0.00000000000E+00  0.25297544580E+03  0.25297544580E+03  0.00000000000E+00 0. -1.
         21   -1    0    0  501  503 -0.00000000000E+00 -0.00000000000E+00 -0.15908871565E+03  0.15908871565E+03  0.00000000000E+00 0. -1.
          6    2    1    2  501    0 -0.48243935548E+02 -0.64112022282E+02 -0.18473451790E+02  0.19119745317E+03  0.17256120352E+03 0.  0.
         24    2    3    3    0    0  0.26040374188E+02 -0.73972571068E+02 -0.30812537109E+02  0.11510716390E+03  0.78423238773E+02 0.  0.
         -6    2    1    2    0  502  0.48243935548E+02  0.64112022282E+02  0.11236018194E+03  0.22086670828E+03  0.17239333984E+03 0.  0.
        -24    2    5    5    0    0 -0.17186227949E+02  0.73781455277E+02  0.11003678734E+03  0.15451844235E+03  0.77645250239E+02 0.  0.
          5    1    3    3  501    0 -0.74284309737E+02  0.98605487857E+01  0.12339085319E+02  0.76090289275E+02  0.47000000000E+01 0. -1.
        -11    1    4    4    0    0 -0.25719187776E+02 -0.27637560009E+02  0.29491962631E+01  0.37868312633E+02  0.00000000000E+00 0.  1.
         12    1    4    4    0    0  0.51759561965E+02 -0.46335011059E+02 -0.33761733373E+02  0.77238851266E+02  0.00000000000E+00 0. -1.
         -5    1    5    5    0  502  0.65430163498E+02 -0.96694329946E+01  0.23233946037E+01  0.66348265932E+02  0.47000000000E+01 0.  1.
         13    1    6    6    0    0 -0.36741060650E+01  0.76552864961E+02  0.46811891227E+02  0.89806421537E+02  0.00000000000E+00 0. -1.
        -14    1    6    6    0    0 -0.13512121884E+02 -0.27714096841E+01  0.63224896109E+02  0.64712020811E+02  0.00000000000E+00 0.  1.
</event>
<event>
12    1  0.8562501E-002  0.2142376E+03  0.7818608E-02  0.1138256E+00
         21   -1    0    0  501  502  0.00000000000E+00  0.00000000000E+00  0.42386064414E+03  0.42386064414E+03  0.00000000000E+00 0. -1.
         21   -1    0    0  502  503 -0.00000000000E+00 -0.00000000000E+00 -0.44446336627E+03  0.44446336627E+03  0.00000000000E+00 0. -1.
         -6    2    1    2    0  503  0.12432511026E+03  0.29520795224E+02 -0.38789285148E+03  0.44311842478E+03  0.17194436237E+03 0.  0.
        -24    2    3    3    0    0 -0.52820004957E+01  0.43412241661E+02 -0.16069160460E+03  0.18113851710E+03  0.71252005804E+02 0.  0.
          6    2    1    2  501    0 -0.12432511026E+03 -0.29520795224E+02  0.36729012935E+03  0.42520558563E+03  0.17195796155E+03 0.  0.
         24    2    5    5    0    0 -0.77832872681E+02  0.20939353417E+02  0.11238282014E+03  0.16118365275E+03  0.82788036929E+02 0.  0.
          5    1    5    5  501    0 -0.46492237580E+02 -0.50460148642E+02  0.25490730921E+03  0.26402193288E+03  0.47000000000E+01 0. -1.
        -11    1    6    6    0    0 -0.93128256474E+02  0.17564340491E+02  0.11023719664E+03  0.14537406142E+03  0.00000000000E+00 0.  1.
         12    1    6    6    0    0  0.15295383793E+02  0.33750129259E+01  0.21456234986E+01  0.15809591324E+02  0.00000000000E+00 0. -1.
         -5    1    3    3    0  503  0.12960711076E+03 -0.13891446437E+02 -0.22720124688E+03  0.26197990768E+03  0.47000000000E+01 0.  1.
         11    1    4    4    0    0  0.83896891134E+01  0.52792802426E+02 -0.15442182581E+03  0.16341226134E+03  0.00000000000E+00 0. -1.
        -12    1    4    4    0    0 -0.13671689609E+02 -0.93805607642E+01 -0.62697787989E+01  0.17726255758E+02  0.00000000000E+00 0.  1.
</event>
<event>
12    1  0.8562501E-002  0.2004504E+03  0.7818608E-02  0.1149533E+00
         21   -1    0    0  501  502  0.00000000000E+00  0.00000000000E+00  0.88107958067E+02  0.88107958067E+02  0.00000000000E+00 0.  1.
         21   -1    0    0  502  503 -0.00000000000E+00 -0.00000000000E+00 -0.52366999794E+03  0.52366999794E+03  0.00000000000E+00 0. -1.
         -6    2    1    2    0  503  0.93059069917E+02 -0.45228031668E+02 -0.32960631546E+03  0.38577286033E+03  0.17168229738E+03 0.  0.
        -24    2    3    3    0    0 -0.12171899646E+02 -0.43430772498E+02 -0.11154799252E+03  0.14359873021E+03  0.78378910059E+02 0.  0.
          6    2    1    2  501    0 -0.93059069917E+02  0.45228031668E+02 -0.10595572441E+03  0.22600509568E+03  0.17072235470E+03 0.  0.
         24    2    5    5    0    0  0.52652597302E+01  0.12365684549E+02 -0.90626869810E+02  0.12110194300E+03  0.79194810131E+02 0.  0.
          5    1    5    5  501    0 -0.98324329647E+02  0.32862347118E+02 -0.15328854603E+02  0.10490315268E+03  0.47000000000E+01 0. -1.
        -11    1    6    6    0    0 -0.14463198607E+02  0.43111941091E+01  0.10090767555E+02  0.18154726614E+02  0.00000000000E+00 0.  1.
         12    1    6    6    0    0  0.19728458338E+02  0.80544904402E+01 -0.10071763736E+03  0.10294721638E+03  0.00000000000E+00 0. -1.
         -5    1    3    3    0  503  0.10523096956E+03 -0.17972591696E+01 -0.21805832295E+03  0.24217413012E+03  0.47000000000E+01 0.  1.
         13    1    4    4    0    0  0.20800017533E+02 -0.23128624563E+02 -0.97608290248E+02  0.10244487458E+03  0.00000000000E+00 0. -1.
        -14    1    4    4    0    0 -0.32971917180E+02 -0.20302147935E+02 -0.13939702268E+02  0.41153855623E+02  0.00000000000E+00 0.  1.
</event>
<event>
12    1  0.8562501E-002  0.2300067E+03  0.7818608E-02  0.1126819E+00
         21   -1    0    0  501  502  0.00000000000E+00  0.00000000000E+00  0.75865900725E+02  0.75865900725E+02  0.00000000000E+00 0.  1.
         21   -1    0    0  502  503 -0.00000000000E+00 -0.00000000000E+00 -0.81802918477E+03  0.81802918477E+03  0.00000000000E+00 0.  1.
         -6    2    1    2    0  503  0.14729074152E+03  0.36959793422E+02 -0.54428198932E+03  0.59048102231E+03  0.17136033654E+03 0.  0.
        -24    2    3    3    0    0  0.31575420235E+02  0.64685793582E+02 -0.17562429506E+03  0.20306735167E+03  0.72188622658E+02 0.  0.
          6    2    1    2  501    0 -0.14729074152E+03 -0.36959793422E+02 -0.19788129472E+03  0.30341406318E+03  0.17274981352E+03 0.  0.
         24    2    5    5    0    0 -0.55419605771E+02 -0.81591384393E+02 -0.94603031515E+02  0.15808418275E+03  0.79450541547E+02 0.  0.
          5    1    5    5  501    0 -0.91871135753E+02  0.44631590972E+02 -0.10327826321E+03  0.14532988044E+03  0.47000000000E+01 0. -1.
        -11    1    6    6    0    0 -0.70408374993E+02 -0.53819419699E+02 -0.45255640230E+02  0.99508503046E+02  0.00000000000E+00 0.  1.
         12    1    6    6    0    0  0.14988769222E+02 -0.27771964694E+02 -0.49347391285E+02  0.58575679701E+02  0.00000000000E+00 0. -1.
         -5    1    3    3    0  503  0.11571532129E+03 -0.27726000161E+02 -0.36865769426E+03  0.38741367064E+03  0.47000000000E+01 0.  1.
         11    1    4    4    0    0  0.45601694319E+02  0.32456596919E+02 -0.59280168129E+02  0.81529648238E+02  0.00000000000E+00 0. -1.
        -12    1    4    4    0    0 -0.14026274084E+02  0.32229196663E+02 -0.11634412694E+03  0.12153770343E+03  0.00000000000E+00 0.  1.
</event>
<event>
12    1  0.8562501E-002  0.1775557E+03  0.7818608E-02  0.1170274E+00
         21   -1    0    0  503  502  0.00000000000E+00  0.00000000000E+00  0.37862933074E+03  0.37862933074E+03  0.00000000000E+00 0. -1.
         21   -1    0    0  501  503 -0.00000000000E+00 -0.00000000000E+00 -0.12043248712E+03  0.12043248712E+03  0.00000000000E+00 0. -1.
          6    2    1    2  501    0  0.18452226494E+02  0.34890347129E+02 -0.97392100943E+01  0.17782258078E+03  0.17311324917E+03 0.  0.
         24    2    3    3    0    0 -0.47027915602E+02  0.50733288598E+02 -0.22016995160E+02  0.10918234616E+03  0.81550875037E+02 0.  0.
         -6    2    1    2    0  502 -0.18452226494E+02 -0.34890347129E+02  0.26793605372E+03  0.32123923708E+03  0.17276312562E+03 0.  0.
        -24    2    5    5    0    0  0.30643513357E+02 -0.18999809718E+02  0.54150140595E+02  0.10126331226E+03  0.77601565730E+02 0.  0.
          5    1    3    3  501    0  0.65480142096E+02 -0.15842941469E+02  0.12277785066E+02  0.68640234625E+02  0.47000000000E+01 0. -1.
        -11    1    4    4    0    0  0.72924144598E+00  0.24777695048E+02 -0.44038809846E+02  0.50535954899E+02  0.00000000000E+00 0.  1.
         12    1    4    4    0    0 -0.47757157048E+02  0.25955593550E+02  0.22021814686E+02  0.58646391260E+02  0.00000000000E+00 0. -1.
         -5    1    5    5    0  502 -0.49095739851E+02 -0.15890537410E+02  0.21378591312E+03  0.21997592482E+03  0.47000000000E+01 0.  1.
         11    1    6    6    0    0  0.50272731274E+02 -0.26480089526E+01  0.11645756880E+02  0.51671879340E+02  0.00000000000E+00 0. -1.
        -12    1    6    6    0    0 -0.19629217917E+02 -0.16351800766E+02  0.42504383715E+02  0.49591432923E+02  0.00000000000E+00 0.  1.
</event>
<event>
12    1  0.8562501E-002  0.2527154E+03  0.7818608E-02  0.1111792E+00
         21   -1    0    0  501  502  0.00000000000E+00  0.00000000000E+00  0.26302955575E+03  0.26302955575E+03  0.00000000000E+00 0.  1.
         21   -1    0    0  502  503 -0.00000000000E+00 -0.00000000000E+00 -0.51550233954E+03  0.51550233954E+03  0.00000000000E+00 0.  1.
         -6    2    1    2    0  503  0.43780982414E+02 -0.17974007597E+03 -0.40982173212E+03  0.48083449548E+03  0.17036634232E+03 0.  0.
        -24    2    3    3    0    0  0.66141019052E+02 -0.46789790735E+02 -0.17834287063E+03  0.21291603232E+03  0.83445421675E+02 0.  0.
          6    2    1    2  501    0 -0.43780982414E+02  0.17974007597E+03  0.15734894833E+03  0.29769739981E+03  0.17216788603E+03 0.  0.
         24    2    5    5    0    0  0.82260531663E+01  0.88888208124E+02  0.13840944183E+02  0.12000263090E+03  0.78995431472E+02 0.  0.
          5    1    5    5  501    0 -0.52007035580E+02  0.90851867850E+02  0.14350800415E+03  0.17769476890E+03  0.47000000000E+01 0. -1.
        -11    1    6    6    0    0  0.74896150090E+01  0.43218104647E+02  0.46445602774E+02  0.63883432276E+02  0.00000000000E+00 0.  1.
         12    1    6    6    0    0  0.73643815732E+00  0.45670103477E+02 -0.32604658591E+02  0.56119198627E+02  0.00000000000E+00 0. -1.
         -5    1    3    3    0  503 -0.22360036638E+02 -0.13295028524E+03 -0.23147886149E+03  0.26791846316E+03  0.47000000000E+01 0.  1.
         13    1    4    4    0    0  0.13866961318E+02  0.96974357153E+01  0.18041203677E+01  0.17017277278E+02  0.00000000000E+00 0. -1.
        -14    1    4    4    0    0  0.52274057734E+02 -0.56487226450E+02 -0.18014699099E+03  0.19589875504E+03  0.00000000000E+00 0.  1.
</event>
<event>
12    1  0.8562501E-002  0.2219562E+03  0.7818608E-02  0.1132563E+00
         21   -1    0    0  501  502  0.00000000000E+00  0.00000000000E+00  0.12967586884E+04  0.12967586884E+04  0.00000000000E+00 0. -1.
         21   -1    0    0  502  503 -0.00000000000E+00 -0.00000000000E+00 -0.20539653571E+03  0.20539653571E+03  0.00000000000E+00 0.  1.
         -6    2    1    2    0  503 -0.13441277604E+03  0.27578092752E+02 -0.13279171068E+03  0.25804219410E+03  0.17356494447E+03 0.  0.
        -24    2    3    3    0    0 -0.57069947170E+02  0.54591711816E+02 -0.13267054182E+02  0.11305984240E+03  0.79807765088E+02 0.  0.
          6    2    1    2  501    0  0.13441277604E+03 -0.27578092752E+02  0.12241538634E+04  0.12441130300E+04  0.17446261689E+03 0.  0.
         24    2    5    5    0    0  0.24184186887E+02 -0.40500105243E+02  0.81003796684E+03  0.81535740495E+03  0.80131496019E+02 0.  0.
          5    1    5    5  501    0  0.11022858915E+03  0.12922012491E+02  0.41411589655E+03  0.42875562509E+03  0.47000000000E+01 0. -1.
        -11    1    6    6    0    0 -0.13613012923E+02 -0.33433434071E+02  0.64037441231E+03  0.64139106369E+03  0.00000000000E+00 0.  1.
         12    1    6    6    0    0  0.37797199810E+02 -0.70666711722E+01  0.16966355453E+03  0.17396634126E+03  0.00000000000E+00 0. -1.
         -5    1    3    3    0  503 -0.77342828867E+02 -0.27013619064E+02 -0.11952465650E+03  0.14498235169E+03  0.47000000000E+01 0.  1.
         13    1    4    4    0    0  0.17317168951E+02  0.18980503112E+02  0.96781619884E+01  0.27455612510E+02  0.00000000000E+00 0. -1.
        -14    1    4    4    0    0 -0.74387116122E+02  0.35611208705E+02 -0.22945216170E+02  0.85604229892E+02  0.00000000000E+00 0.  1.
</event>
<event>
12    1  0.8562501E-002  0.2160226E+03  0.7818608E-02  0.1136898E+00
         21   -1    0    0  501  502  0.00000000000E+00  0.00000000000E+00  0.85120469400E+03  0.85120469400E+03  0.00000000000E+00 0.  1.
         21   -1    0    0  502  503 -0.00000000000E+00 -0.00000000000E+00 -0.56051382755E+02  0.56051382755E+02  0.00000000000E+00 0. -1.
         -6    2    1    2    0  503 -0.94373386172E+02  0.90893006371E+02  0.32997619681E+03  0.39439833794E+03  0.17174948001E+03 0.  0.
        -24    2    3    3    0    0 -0.17086849130E+02  0.55790774901E+02  0.70294495755E+02  0.12115476286E+03  0.79577568773E+02 0.  0.
          6    2    1    2  501    0  0.94373386172E+02 -0.90893006371E+02  0.46517711444E+03  0.51285773882E+03  0.17165499656E+03 0.  0.
         24    2    5    5    0    0 -0.11217584881E+02 -0.60323325521E+02  0.27851835117E+03  0.29618392301E+03  0.79923128658E+02 0.  0.
          5    1    5    5  501    0  0.10559097105E+03 -0.30569680849E+02  0.18665876327E+03  0.21667381581E+03  0.47000000000E+01 0. -1.
        -11    1    6    6    0    0 -0.14120938735E+02  0.19700635808E+01  0.17321311289E+03  0.17379891985E+03  0.00000000000E+00 0.  1.
         12    1    6    6    0    0  0.29033538540E+01 -0.62293389102E+02  0.10530523828E+03  0.12238500316E+03  0.00000000000E+00 0. -1.
         -5    1    3    3    0  503 -0.77286537042E+02  0.35102231469E+02  0.25968170105E+03  0.27324357508E+03  0.47000000000E+01 0.  1.
         11    1    4    4    0    0 -0.38641328955E+02  0.37569084760E+02  0.75188639304E+02  0.92509026119E+02  0.00000000000E+00 0. -1.
        -12    1    4    4    0    0  0.21554479825E+02  0.18221690141E+02 -0.48941435484E+01  0.28645736737E+02  0.00000000000E+00 0.  1.
</event>
<event>
12    1  0.8562501E-002  0.3756062E+03  0.7818608E-02  0.1052570E+00
         21   -1    0    0  501  502  0.00000000000E+00  0.00000000000E+00  0.12710396409E+04  0.12710396409E+04  0.00000000000E+00 0.  1.
         21   -1    0    0  502  503 -0.00000000000E+00 -0.00000000000E+00 -0.14289820982E+03  0.14289820982E+03  0.00000000000E+00 0. -1.
         -6    2    1    2    0  503 -0.17445932632E+03  0.28454019145E+03  0.23002330569E+03  0.44044098138E+03  0.17227408347E+03 0.  0.
        -24    2    3    3    0    0 -0.18450976564E+03  0.23625231972E+03  0.23700536802E+03  0.39040530331E+03  0.79910851514E+02 0.  0.
          6    2    1    2  501    0  0.17445932632E+03 -0.28454019145E+03  0.89811812537E+03  0.97349686932E+03  0.17228119562E+03 0.  0.
         24    2    5    5    0    0  0.14195975533E+03 -0.17203532611E+03  0.73799977168E+03  0.77506918973E+03  0.79623239712E+02 0.  0.
          5    1    5    5  501    0  0.32499570994E+02 -0.11250486534E+03  0.16011835369E+03  0.19842767959E+03  0.47000000000E+01 0. -1.
        -11    1    6    6    0    0  0.28758337043E+02  0.63133607614E+00  0.64280249005E+02  0.70422943327E+02  0.00000000000E+00 0.  1.
         12    1    6    6    0    0  0.11320141828E+03 -0.17266666218E+03  0.67371952267E+03  0.70464624640E+03  0.00000000000E+00 0. -1.
         -5    1    3    3    0  503  0.10050439320E+02  0.48287871725E+02 -0.69820623313E+01  0.50035678078E+02  0.47000000000E+01 0.  1.
         11    1    4    4    0    0 -0.42416113653E+02  0.99538159300E+02  0.11798404403E+03  0.16008499773E+03  0.00000000000E+00 0. -1.
        -12    1    4    4    0    0 -0.14209365199E+03  0.13671416042E+03  0.11902132399E+03  0.23032030557E+03  0.00000000000E+00 0.  1.
</event>
<event>
12    1  0.8562501E-002  0.2197399E+03  0.7818608E-02  0.1134898E+00
         21   -1    0    0  503  502  0.00000000000E+00  0.00000000000E+00  0.12778106879E+03  0.12778106879E+03  0.00000000000E+00 0.  1.
         21   -1    0    0  501  503 -0.00000000000E+00 -0.00000000000E+00 -0.99520687610E+03  0.99520687610E+03  0.00000000000E+00 0. -1.
          6    2    1    2  501    0  0.95557387314E+01 -0.13699508100E+03 -0.88020440563E+03  0.90721849957E+03  0.17154196544E+03 0.  0.
         24    2    3    3    0    0  0.22799628780E+02 -0.25899836475E+01 -0.29936271720E+03  0.31086349805E+03  0.80570136418E+02 0.  0.
         -6    2    1    2    0  502 -0.95557387314E+01  0.13699508100E+03  0.12778598320E+02  0.21576944532E+03  0.16593431411E+03 0.  0.
        -24    2    5    5    0    0  0.55644103943E+02  0.73312326720E+02 -0.81358292064E+01  0.12214244091E+03  0.79885046168E+02 0.  0.
          5    1    3    3  501    0 -0.13243890048E+02 -0.13440509735E+03 -0.58084168843E+03  0.59635500152E+03  0.47000000000E+01 0. -1.
        -13    1    4    4    0    0  0.44612114613E+02  0.50052266671E+01 -0.93602408360E+02  0.10381090461E+03  0.00000000000E+00 0.  1.
         14    1    4    4    0    0 -0.21812485833E+02 -0.75952103146E+01 -0.20576030884E+03  0.20705259344E+03  0.00000000000E+00 0. -1.
         -5    1    5    5    0  502 -0.65199842675E+02  0.63682754278E+02  0.20914427526E+02  0.93627004417E+02  0.47000000000E+01 0.  1.
         13    1    6    6    0    0  0.62318806724E+02  0.73733028447E+02  0.15322350823E+02  0.97749514527E+02  0.00000000000E+00 0. -1.
        -14    1    6    6    0    0 -0.66747027806E+01 -0.42070172744E+00 -0.23458180029E+02  0.24392926381E+02  0.00000000000E+00 0.  1.
</event>
<event>
12    1  0.8562501E-002  0.2262720E+03  0.7818608E-02  0.1131330E+00
         21   -1    0    0  501  502  0.00000000000E+00  0.00000000000E+00  0.17608488618E+03  0.17608488618E+03  0.00000000000E+00 0.  1.
         21   -1    0    0  502  503 -0.00000000000E+00 -0.00000000000E+00 -0.48505073401E+03  0.48505073401E+03  0.00000000000E+00 0. -1.
         -6    2    1    2    0  503 -0.24012521280E+02 -0.14571306963E+03 -0.36886800508E+03  0.42706878008E+03  0.15657342656E+03 0.  0.
        -24    2    3    3    0    0  0.32139522619E+02 -0.41224268780E+02 -0.14795241367E+03  0.17627653525E+03  0.80318807999E+02 0.  0.
          6    2    1    2  501    0  0.24012521280E+02  0.14571306963E+03  0.59902157253E+02  0.23406684011E+03  0.17143546120E+03 0.  0.
         24    2    5    5    0    0  0.36298251108E+02  0.79137822835E+02  0.10244491271E+03  0.15397202951E+03  0.75047103179E+02 0.  0.
          5    1    5    5  501    0 -0.12285729828E+02  0.66575246791E+02 -0.42542755458E+02  0.80094810598E+02  0.47000000000E+01 0. -1.
        -13    1    6    6    0    0  0.55195548848E+02  0.56655703339E+02  0.49160817364E+02  0.93130034347E+02  0.00000000000E+00 0.  1.
         14    1    6    6    0    0 -0.18897297741E+02  0.22482119496E+02  0.53284095347E+02  0.60841995167E+02  0.00000000000E+00 0. -1.
         -5    1    3    3    0  503 -0.56152043899E+02 -0.10448880085E+03 -0.22091559141E+03  0.25079224483E+03  0.47000000000E+01 0.  1.
         11    1    4    4    0    0  0.14609053626E+02 -0.42409880276E+01 -0.13115768636E+03  0.13203692332E+03  0.00000000000E+00 0. -1.
        -12    1    4    4    0    0  0.17530468993E+02 -0.36983280753E+02 -0.16794727302E+02  0.44239611928E+02  0.00000000000E+00 0.  1.
</event>
<event>
12    1  0.8562501E-002  0.1971551E+03  0.7818608E-02  0.1153165E+00
         21   -1    0    0  501  502  0.00000000000E+00  0.00000000000E+00  0.11107282038E+04  0.11107282038E+04  0.00000000000E+00 0. -1.
         21   -1    0    0  502  503 -0.00000000000E+00 -0.00000000000E+00 -0.50702356613E+02  0.50702356613E+02  0.00000000000E+00 0.  1.
         -6    2    1    2    0  503  0.25654764968E+02  0.81988926130E+02  0.20277120338E+03  0.28281848536E+03  0.17745361020E+03 0.  0.
        -24    2    3    3    0    0  0.86502859518E+02  0.63176483835E+02  0.13740147752E+03  0.19143090604E+03  0.79325991638E+02 0.  0.
          6    2    1    2  501    0 -0.25654764968E+02 -0.81988926130E+02  0.85725464385E+03  0.87861207509E+03  0.17231744866E+03 0.  0.
         24    2    5    5    0    0 -0.38943280568E+02 -0.76595212359E+01  0.22658835381E+03  0.24342430406E+03  0.79610692464E+02 0.  0.
          5    1    5    5  501    0  0.13288515600E+02 -0.74329404894E+02  0.63066629004E+03  0.63518777103E+03  0.47000000000E+01 0. -1.
        -11    1    6    6    0    0 -0.14571112707E+01 -0.19385593587E+02  0.74900976635E+01  0.20833290066E+02  0.00000000000E+00 0.  1.
         12    1    6    6    0    0 -0.37486169298E+02  0.11726072351E+02  0.21909825615E+03  0.22259101399E+03  0.00000000000E+00 0. -1.
         -5    1    3    3    0  503 -0.60848094550E+02  0.18812442295E+02  0.65369725857E+02  0.91387579321E+02  0.47000000000E+01 0.  1.
         13    1    4    4    0    0  0.57012602177E+02  0.25205044043E+02  0.21476640091E+02  0.65931609428E+02  0.00000000000E+00 0. -1.
        -14    1    4    4    0    0  0.29490257341E+02  0.37971439792E+02  0.11592483743E+03  0.12549929661E+03  0.00000000000E+00 0.  1.
</event>
<event>
12    1  0.8562501E-002  0.2108425E+03  0.7818608E-02  0.1140988E+00
         21   -1    0    0  503  502  0.00000000000E+00  0.00000000000E+00  0.15017165139E+03  0.15017165139E+03  0.00000000000E+00 0.  1.
         21   -1    0    0  501  503 -0.00000000000E+00 -0.00000000000E+00 -0.29742071546E+03  0.29742071546E+03  0.00000000000E+00 0.  1.
          6    2    1    2  501    0  0.10922557311E+03 -0.50281334880E+02 -0.91968709953E+02  0.22962335298E+03  0.17265631226E+03 0.  0.
         24    2    3    3    0    0  0.10986109177E+03 -0.43460772587E+02 -0.12829440454E+03  0.19235983139E+03  0.81145254069E+02 0.  0.
         -6    2    1    2    0  502 -0.10922557311E+03  0.50281334880E+02 -0.55280354118E+02  0.21796901387E+03  0.17319392309E+03 0.  0.
        -24    2    5    5    0    0 -0.21150664371E+02 -0.88153889499E+01  0.22380121353E+02  0.86428709142E+02  0.80274468210E+02 0.  0.
          5    1    3    3  501    0 -0.63551866234E+00 -0.68205622929E+01  0.36325694583E+02  0.37263521585E+02  0.47000000000E+01 0. -1.
        -13    1    4    4    0    0  0.11110684261E+02 -0.43153102848E+02 -0.38550112319E+02  0.58921547417E+02  0.00000000000E+00 0.  1.
         14    1    4    4    0    0  0.98750407513E+02 -0.30766973987E+00 -0.89744292217E+02  0.13343828397E+03  0.00000000000E+00 0. -1.
         -5    1    5    5    0  502 -0.88074908740E+02  0.59096723830E+02 -0.77660475471E+02  0.13154030473E+03  0.47000000000E+01 0.  1.
         11    1    6    6    0    0 -0.40907134954E+02 -0.32297479092E+02  0.19332574585E+02  0.55590190555E+02  0.00000000000E+00 0. -1.
        -12    1    6    6    0    0  0.19756470583E+02  0.23482090142E+02  0.30475467687E+01  0.30838518587E+02  0.00000000000E+00 0.  1.
</event>
<event>
12    1  0.8562501E-002  0.1898868E+03  0.7818608E-02  0.1159328E+00
         21   -1    0    0  503  502  0.00000000000E+00  0.00000000000E+00  0.39444746183E+02  0.39444746183E+02  0.00000000000E+00 0.  1.
         21   -1    0    0  501  503 -0.00000000000E+00 -0.00000000000E+00 -0.19093538987E+04  0.19093538987E+04  0.00000000000E+00 0.  1.
          6    2    1    2  501    0 -0.32901908497E+01 -0.80089751132E+02 -0.16401731085E+04  0.16507455579E+04  0.16842766205E+03 0.  0.
         24    2    3    3    0    0 -0.15579621719E+02 -0.62158699543E+02 -0.16091659191E+04  0.16125868299E+04  0.83155879915E+02 0.  0.
         -6    2    1    2    0  502  0.32901908497E+01  0.80089751132E+02 -0.22973604398E+03  0.29805308700E+03  0.17213889499E+03 0.  0.
        -24    2    5    5    0    0  0.17600008456E+02  0.47005934066E+02 -0.24219619650E+03  0.25962581501E+03  0.78912914563E+02 0.  0.
          5    1    3    3  501    0  0.12289430870E+02 -0.17931051589E+02 -0.31007189441E+02  0.38158727956E+02  0.47000000000E+01 0. -1.
        -11    1    4    4    0    0 -0.18168672236E+02 -0.72059972412E+02 -0.82152502157E+03  0.82487944655E+03  0.00000000000E+00 0.  1.
         12    1    4    4    0    0  0.25890505172E+01  0.99012728692E+01 -0.78764089752E+03  0.78770738338E+03  0.00000000000E+00 0. -1.
         -5    1    5    5    0  502 -0.14309817606E+02  0.33083817065E+02  0.12460152516E+02  0.38427271986E+02  0.47000000000E+01 0.  1.
         13    1    6    6    0    0 -0.65388249672E+01 -0.18804602562E+02 -0.88307632109E+02  0.90524069717E+02  0.00000000000E+00 0. -1.
        -14    1    6    6    0    0  0.24138833423E+02  0.65810536629E+02 -0.15388856439E+03  0.16910174529E+03  0.00000000000E+00 0.  1.
</event>
<event>
12    1  0.8562501E-002  0.3320115E+03  0.7818608E-02  0.1070413E+00
         21   -1    0    0  501  502  0.00000000000E+00  0.00000000000E+00  0.41004054249E+03  0.41004054249E+03  0.00000000000E+00 0. -1.
         21   -1    0    0  502  503 -0.00000000000E+00 -0.00000000000E+00 -0.28310815387E+03  0.28310815387E+03  0.00000000000E+00 0.  1.
         -6    2    1    2    0  503  0.16752065935E+03 -0.22955102411E+03 -0.17684303919E+02  0.33100835780E+03  0.16881040948E+03 0.  0.
        -24    2    3    3    0    0  0.34729985826E+02 -0.15630018281E+03 -0.66925224229E+01  0.17888354724E+03  0.79489713520E+02 0.  0.
          6    2    1    2  501    0 -0.16752065935E+03  0.22955102411E+03  0.14461669254E+03  0.36214033857E+03  0.17168224450E+03 0.  0.
         24    2    5    5    0    0 -0.79443388524E+02  0.40083625284E+02  0.36968706304E+02  0.12705380175E+03  0.82813249522E+02 0.  0.
          5    1    5    5  501    0 -0.88077270828E+02  0.18946739882E+03  0.10764798624E+03  0.23508653682E+03  0.47000000000E+01 0. -1.
        -11    1    6    6    0    0 -0.67389057181E+02  0.64917185347E+02  0.24262879970E+02  0.96665471217E+02  0.00000000000E+00 0.  1.
         12    1    6    6    0    0 -0.12054331343E+02 -0.24833560064E+02  0.12705826335E+02  0.30388330530E+02  0.00000000000E+00 0. -1.
         -5    1    3    3    0  503  0.13279067353E+03 -0.73250841303E+02 -0.10991781496E+02  0.15212481056E+03  0.47000000000E+01 0.  1.
         13    1    4    4    0    0  0.25718174085E+02 -0.71726395454E+02  0.35360299231E+02  0.84002684748E+02  0.00000000000E+00 0. -1.
        -14    1    4    4    0    0  0.90118117415E+01 -0.84573787351E+02 -0.42052821654E+02  0.94880862490E+02  0.00000000000E+00 0.  1.
</event>
<event>
12    1  0.8562501E-002  0.1865776E+03  0.7818608E-02  0.1162068E+00
         21   -1    0    0  501  502  0.00000000000E+00  0.00000000000E+00  0.17808649339E+03  0.17808649339E+03  0.00000000000E+00 0.  1.
         21   -1    0    0  502  503 -0.00000000000E+00 -0.00000000000E+00 -0.31168009170E+03  0.31168009170E+03  0.00000000000E+00 0.  1.
         -6    2    1    2    0  503  0.64752666567E+02 -0.28144523706E+02 -0.21794543153E+03  0.28689964781E+03  0.17270256148E+03 0.  0.
        -24    2    3    3    0    0  0.43480376054E+02  0.50617092092E+02 -0.10981096652E+03  0.15135978286E+03  0.79991889489E+02 0.  0.
          6    2    1    2  501    0 -0.64752666567E+02  0.28144523706E+02  0.84351833226E+02  0.20286693728E+03  0.17045451133E+03 0.  0.
         24    2    5    5    0    0 -0.70562549940E+01  0.71902095290E+02  0.28249482093E+02  0.11114363173E+03  0.79593791173E+02 0.  0.
          5    1    5    5  501    0 -0.57696411573E+02 -0.43757571584E+02  0.56102351133E+02  0.91723305555E+02  0.47000000000E+01 0. -1.
        -13    1    6    6    0    0 -0.29368968323E+02  0.29718487647E+02 -0.17254846411E+02  0.45204585310E+02  0.00000000000E+00 0.  1.
         14    1    6    6    0    0  0.22312713329E+02  0.42183607643E+02  0.45504328504E+02  0.65939046418E+02  0.00000000000E+00 0. -1.
         -5    1    3    3    0  503  0.21272290513E+02 -0.78761615799E+02 -0.10813446501E+03  0.13553986495E+03  0.47000000000E+01 0.  1.
         11    1    4    4    0    0 -0.82043378188E+01  0.18309784232E+02  0.56101981388E+01  0.20833475006E+02  0.00000000000E+00 0. -1.
        -12    1    4    4    0    0  0.51684713873E+02  0.32307307860E+02 -0.11542116466E+03  0.13052630785E+03  0.00000000000E+00 0.  1.
</event>
<event>
12    1  0.8562501E-002  0.1773135E+03  0.7818608E-02  0.1170547E+00
         21   -1    0    0  501  502  0.00000000000E+00  0.00000000000E+00  0.58447507758E+03  0.58447507758E+03  0.00000000000E+00 0. -1.
         21   -1    0    0  502  503 -0.00000000000E+00 -0.00000000000E+00 -0.54087353045E+02  0.54087353045E+02  0.00000000000E+00 0. -1.
         -6    2    1    2    0  503 -0.17643805000E+02 -0.42342622296E+02  0.29438137226E+03  0.34365747212E+03  0.17127715638E+03 0.  0.
        -24    2    3    3    0    0 -0.24778526864E+02 -0.79871521709E+02  0.13111185558E+03  0.17591258361E+03  0.82228237395E+02 0.  0.
          6    2    1    2  501    0  0.17643805000E+02  0.42342622296E+02  0.23600635228E+03  0.29490495850E+03  0.17077978427E+03 0.  0.
         24    2    5    5    0    0 -0.12304355133E+02 -0.10460055205E+01  0.17191126976E+02  0.69779086723E+02  0.66491313827E+02 0.  0.
          5    1    5    5  501    0  0.29948160133E+02  0.43388627816E+02  0.21881522530E+03  0.22512587178E+03  0.47000000000E+01 0. -1.
        -13    1    6    6    0    0 -0.20657827984E+02 -0.91360356710E+01  0.38996912657E+02  0.45066308941E+02  0.00000000000E+00 0.  1.
         14    1    6    6    0    0  0.83534728513E+01  0.80900301506E+01 -0.21805785681E+02  0.24712777782E+02  0.00000000000E+00 0. -1.
         -5    1    3    3    0  503  0.71347218636E+01  0.37528899413E+02  0.16326951667E+03  0.16774488851E+03  0.47000000000E+01 0.  1.
         13    1    4    4    0    0  0.16481969634E+02 -0.69421695281E+02  0.60902325491E+02  0.93808956656E+02  0.00000000000E+00 0. -1.
        -14    1    4    4    0    0 -0.41260496498E+02 -0.10449826428E+02  0.70209530092E+02  0.82103626956E+02  0.00000000000E+00 0.  1.
</event>
<event>
12    1  0.8562501E-002  0.2047059E+03  0.7818608E-02  0.1145902E+00
         21   -1    0    0  503  502  0.00000000000E+00  0.00000000000E+00  0.26576962265E+03  0.26576962265E+03  0.00000000000E+00 0.  1.
         21   -1    0    0  501  503 -0.00000000000E+00 -0.00000000000E+00 -0.31011353609E+03  0.31011353609E+03  0.00000000000E+00 0.  1.
          6    2    1    2  501    0  0.44588069004E+02  0.99863287258E+02 -0.22422614338E+03  0.30337236660E+03  0.17261708316E+03 0.  0.
         24    2    3    3    0    0 -0.10443024339E+02  0.55588747059E+02 -0.20673965024E+03  0.23045787156E+03  0.84678108307E+02 0.  0.
         -6    2    1    2    0  502 -0.44588069004E+02 -0.99863287258E+02  0.17988222994E+03  0.27251079214E+03  0.17304260501E+03 0.  0.
        -24    2    5    5    0    0 -0.22839831674E+01 -0.12661077055E+03  0.15967869898E+03  0.21833204904E+03  0.78333217306E+02 0.  0.
          5    1    3    3  501    0  0.55031093343E+02  0.44274540199E+02 -0.17486493145E+02  0.72914495040E+02  0.47000000000E+01 0. -1.
        -11    1    4    4    0    0  0.13099181375E+02  0.31395977844E+01 -0.14675439362E+03  0.14737129189E+03  0.00000000000E+00 0.  1.
         12    1    4    4    0    0 -0.23542205714E+02  0.52449149275E+02 -0.59985256618E+02  0.83086579668E+02  0.00000000000E+00 0. -1.
         -5    1    5    5    0  502 -0.42304085837E+02  0.26747483288E+02  0.20203530957E+02  0.54178743100E+02  0.47000000000E+01 0.  1.
         13    1    6    6    0    0  0.18565931351E+02  0.15292576117E+01  0.14772854482E+02  0.23775400424E+02  0.00000000000E+00 0. -1.
        -14    1    6    6    0    0 -0.20849914518E+02 -0.12814002816E+03  0.14490584450E+03  0.19455664862E+03  0.00000000000E+00 0.  1.
</event>
<event>
12    1  0.8562501E-002  0.1904392E+03  0.7818608E-02  0.1158088E+00
         21   -1    0    0  501  502  0.00000000000E+00  0.00000000000E+00  0.11463119878E+03  0.11463119878E+03  0.00000000000E+00 0. -1.
         21   -1    0    0  502  503 -0.00000000000E+00 -0.00000000000E+00 -0.59711038250E+03  0.59711038250E+03  0.00000000000E+00 0. -1.
         -6    2    1    2    0  503  0.42942493988E+02  0.70470415895E+02 -0.48535347988E+03  0.52137807023E+03  0.17163028396E+03 0.  0.
        -24    2    3    3    0    0  0.77976927932E+02  0.63959008362E+02 -0.46196500450E+03  0.47849543073E+03  0.73314772051E+02 0.  0.
          6    2    1    2  501    0 -0.42942493988E+02 -0.70470415895E+02  0.28742961559E+01  0.19036351105E+03  0.17152220689E+03 0.  0.
         24    2    5    5    0    0 -0.56374658588E+02  0.22816263497E+02 -0.20113298811E+02  0.93238091516E+02  0.67750372026E+02 0.  0.
          5    1    5    5  501    0  0.13432164600E+02 -0.93286679392E+02  0.22987594967E+02  0.97125419537E+02  0.47000000000E+01 0. -1.
        -13    1    6    6    0    0 -0.11401783512E+02 -0.14877720556E+02 -0.28345955829E+02  0.33982943487E+02  0.00000000000E+00 0.  1.
         14    1    6    6    0    0 -0.44972875076E+02  0.37693984053E+02  0.82326570179E+01  0.59255148029E+02  0.00000000000E+00 0. -1.
         -5    1    3    3    0  503 -0.35034433944E+02  0.65114075335E+01 -0.23388475380E+02  0.42882639500E+02  0.47000000000E+01 0.  1.
         13    1    4    4    0    0  0.51509811189E+02  0.78034344162E+01 -0.11822997673E+03  0.12919938713E+03  0.00000000000E+00 0. -1.
        -14    1    4    4    0    0  0.26467116743E+02  0.56155573946E+02 -0.34373502777E+03  0.34929604360E+03  0.00000000000E+00 0.  1.
</event>
<event>
12    1  0.8562501E-002  0.1822750E+03  0.7818608E-02  0.1166017E+00
         21   -1    0    0  501  502  0.00000000000E+00  0.00000000000E+00  0.49624970059E+03  0.49624970059E+03  0.00000000000E+00 0.  1.
         21   -1    0    0  502  503 -0.00000000000E+00 -0.00000000000E+00 -0.82163377376E+03  0.82163377376E+03  0.00000000000E+00 0.  1.
         -6    2    1    2    0  503  0.35252456607E+02 -0.42926719292E+02 -0.79453094454E+03  0.81517089610E+03  0.17360509523E+03 0.  0.
        -24    2    3    3    0    0 -0.31563480775E+02 -0.17424158339E+02 -0.64730696084E+03  0.65142798334E+03  0.63657374364E+02 0.  0.
          6    2    1    2  501    0 -0.35252456607E+02  0.42926719292E+02  0.46914687137E+03  0.50271257824E+03  0.17185956614E+03 0.  0.
         24    2    5    5    0    0  0.18520528492E+02 -0.30032468607E+02  0.28821494220E+03  0.30029461950E+03  0.76577062145E+02 0.  0.
          5    1    5    5  501    0 -0.53772985099E+02  0.72959187899E+02  0.18093192917E+03  0.20241795873E+03  0.47000000000E+01 0. -1.
        -11    1    6    6    0    0 -0.41831283380E+01  0.61655827003E+01  0.21781425216E+03  0.21794164681E+03  0.00000000000E+00 0.  1.
         12    1    6    6    0    0  0.22703656830E+02 -0.36198051307E+02  0.70400690046E+02  0.82352972690E+02  0.00000000000E+00 0. -1.
         -5    1    3    3    0  503  0.66815937382E+02 -0.25502560953E+02 -0.14722398370E+03  0.16374291276E+03  0.47000000000E+01 0.  1.
         11    1    4    4    0    0 -0.75027355911E+01 -0.28719093506E+02 -0.54221272963E+03  0.54302460492E+03  0.00000000000E+00 0. -1.
        -12    1    4    4    0    0 -0.24060745184E+02  0.11294935167E+02 -0.10509423121E+03  0.10840337842E+03  0.00000000000E+00 0.  1.
</event>
<event>
12    1  0.8562501E-002  0.1851589E+03  0.7818608E-02  0.1162946E+00
         21   -1    0    0  501  502  0.00000000000E+00  0.00000000000E+00  0.52209563501E+03  0.52209563501E+03  0.00000000000E+00 0. -1.
         21   -1    0    0  502  503 -0.00000000000E+00 -0.00000000000E+00 -0.29891487987E+03  0.29891487987E+03  0.00000000000E+00 0. -1.
         -6    2    1    2    0  503  0.65851991677E+02  0.22732130728E+02 -0.25107194269E+03  0.31196302229E+03  0.17155340945E+03 0.  0.
        -24    2    3    3    0    0  0.10780402386E+01 -0.18638764271E+02 -0.51999017591E+02  0.98516693565E+02  0.81566386314E+02 0.  0.
          6    2    1    2  501    0 -0.65851991677E+02 -0.22732130728E+02  0.47425269782E+03  0.50904749260E+03  0.17134904070E+03 0.  0.
         24    2    5    5    0    0  0.24858567165E+02 -0.33716951450E+02  0.28600804588E+03  0.29974577077E+03  0.79323033307E+02 0.  0.
          5    1    5    5  501    0 -0.90710558842E+02  0.10984820723E+02  0.18824465195E+03  0.20930172183E+03  0.47000000000E+01 0. -1.
        -13    1    6    6    0    0 -0.58909772550E+01 -0.27378322467E+02  0.27198587743E+02  0.39038946314E+02  0.00000000000E+00 0.  1.
         14    1    6    6    0    0  0.30749544420E+02 -0.63386289835E+01  0.25880945813E+03  0.26070682446E+03  0.00000000000E+00 0. -1.
         -5    1    3    3    0  503  0.64773951438E+02  0.41370894999E+02 -0.19907292510E+03  0.21344632872E+03  0.47000000000E+01 0.  1.
         11    1    4    4    0    0 -0.32618848173E+02 -0.28461668050E+02 -0.11236374768E+02  0.44724846811E+02  0.00000000000E+00 0. -1.
        -12    1    4    4    0    0  0.33696888412E+02  0.98229037789E+01 -0.40762642824E+02  0.53791846755E+02  0.00000000000E+00 0.  1.
</event>
<event>
12    1  0.8562501E-002  0.1994430E+03  0.7818608E-02  0.1150917E+00
         21   -1    0    0  501  502  0.00000000000E+00  0.00000000000E+00  0.38745519321E+02  0.38745519321E+02  0.00000000000E+00 0. -1.
         21   -1    0    0  502  503 -0.00000000000E+00 -0.00000000000E+00 -0.11048375879E+04  0.11048375879E+04  0.00000000000E+00 0.  1.
         -6    2    1    2    0  503  0.88467813310E+02  0.30196969381E+02 -0.36116009970E+03  0.41098049436E+03  0.17242371697E+03 0.  0.
        -24    2    3    3    0    0  0.55810048720E+02  0.76265060784E+02 -0.16409407213E+03  0.20592950592E+03  0.80925742931E+02 0.  0.
          6    2    1    2  501    0 -0.88467813310E+02 -0.30196969381E+02 -0.70493196890E+03  0.73260261288E+03  0.17617916073E+03 0.  0.
         24    2    5    5    0    0  0.27304977195E+01 -0.27261184943E+02 -0.51167203458E+03  0.51883347812E+03  0.81420385794E+02 0.  0.
          5    1    5    5  501    0 -0.91198311030E+02 -0.29357844379E+01 -0.19325993432E+03  0.21376913476E+03  0.47000000000E+01 0. -1.
        -13    1    6    6    0    0 -0.68204217660E+00 -0.49697940015E+02 -0.45618498140E+03  0.45888461260E+03  0.00000000000E+00 0.  1.
         14    1    6    6    0    0  0.34125398961E+01  0.22436755072E+02 -0.55487053181E+02  0.59948865522E+02  0.00000000000E+00 0. -1.
         -5    1    3    3    0  503  0.32657764590E+02 -0.46068091403E+02 -0.19706602757E+03  0.20505098843E+03  0.47000000000E+01 0.  1.
         11    1    4    4    0    0  0.75442023858E+02  0.48795245429E+02 -0.12924880098E+03  0.15740942632E+03  0.00000000000E+00 0. -1.
        -12    1    4    4    0    0 -0.19631975137E+02  0.27469815354E+02 -0.34845271147E+02  0.48520079603E+02  0.00000000000E+00 0.  1.
</event>
<event>
12    1  0.8562501E-002  0.1983765E+03  0.7818608E-02  0.1151923E+00
         21   -1    0    0  503  502  0.00000000000E+00  0.00000000000E+00  0.26282072136E+03  0.26282072136E+03  0.00000000000E+00 0. -1.
         21   -1    0    0  501  503 -0.00000000000E+00 -0.00000000000E+00 -0.27627704613E+03  0.27627704613E+03  0.00000000000E+00 0. -1.
          6    2    1    2  501    0 -0.68624731245E+02  0.66070724991E+02 -0.19113193209E+03  0.27278622347E+03  0.16972393412E+03 0.  0.
         24    2    3    3    0    0  0.24708240495E+02  0.31917626037E+02 -0.12210260054E+03  0.15168867438E+03  0.80443625453E+02 0.  0.
         -6    2    1    2    0  502  0.68624731245E+02 -0.66070724991E+02  0.17767560731E+03  0.26631154403E+03  0.17400724872E+03 0.  0.
        -24    2    5    5    0    0  0.44654243130E+02 -0.91060651319E+02  0.18944095483E+03  0.22943886958E+03  0.80425592082E+02 0.  0.
          5    1    3    3  501    0 -0.93332971740E+02  0.34153098954E+02 -0.69029331550E+02  0.12109754909E+03  0.47000000000E+01 0. -1.
        -11    1    4    4    0    0  0.19139080320E+02 -0.89990118215E+01 -0.10480602887E+03  0.10691861529E+03  0.00000000000E+00 0.  1.
         12    1    4    4    0    0  0.55691601753E+01  0.40916637858E+02 -0.17296571668E+02  0.44770059081E+02  0.00000000000E+00 0. -1.
         -5    1    5    5    0  502  0.23970488115E+02  0.24989926328E+02 -0.11765347515E+02  0.36872674442E+02  0.47000000000E+01 0.  1.
         11    1    6    6    0    0  0.10814700554E+02 -0.67695470680E+02  0.52188466168E+02  0.86158403534E+02  0.00000000000E+00 0. -1.
        -12    1    6    6    0    0  0.33839542576E+02 -0.23365180639E+02  0.13725248866E+03  0.14328046605E+03  0.00000000000E+00 0.  1.
</event>
<event>
12    1  0.8562501E-002  0.1952440E+03  0.7818608E-02  0.1153826E+00
         21   -1    0    0  501  502  0.00000000000E+00  0.00000000000E+00  0.30097424740E+03  0.30097424740E+03  0.00000000000E+00 0. -1.
         21   -1    0    0  502  503 -0.00000000000E+00 -0.00000000000E+00 -0.12894928170E+03  0.12894928170E+03  0.00000000000E+00 0.  1.
         -6    2    1    2    0  503  0.70601667462E+02 -0.60135340036E+02  0.11490168220E+03  0.22654497508E+03  0.17181203273E+03 0.  0.
        -24    2    3    3    0    0  0.47622356743E+01  0.30898544894E+02  0.77594744253E+02  0.10807178569E+03  0.68419058472E+02 0.  0.
          6    2    1    2  501    0 -0.70601667462E+02  0.60135340036E+02  0.57123283510E+02  0.20337855403E+03  0.17175247349E+03 0.  0.
         24    2    5    5    0    0 -0.11153995206E+03  0.33057139058E+02  0.20974000239E+02  0.14223910036E+03  0.79108265295E+02 0.  0.
          5    1    5    5  501    0  0.40938284595E+02  0.27078200978E+02  0.36149283271E+02  0.61139453667E+02  0.47000000000E+01 0. -1.
        -13    1    6    6    0    0 -0.11333810458E+03  0.60313778914E+01  0.19042123724E+02  0.11508477721E+03  0.00000000000E+00 0.  1.
         14    1    6    6    0    0  0.17981525220E+01  0.27025761167E+02  0.19318765153E+01  0.27154323155E+02  0.00000000000E+00 0. -1.
         -5    1    3    3    0  503  0.65839431788E+02 -0.91033884930E+02  0.37306937944E+02  0.11847318938E+03  0.47000000000E+01 0.  1.
         11    1    4    4    0    0  0.44365078304E+01 -0.21499667966E+02  0.15776115606E+02  0.27033389502E+02  0.00000000000E+00 0. -1.
        -12    1    4    4    0    0  0.32572784389E+00  0.52398212860E+02  0.61818628647E+02  0.81038396192E+02  0.00000000000E+00 0.  1.
</event>
<event>
12    1  0.8562501E-002  0.1921439E+03  0.7818608E-02  0.1157621E+00
         21   -1    0    0  501  502  0.00000000000E+00  0.00000000000E+00  0.15625231988E+02  0.15625231988E+02  0.00000000000E+00 0.  1.
         21   -1    0    0  502  503 -0.00000000000E+00 -0.00000000000E+00 -0.23446861147E+04  0.23446861147E+04  0.00000000000E+00 0. -1.
         -6    2    1    2    0  503  0.19030866212E+02  0.85003323593E+02 -0.13339779449E+04  0.13477449485E+04  0.17126456095E+03 0.  0.
        -24    2    3    3    0    0 -0.57669965881E+01  0.26035767268E+02 -0.11475119166E+04  0.11505552520E+04  0.79263293719E+02 0.  0.
          6    2    1    2  501    0 -0.19030866212E+02 -0.85003323593E+02 -0.99508293777E+03  0.10125663981E+04  0.16587018636E+03 0.  0.
         24    2    5    5    0    0 -0.16017416363E+02 -0.11194772301E+03 -0.56966083917E+03  0.58625532215E+03  0.79956117661E+02 0.  0.
          5    1    5    5  501    0 -0.30134498492E+01  0.26944399413E+02 -0.42542209859E+03  0.42631107599E+03  0.47000000000E+01 0. -1.
        -11    1    6    6    0    0 -0.14158344509E+02 -0.51110512477E+02 -0.43808411481E+03  0.44128271534E+03  0.00000000000E+00 0.  1.
         12    1    6    6    0    0 -0.18590718536E+01 -0.60837210529E+02 -0.13157672436E+03  0.14497260681E+03  0.00000000000E+00 0. -1.
         -5    1    3    3    0  503  0.24797862800E+02  0.58967556325E+02 -0.18646602836E+03  0.19718969657E+03  0.47000000000E+01 0.  1.
         11    1    4    4    0    0 -0.40513940212E+01  0.16876670557E+02 -0.48640100513E+02  0.51643926850E+02  0.00000000000E+00 0. -1.
        -12    1    4    4    0    0 -0.17156025670E+01  0.91590967110E+01 -0.10988718161E+04  0.10989113251E+04  0.00000000000E+00 0.  1.
</event>
<event>
12    1  0.8562501E-002  0.2703379E+03  0.7818608E-02  0.1101956E+00
         21   -1    0    0  503  502  0.00000000000E+00  0.00000000000E+00  0.13506169438E+03  0.13506169438E+03  0.00000000000E+00 0. -1.
         21   -1    0    0  501  503 -0.00000000000E+00 -0.00000000000E+00 -0.68465271124E+03  0.68465271124E+03  0.00000000000E+00 0. -1.
          6    2    1    2  501    0  0.12362668118E+03  0.15810308545E+03 -0.46773460861E+03  0.53725542983E+03  0.17201043822E+03 0.  0.
         24    2    3    3    0    0  0.78255599199E+02  0.31751914615E+02 -0.12701722160E+03  0.17101291282E+03  0.77329935213E+02 0.  0.
         -6    2    1    2    0  502 -0.12362668118E+03 -0.15810308545E+03 -0.81856408241E+02  0.28245897579E+03  0.18111449281E+03 0.  0.
        -24    2    5    5    0    0 -0.90735757643E+02 -0.92192038550E+02  0.27243495451E+02  0.15073594082E+03  0.72434564434E+02 0.  0.
          5    1    3    3  501    0  0.45371081980E+02  0.12635117084E+03 -0.34071738701E+03  0.36624251701E+03  0.47000000000E+01 0. -1.
        -13    1    4    4    0    0  0.35154630622E+01 -0.20954950978E+02 -0.13238540239E+02  0.25034524135E+02  0.00000000000E+00 0.  1.
         14    1    4    4    0    0  0.74740136136E+02  0.52706865592E+02 -0.11377868136E+03  0.14597838868E+03  0.00000000000E+00 0. -1.
         -5    1    5    5    0  502 -0.32890923536E+02 -0.65911046903E+02 -0.10909990369E+03  0.13172303497E+03  0.47000000000E+01 0.  1.
         11    1    6    6    0    0 -0.21432285021E+02 -0.61562021466E+02 -0.10597214513E+02  0.66041852515E+02  0.00000000000E+00 0. -1.
        -12    1    6    6    0    0 -0.69303472622E+02 -0.30630017084E+02  0.37840709964E+02  0.84694088309E+02  0.00000000000E+00 0.  1.
</event>
<event>
12    1  0.8562501E-002  0.2398740E+03  0.7818608E-02  0.1119974E+00
         21   -1    0    0  501  502  0.00000000000E+00  0.00000000000E+00  0.62504769236E+03  0.62504769236E+03  0.00000000000E+00 0.  1.
         21   -1    0    0  502  503 -0.00000000000E+00 -0.00000000000E+00 -0.92172022887E+02  0.92172022887E+02  0.00000000000E+00 0. -1.
         -6    2    1    2    0  503 -0.43046784934E+01  0.16754604133E+03  0.24502497380E+03  0.34289468588E+03  0.17160804642E+03 0.  0.
        -24    2    3    3    0    0  0.19806974936E+01  0.18897684372E+03  0.17702542633E+03  0.27116732918E+03  0.80483217028E+02 0.  0.
          6    2    1    2  501    0  0.43046784934E+01 -0.16754604133E+03  0.28785069567E+03  0.37432502937E+03  0.17079519428E+03 0.  0.
         24    2    5    5    0    0 -0.32394032711E+02 -0.12157742996E+03  0.10546686501E+03  0.18263293166E+03  0.80006770223E+02 0.  0.
          5    1    5    5  501    0  0.36698711204E+02 -0.45968611371E+02  0.18238383066E+03  0.19169209770E+03  0.47000000000E+01 0. -1.
        -13    1    6    6    0    0 -0.44080273870E+02 -0.96350410387E+02  0.11189146646E+03  0.15409793118E+03  0.00000000000E+00 0.  1.
         14    1    6    6    0    0  0.11686241159E+02 -0.25227019574E+02 -0.64246014491E+01  0.28535000487E+02  0.00000000000E+00 0. -1.
         -5    1    3    3    0  503 -0.62853759871E+01 -0.21430802391E+02  0.67999547469E+02  0.71727356695E+02  0.47000000000E+01 0.  1.
         13    1    4    4    0    0 -0.13385075462E+02  0.17643302600E+03  0.12830381100E+03  0.21856267025E+03  0.00000000000E+00 0. -1.
        -14    1    4    4    0    0  0.15365772956E+02  0.12543817724E+02  0.48721615326E+02  0.52604658935E+02  0.00000000000E+00 0.  1.
</event>
<event>
12    1  0.8562501E-002  0.1939771E+03  0.7818608E-02  0.1156527E+00
         21   -1    0    0  503  502  0.00000000000E+00  0.00000000000E+00  0.46207257614E+03  0.46207257614E+03  0.00000000000E+00 0.  1.
         21   -1    0    0  501  503 -0.00000000000E+00 -0.00000000000E+00 -0.78500856865E+02  0.78500856865E+02  0.00000000000E+00 0.  1.
          6    2    1    2  501    0 -0.78331858129E+02  0.42604746964E+02  0.19494934449E+03  0.27000823406E+03  0.16415893238E+03 0.  0.
         24    2    3    3    0    0 -0.60555424774E+02  0.87850901364E+02  0.16652167438E+03  0.21349771735E+03  0.80418075928E+02 0.  0.
         -6    2    1    2    0  502  0.78331858129E+02 -0.42604746964E+02  0.18862237479E+03  0.27056519895E+03  0.17226747270E+03 0.  0.
        -24    2    5    5    0    0  0.72763341109E+01  0.31367522338E+02  0.11348019094E+03  0.14332832571E+03  0.81414917049E+02 0.  0.
          5    1    3    3  501    0 -0.17776433355E+02 -0.45246154400E+02  0.28427670114E+02  0.56510516711E+02  0.47000000000E+01 0. -1.
        -13    1    4    4    0    0 -0.65373594511E+02  0.24270227548E+02  0.91387489277E+02  0.11495400820E+03  0.00000000000E+00 0.  1.
         14    1    4    4    0    0  0.48181697374E+01  0.63580673815E+02  0.75134185100E+02  0.98543709150E+02  0.00000000000E+00 0. -1.
         -5    1    5    5    0  502  0.71055524018E+02 -0.73972269301E+02  0.75142183847E+02  0.12723687324E+03  0.47000000000E+01 0.  1.
         13    1    6    6    0    0 -0.14686678344E+02  0.23156640266E+00  0.10267885788E+03  0.10372415340E+03  0.00000000000E+00 0. -1.
        -14    1    6    6    0    0  0.21963012455E+02  0.31135955935E+02  0.10801333064E+02  0.39604172306E+02  0.00000000000E+00 0.  1.
</event>
<event>
12    1  0.8562501E-002  0.1749226E+03  0.7818608E-02  0.1172882E+00
         21   -1    0    0  503  502  0.00000000000E+00  0.00000000000E+00  0.21444147533E+03  0.21444147533E+03  0.00000000000E+00 0. -1.
         21   -1    0    0  501  503 -0.00000000000E+00 -0.00000000000E+00 -0.19418578180E+03  0.19418578180E+03  0.00000000000E+00 0. -1.
          6    2    1    2  501    0 -0.10187033606E+02 -0.27855341438E+02 -0.95335521210E+02  0.19896268622E+03  0.17209762696E+03 0.  0.
         24    2    3    3    0    0 -0.41915831821E+02 -0.57388544445E+02 -0.10941554959E+03  0.15314496132E+03  0.80194979234E+02 0.  0.
         -6    2    1    2    0  502  0.10187033606E+02  0.27855341438E+02  0.11559121474E+03  0.20966457090E+03  0.17238969710E+03 0.  0.
        -24    2    5    5    0    0 -0.57540709961E+02  0.21721276645E+02  0.95944384974E+02  0.13872260928E+03  0.79094185339E+02 0.  0.
          5    1    3    3  501    0  0.31728798215E+02  0.29533203007E+02  0.14080028382E+02  0.45817724903E+02  0.47000000000E+01 0. -1.
        -11    1    4    4    0    0 -0.94625450958E+01  0.15010130854E+02  0.30219454234E+00  0.17746411172E+02  0.00000000000E+00 0.  1.
         12    1    4    4    0    0 -0.32453286725E+02 -0.72398675299E+02 -0.10971774413E+03  0.13539855015E+03  0.00000000000E+00 0. -1.
         -5    1    5    5    0  502  0.67727743567E+02  0.61340647931E+01  0.19646829761E+02  0.70941961625E+02  0.47000000000E+01 0.  1.
         11    1    6    6    0    0 -0.39371366627E+01  0.19703749868E+02  0.80402086924E+02  0.82874811528E+02  0.00000000000E+00 0. -1.
        -12    1    6    6    0    0 -0.53603573299E+02  0.20175267771E+01  0.15542298050E+02  0.55847797748E+02  0.00000000000E+00 0.  1.
</event>
<event>
12    1  0.8562501E-002  0.2312994E+03  0.7818608E-02  0.1125954E+00
         21   -1    0    0  501  502  0.00000000000E+00  0.00000000000E+00  0.20850477796E+03  0.20850477796E+03  0.00000000000E+00 0.  1.
         21   -1    0    0  502  503 -0.00000000000E+00 -0.00000000000E+00 -0.52168157944E+03  0.52168157944E+03  0.00000000000E+00 0. -1.
         -6    2    1    2    0  503  0.14693850157E+03  0.47127449137E+02 -0.41732955013E+03  0.47651881747E+03  0.17057054342E+03 0.  0.
        -24    2    3    3    0    0  0.43180457881E+02  0.87636112035E+01 -0.88415385268E+02  0.12946819647E+03  0.83686203881E+02 0.  0.
          6    2    1    2  501    0 -0.14693850157E+03 -0.47127449137E+02  0.10415274865E+03  0.25366753993E+03  0.17230062697E+03 0.  0.
         24    2    5    5    0    0 -0.27321712876E+02 -0.41946391380E+00  0.95984995432E+02  0.12490957235E+03  0.75117441198E+02 0.  0.
          5    1    5    5  501    0 -0.11961678870E+03 -0.46707985224E+02  0.81677532150E+01  0.12875796758E+03  0.47000000000E+01 0. -1.
        -13    1    6    6    0    0 -0.31402007647E+02  0.72888599182E+01  0.39679502246E+01  0.32480119953E+02  0.00000000000E+00 0.  1.
         14    1    6    6    0    0  0.40802947710E+01 -0.77083238320E+01  0.92017045207E+02  0.92429452397E+02  0.00000000000E+00 0. -1.
         -5    1    3    3    0  503  0.10375804369E+03  0.38363837934E+02 -0.32891416487E+03  0.34705062101E+03  0.47000000000E+01 0.  1.
         13    1    4    4    0    0 -0.94741404040E-01  0.38686052026E+02 -0.21213229660E+02  0.44120524815E+02  0.00000000000E+00 0. -1.
        -14    1    4    4    0    0  0.43275199285E+02 -0.29922440823E+02 -0.67202155608E+02  0.85347671652E+02  0.00000000000E+00 0.  1.
</event>
<event>
12    1  0.8562501E-002  0.1832222E+03  0.7818608E-02  0.1164730E+00
         21   -1    0    0  501  502  0.00000000000E+00  0.00000000000E+00  0.45522013935E+03  0.45522013935E+03  0.00000000000E+00 0.  1.
         21   -1    0    0  502  503 -0.00000000000E+00 -0.00000000000E+00 -0.10342839652E+03  0.10342839652E+03  0.00000000000E+00 0.  1.
         -6    2    1    2    0  503  0.52163089028E+02 -0.36688776713E+02  0.26204238097E+02  0.18504767385E+03  0.17172339767E+03 0.  0.
        -24    2    3    3    0    0  0.48327629190E+02  0.42498429935E+02  0.27428624958E+02  0.10561900414E+03  0.79128808139E+02 0.  0.
          6    2    1    2  501    0 -0.52163089028E+02  0.36688776713E+02  0.32558750473E+03  0.37360086202E+03  0.17176532443E+03 0.  0.
         24    2    5    5    0    0 -0.15156518134E+02 -0.30560347030E+02  0.25508033822E+03  0.26926830976E+03  0.79219876544E+02 0.  0.
          5    1    5    5  501    0 -0.37006570894E+02  0.67249123743E+02  0.70507166507E+02  0.10433255227E+03  0.47000000000E+01 0. -1.
        -11    1    6    6    0    0  0.25968399180E+02 -0.36205145571E+02  0.12319049784E+03  0.13100026366E+03  0.00000000000E+00 0.  1.
         12    1    6    6    0    0 -0.41124917314E+02  0.56447985410E+01  0.13188984038E+03  0.13826804609E+03  0.00000000000E+00 0. -1.
         -5    1    3    3    0  503  0.38354598375E+01 -0.79187206648E+02 -0.12243868615E+01  0.79428669711E+02  0.47000000000E+01 0.  1.
         13    1    4    4    0    0  0.26882959396E+02  0.63673464184E+02  0.75745942478E+01  0.69529691680E+02  0.00000000000E+00 0. -1.
        -14    1    4    4    0    0  0.21444669794E+02 -0.21175034250E+02  0.19854030710E+02  0.36089312456E+02  0.00000000000E+00 0.  1.
</event>
<event>
12    1  0.8562501E-002  0.1881796E+03  0.7818608E-02  0.1160197E+00
         21   -1    0    0  503  502  0.00000000000E+00  0.00000000000E+00  0.16703901668E+04  0.16703901668E+04  0.00000000000E+00 0. -1.
         21   -1    0    0  501  503 -0.00000000000E+00 -0.00000000000E+00 -0.25454958979E+02  0.25454958979E+02  0.00000000000E+00 0. -1.
          6    2    1    2  501    0 -0.72573116240E+02  0.11779044627E+02  0.47477512211E+03  0.51070832607E+03  0.17322232725E+03 0.  0.
         24    2    3    3    0    0 -0.35491205520E+02  0.69950671734E+02  0.22837374851E+03  0.25478893796E+03  0.81302593765E+02 0.  0.
         -6    2    1    2    0  502  0.72573116240E+02 -0.11779044627E+02  0.11701600857E+04  0.11851367997E+04  0.17282651626E+03 0.  0.
        -24    2    5    5    0    0  0.58202013699E+02  0.50361429014E+02  0.50997421941E+03  0.52186051103E+03  0.79630023088E+02 0.  0.
          5    1    3    3  501    0 -0.37081910720E+02 -0.58171627107E+02  0.24640137359E+03  0.25591938811E+03  0.47000000000E+01 0. -1.
        -13    1    4    4    0    0  0.20815033160E+02  0.47803058309E+01  0.19759476761E+02  0.29095598485E+02  0.00000000000E+00 0.  1.
         14    1    4    4    0    0 -0.56306238680E+02  0.65170365903E+02  0.20861427175E+03  0.22569333948E+03  0.00000000000E+00 0. -1.
         -5    1    5    5    0  502  0.14371102541E+02 -0.62140473641E+02  0.66018586629E+03  0.66327628866E+03  0.47000000000E+01 0.  1.
         11    1    6    6    0    0  0.56546715108E+02  0.67351318454E+02  0.47339699967E+03  0.48149605438E+03  0.00000000000E+00 0. -1.
        -12    1    6    6    0    0  0.16552985905E+01 -0.16989889440E+02  0.36577219742E+02  0.40364456650E+02  0.00000000000E+00 0.  1.
</event>
<event>
12    1  0.8562501E-002  0.3430310E+03  0.7818608E-02  0.1065707E+00
         21   -1    0    0  501  502  0.00000000000E+00  0.00000000000E+00  0.22829493216E+04  0.22829493216E+04  0.00000000000E+00 0.  1.
         21   -1    0    0  502  503 -0.00000000000E+00 -0.00000000000E+00 -0.15637565794E+03  0.15637565794E+03  0.00000000000E+00 0. -1.
         -6    2    1    2    0  503  0.29752857593E+03  0.81636848961E+01  0.62400475414E+02  0.34684291277E+03  0.16678215600E+03 0.  0.
        -24    2    3    3    0    0  0.26208938100E+03 -0.27083633189E+02  0.11176808292E+02  0.27511938774E+03  0.78367018871E+02 0.  0.
          6    2    1    2  501    0 -0.29752857593E+03 -0.81636848961E+01  0.20641731882E+04  0.20924820668E+04  0.17052961470E+03 0.  0.
         24    2    5    5    0    0 -0.22331137538E+03  0.36657320852E+02  0.17557492799E+04  0.17720690323E+04  0.79758334331E+02 0.  0.
          5    1    5    5  501    0 -0.74217200550E+02 -0.44821005748E+02  0.30842390835E+03  0.32041303446E+03  0.47000000000E+01 0. -1.
        -13    1    6    6    0    0 -0.48787687258E+02  0.83173517357E+01  0.18891623704E+03  0.19529147801E+03  0.00000000000E+00 0.  1.
         14    1    6    6    0    0 -0.17452368812E+03  0.28339969116E+02  0.15668330429E+04  0.15767775543E+04  0.00000000000E+00 0. -1.
         -5    1    3    3    0  503  0.35439194929E+02  0.35247318085E+02  0.51223667123E+02  0.71723525031E+02  0.47000000000E+01 0.  1.
         11    1    4    4    0    0  0.22721223310E+02  0.74837560400E+01 -0.20111420418E+02  0.31252677075E+02  0.00000000000E+00 0. -1.
        -12    1    4    4    0    0  0.23936815769E+03 -0.34567389229E+02  0.31288228710E+02  0.24386671066E+03  0.00000000000E+00 0.  1.
</event>
<event>
12    1  0.8562501E-002  0.1936490E+03  0.7818608E-02  0.1155406E+00
         21   -1    0    0  503  502  0.00000000000E+00  0.00000000000E+00  0.45229057111E+02  0.45229057111E+02  0.00000000000E+00 0.  1.
         21   -1    0    0  501  503 -0.00000000000E+00 -0.00000000000E+00 -0.12542447233E+04  0.12542447233E+04  0.00000000000E+00 0.  1.
          6    2    1    2  501    0  0.80652400541E+02 -0.31490648043E+02 -0.98537877999E+03  0.10042267011E+04  0.17321505861E+03 0.  0.
         24    2    3    3    0    0  0.11536908586E+03 -0.52074071500E+02 -0.84172227755E+03  0.85493434948E+03  0.79966333521E+02 0.  0.
         -6    2    1    2    0  502 -0.80652400541E+02  0.31490648043E+02 -0.22363688623E+03  0.29524707934E+03  0.17222343147E+03 0.  0.
        -24    2    5    5    0    0 -0.73420168694E+02  0.12182323313E+02 -0.50174247596E+02  0.12050013778E+03  0.80398370079E+02 0.  0.
          5    1    3    3  501    0 -0.34716685321E+02  0.20583423457E+02 -0.14365650244E+03  0.14929235163E+03  0.47000000000E+01 0. -1.
        -11    1    4    4    0    0  0.89493965573E+02 -0.60940768685E+02 -0.77925899340E+03  0.78674489255E+03  0.00000000000E+00 0.  1.
         12    1    4    4    0    0  0.25875120289E+02  0.88666971851E+01 -0.62463284150E+02  0.68189456925E+02  0.00000000000E+00 0. -1.
         -5    1    5    5    0  502 -0.72322318468E+01  0.19308324729E+02 -0.17346263863E+03  0.17474694156E+03  0.47000000000E+01 0.  1.
         13    1    6    6    0    0 -0.23542661426E+02 -0.13807127925E+02 -0.57629573221E+02  0.63765675706E+02  0.00000000000E+00 0. -1.
        -14    1    6    6    0    0 -0.49877507269E+02  0.25989451239E+02  0.74553256245E+01  0.56734462077E+02  0.00000000000E+00 0.  1.
</event>
<event>
12    1  0.8562501E-002  0.2723286E+03  0.7818608E-02  0.1100001E+00
         21   -1    0    0  501  502  0.00000000000E+00  0.00000000000E+00  0.24349612354E+03  0.24349612354E+03  0.00000000000E+00 0.  1.
         21   -1    0    0  502  503 -0.00000000000E+00 -0.00000000000E+00 -0.30766508581E+03  0.30766508581E+03  0.00000000000E+00 0. -1.
         -6    2    1    2    0  503  0.23129255545E+02 -0.20908450490E+03 -0.61289508844E+02  0.27881740893E+03  0.17242810378E+03 0.  0.
        -24    2    3    3    0    0  0.44066893396E+02 -0.18646432447E+03 -0.99051352045E+02  0.22984696842E+03  0.79420546179E+02 0.  0.
          6    2    1    2  501    0 -0.23129255545E+02  0.20908450490E+03 -0.28794534179E+01  0.27234380042E+03  0.17294959302E+03 0.  0.
         24    2    5    5    0    0 -0.73829352249E+02  0.18634628607E+03  0.55958146768E+00  0.21647392158E+03  0.81761445714E+02 0.  0.
          5    1    5    5  501    0  0.50700096704E+02  0.22738218830E+02 -0.34390348855E+01  0.55869878846E+02  0.47000000000E+01 0. -1.
        -13    1    6    6    0    0 -0.35229828117E+02  0.10563826125E+03  0.40507594040E+02  0.11849661685E+03  0.00000000000E+00 0.  1.
         14    1    6    6    0    0 -0.38599524132E+02  0.80708024824E+02 -0.39948012572E+02  0.97977304733E+02  0.00000000000E+00 0. -1.
         -5    1    3    3    0  503 -0.20937637851E+02 -0.22620180433E+02  0.37761843201E+02  0.48970440508E+02  0.47000000000E+01 0.  1.
         11    1    4    4    0    0  0.19150695761E+02 -0.17253972516E+03 -0.64889975639E+02  0.18533055562E+03  0.00000000000E+00 0. -1.
        -12    1    4    4    0    0  0.24916197635E+02 -0.13924599305E+02 -0.34161376407E+02  0.44516412798E+02  0.00000000000E+00 0.  1.
</event>
<event>
12    1  0.8562501E-002  0.2523502E+03  0.7818608E-02  0.1112024E+00
         21   -1    0    0  501  502  0.00000000000E+00  0.00000000000E+00  0.27072316452E+03  0.27072316452E+03  0.00000000000E+00 0. -1.
         21   -1    0    0  502  503 -0.00000000000E+00 -0.00000000000E+00 -0.28869264944E+03  0.28869264944E+03  0.00000000000E+00 0.  1.
         -6    2    1    2    0  503 -0.16814660753E+03  0.72417437306E+02 -0.13067719868E+03  0.28417799994E+03  0.17367509478E+03 0.  0.
        -24    2    3    3    0    0 -0.10057697578E+03 -0.17993660357E+02 -0.10901865392E+03  0.16915189735E+03  0.79295634217E+02 0.  0.
          6    2    1    2  501    0  0.16814660753E+03 -0.72417437306E+02  0.11270771377E+03  0.27523781402E+03  0.17185825169E+03 0.  0.
         24    2    5    5    0    0  0.11264410387E+03 -0.69643099665E+02  0.66490870931E+01  0.15540982416E+03  0.81050278333E+02 0.  0.
          5    1    5    5  501    0  0.55502503657E+02 -0.27743376411E+01  0.10605862667E+03  0.11982798986E+03  0.47000000000E+01 0. -1.
        -13    1    6    6    0    0  0.61507307414E+02  0.40005276574E+01 -0.14439812648E+02  0.63306091936E+02  0.00000000000E+00 0.  1.
         14    1    6    6    0    0  0.51136796461E+02 -0.73643627322E+02  0.21088899742E+02  0.92103732225E+02  0.00000000000E+00 0. -1.
         -5    1    3    3    0  503 -0.67569631755E+02  0.90411097663E+02 -0.21658544762E+02  0.11502610259E+03  0.47000000000E+01 0.  1.
         11    1    4    4    0    0 -0.44906415777E+02 -0.41221834804E+02 -0.25380825502E+02  0.66030388048E+02  0.00000000000E+00 0. -1.
        -12    1    4    4    0    0 -0.55670560000E+02  0.23228174447E+02 -0.83637828417E+02  0.10312150930E+03  0.00000000000E+00 0.  1.
</event>
<event>
12    1  0.8562501E-002  0.2302812E+03  0.7818608E-02  0.1126667E+00
         21   -1    0    0  503  502  0.00000000000E+00  0.00000000000E+00  0.15042814110E+03  0.15042814110E+03  0.00000000000E+00 0.  1.
         21   -1    0    0  501  503 -0.00000000000E+00 -0.00000000000E+00 -0.77833195508E+03  0.77833195508E+03  0.00000000000E+00 0. -1.
          6    2    1    2  501    0 -0.12848295417E+03  0.83562534498E+02 -0.65782256476E+03  0.69654347811E+03  0.17015205992E+03 0.  0.
         24    2    3    3    0    0 -0.25432112580E+02  0.30054770715E+02 -0.12980868563E+03  0.15589266354E+03  0.76825426039E+02 0.  0.
         -6    2    1    2    0  502  0.12848295417E+03 -0.83562534498E+02  0.29918750790E+02  0.23221661808E+03  0.17186872716E+03 0.  0.
        -24    2    5    5    0    0  0.41617086089E+02 -0.10610413208E+03  0.26560183778E+02  0.14228790947E+03  0.80934152982E+02 0.  0.
          5    1    3    3  501    0 -0.10305084159E+03  0.53507763783E+02 -0.52801387913E+03  0.54065081457E+03  0.47000000000E+01 0. -1.
        -11    1    4    4    0    0 -0.13575916700E+02 -0.21298274998E+02 -0.14532130240E+02  0.29139403588E+02  0.00000000000E+00 0.  1.
         12    1    4    4    0    0 -0.11856195879E+02  0.51353045713E+02 -0.11527655539E+03  0.12675325995E+03  0.00000000000E+00 0. -1.
         -5    1    5    5    0  502  0.86865868085E+02  0.22541597584E+02  0.33585670118E+01  0.89928708609E+02  0.47000000000E+01 0.  1.
         11    1    6    6    0    0  0.23009261276E+02 -0.34179080341E+02 -0.28256462048E+02  0.49960617339E+02  0.00000000000E+00 0. -1.
        -12    1    6    6    0    0  0.18607824813E+02 -0.71925051741E+02  0.54816645826E+02  0.92327292129E+02  0.00000000000E+00 0.  1.
</event>
<event>
12    1  0.8562501E-002  0.3029170E+03  0.7818608E-02  0.1083870E+00
         21   -1    0    0  503  502  0.00000000000E+00  0.00000000000E+00  0.87661897883E+03  0.87661897883E+03  0.00000000000E+00 0. -1.
         21   -1    0    0  501  503 -0.00000000000E+00 -0.00000000000E+00 -0.13174256883E+03  0.13174256883E+03  0.00000000000E+00 0.  1.
          6    2    1    2  501    0 -0.22811879314E+03 -0.99738885630E+02  0.14328601424E+03  0.33509635763E+03  0.17254755265E+03 0.  0.
         24    2    3    3    0    0 -0.18449495324E+03 -0.11207781458E+03  0.56769745252E+02  0.23730861108E+03  0.80577593814E+02 0.  0.
         -6    2    1    2    0  502  0.22811879314E+03  0.99738885630E+02  0.60159039576E+03  0.67326519004E+03  0.17143215204E+03 0.  0.
        -24    2    5    5    0    0  0.21382799952E+03  0.13349160115E+03  0.54141321463E+03  0.60264751720E+03  0.80705266657E+02 0.  0.
          5    1    3    3  501    0 -0.43623839899E+02  0.12338928945E+02  0.86516268985E+02  0.97787746544E+02  0.47000000000E+01 0. -1.
        -13    1    4    4    0    0 -0.80395382009E+02 -0.45222079124E+01  0.24738814638E+02  0.84237027265E+02  0.00000000000E+00 0.  1.
         14    1    4    4    0    0 -0.10409957124E+03 -0.10755560666E+03  0.32030930614E+02  0.15307158382E+03  0.00000000000E+00 0. -1.
         -5    1    5    5    0  502  0.14290793622E+02 -0.33752715516E+02  0.60177181135E+02  0.70617672833E+02  0.47000000000E+01 0.  1.
         13    1    6    6    0    0  0.14170941629E+03  0.12343411264E+03  0.34008085751E+03  0.38855183499E+03  0.00000000000E+00 0. -1.
        -14    1    6    6    0    0  0.72118583234E+02  0.10057488510E+02  0.20133235711E+03  0.21409568222E+03  0.00000000000E+00 0.  1.
</event>
<event>
12    1  0.8562501E-002  0.1813947E+03  0.7818608E-02  0.1166704E+00
         21   -1    0    0  501  502  0.00000000000E+00  0.00000000000E+00  0.15856870490E+04  0.15856870490E+04  0.00000000000E+00 0.  1.
         21   -1    0    0  502  503 -0.00000000000E+00 -0.00000000000E+00 -0.32125017287E+02  0.32125017287E+02  0.00000000000E+00 0.  1.
         -6    2    1    2    0  503  0.45990007809E+02  0.30377421272E+02  0.29440738147E+03  0.34580305978E+03  0.17281834783E+03 0.  0.
        -24    2    3    3    0    0 -0.23895435371E+02 -0.17788513186E+02  0.87989295606E+02  0.12256675318E+03  0.79956674594E+02 0.  0.
          6    2    1    2  501    0 -0.45990007809E+02 -0.30377421272E+02  0.12591546503E+04  0.12720090065E+04  0.17175159639E+03 0.  0.
         24    2    5    5    0    0 -0.14658475688E+02 -0.73961121445E+02  0.55703824838E+03  0.56782810959E+03  0.80324550911E+02 0.  0.
          5    1    5    5  501    0 -0.31331532121E+02  0.43583700174E+02  0.70211640190E+03  0.70418089696E+03  0.47000000000E+01 0. -1.
        -11    1    6    6    0    0  0.79273824267E+01 -0.55491689828E+02  0.50554885153E+03  0.50864704099E+03  0.00000000000E+00 0.  1.
         12    1    6    6    0    0 -0.22585858114E+02 -0.18469431617E+02  0.51489396857E+02  0.59181068592E+02  0.00000000000E+00 0. -1.
         -5    1    3    3    0  503  0.69885443180E+02  0.48165934458E+02  0.20641808586E+03  0.22323630659E+03  0.47000000000E+01 0.  1.
         13    1    4    4    0    0 -0.21403313188E+02  0.27409485233E+02  0.59988469244E+02  0.69339729869E+02  0.00000000000E+00 0. -1.
        -14    1    4    4    0    0 -0.24921221838E+01 -0.45197998419E+02  0.28000826362E+02  0.53227023315E+02  0.00000000000E+00 0.  1.
</event>
<event>
12    1  0.8562501E-002  0.2146264E+03  0.7818608E-02  0.1138440E+00
         21   -1    0    0  503  502  0.00000000000E+00  0.00000000000E+00  0.15157233786E+04  0.15157233786E+04  0.00000000000E+00 0.  1.
         21   -1    0    0  501  503 -0.00000000000E+00 -0.00000000000E+00 -0.32990348479E+02  0.32990348479E+02  0.00000000000E+00 0.  1.
          6    2    1    2  501    0 -0.86250195415E+02 -0.90835425413E+02  0.51364648509E+03  0.55668412680E+03  0.17428234182E+03 0.  0.
         24    2    3    3    0    0  0.54912883766E+01  0.82735093808E+01  0.21016034711E+03  0.22447183512E+03  0.78240833683E+02 0.  0.
         -6    2    1    2    0  502  0.86250195415E+02  0.90835425413E+02  0.96908654500E+03  0.99202960025E+03  0.17118360127E+03 0.  0.
        -24    2    5    5    0    0  0.72858737439E+02  0.11703300799E+03  0.92707033722E+03  0.94052138540E+03  0.78204511861E+02 0.  0.
          5    1    3    3  501    0 -0.91741483792E+02 -0.99108934794E+02  0.30348613797E+03  0.33221229168E+03  0.47000000000E+01 0. -1.
        -13    1    4    4    0    0 -0.24505116716E+02 -0.35517997549E+01  0.20660821781E+02  0.32248807473E+02  0.00000000000E+00 0.  1.
         14    1    4    4    0    0  0.29996405092E+02  0.11825309136E+02  0.18949952533E+03  0.19222302764E+03  0.00000000000E+00 0. -1.
         -5    1    5    5    0  502  0.13391457976E+02 -0.26197582578E+02  0.42016207788E+02  0.51508214846E+02  0.47000000000E+01 0.  1.
         11    1    6    6    0    0  0.57968808554E+01 -0.11843786317E+02  0.72304463247E+02  0.73497037405E+02  0.00000000000E+00 0. -1.
        -12    1    6    6    0    0  0.67061856584E+02  0.12887679431E+03  0.85476587397E+03  0.86702434800E+03  0.00000000000E+00 0.  1.
</event>
<event>
12    1  0.8562501E-002  0.1909423E+03  0.7818608E-02  0.1157731E+00
         21   -1    0    0  503  502  0.00000000000E+00  0.00000000000E+00  0.26669212034E+03  0.26669212034E+03  0.00000000000E+00 0.  1.
         21   -1    0    0  501  503 -0.00000000000E+00 -0.00000000000E+00 -0.14128233486E+03  0.14128233486E+03  0.00000000000E+00 0. -1.
          6    2    1    2  501    0  0.13029935826E+02  0.80896163544E+02  0.24454798160E+02  0.19198632843E+03  0.17189166544E+03 0.  0.
         24    2    3    3    0    0  0.33530732021E+02  0.11840803896E+03  0.25504289862E+02  0.14896755492E+03  0.79975558382E+02 0.  0.
         -6    2    1    2    0  502 -0.13029935826E+02 -0.80896163544E+02  0.10095498732E+03  0.21598812677E+03  0.17246736774E+03 0.  0.
        -24    2    5    5    0    0 -0.61670598981E+02 -0.36546128845E+02  0.17529712894E+02  0.10961751944E+03  0.81054471947E+02 0.  0.
          5    1    3    3  501    0 -0.20500796194E+02 -0.37511875414E+02 -0.10494917024E+01  0.43018773512E+02  0.47000000000E+01 0. -1.
        -11    1    4    4    0    0  0.55439267053E+02  0.98693440546E+02  0.34176588092E+02  0.11824528199E+03  0.00000000000E+00 0.  1.
         12    1    4    4    0    0 -0.21908535033E+02  0.19714598412E+02 -0.86722982300E+01  0.30722272937E+02  0.00000000000E+00 0. -1.
         -5    1    5    5    0  502  0.48640663154E+02 -0.44350034698E+02  0.83425274425E+02  0.10637060732E+03  0.47000000000E+01 0.  1.
         13    1    6    6    0    0 -0.65160993438E+02 -0.30707152206E+02  0.42568051260E+02  0.83671519949E+02  0.00000000000E+00 0. -1.
        -14    1    6    6    0    0  0.34903944571E+01 -0.58389766398E+01 -0.25038338366E+02  0.25945999495E+02  0.00000000000E+00 0.  1.
</event>
<event>
12    1  0.8562501E-002  0.1832462E+03  0.7818608E-02  0.1164763E+00
         21   -1    0    0  501  502  0.00000000000E+00  0.00000000000E+00  0.14354699937E+04  0.14354699937E+04  0.00000000000E+00 0.  1.
         21   -1    0    0  502  503 -0.00000000000E+00 -0.00000000000E+00 -0.19706210681E+03  0.19706210681E+03  0.00000000000E+00 0.  1.
         -6    2    1    2    0  503  0.17393469527E+02  0.59571982610E+02 -0.14721771134E+03  0.23484204909E+03  0.17212315241E+03 0.  0.
        -24    2    3    3    0    0 -0.56649834997E+02  0.29104851719E+02 -0.69147552317E+02  0.12291485517E+03  0.79185740074E+02 0.  0.
          6    2    1    2  501    0 -0.17393469527E+02 -0.59571982610E+02  0.13856255982E+04  0.13976900514E+04  0.17241759611E+03 0.  0.
         24    2    5    5    0    0 -0.33950373129E+02 -0.97493793374E+02  0.11963496991E+04  0.12038869276E+04  0.86217541405E+02 0.  0.
          5    1    5    5  501    0  0.16556903602E+02  0.37921810764E+02  0.18927589914E+03  0.19380312378E+03  0.47000000000E+01 0. -1.
        -13    1    6    6    0    0 -0.59095567876E+02 -0.87128874279E+02  0.85543792594E+03  0.86189197236E+03  0.00000000000E+00 0.  1.
         14    1    6    6    0    0  0.25145194747E+02 -0.10364919095E+02  0.34091177312E+03  0.34199495525E+03  0.00000000000E+00 0. -1.
         -5    1    3    3    0  503  0.74043304524E+02  0.30467130890E+02 -0.78070159024E+02  0.11192719392E+03  0.47000000000E+01 0.  1.
         11    1    4    4    0    0 -0.45595133067E+02  0.10334745385E+02  0.36827974895E+01  0.46896546983E+02  0.00000000000E+00 0. -1.
        -12    1    4    4    0    0 -0.11054701930E+02  0.18770106334E+02 -0.72830349806E+02  0.76018308186E+02  0.00000000000E+00 0.  1.
</event>
<event>
12    1  0.8562501E-002  0.1966370E+03  0.7818608E-02  0.1152626E+00
         21   -1    0    0  503  502  0.00000000000E+00  0.00000000000E+00  0.43874002995E+03  0.43874002995E+03  0.00000000000E+00 0.  1.
         21   -1    0    0  501  503 -0.00000000000E+00 -0.00000000000E+00 -0.88103534597E+02  0.88103534597E+02  0.00000000000E+00 0.  1.
          6    2    1    2  501    0  0.92828023552E+02  0.24847179717E+02  0.17822678912E+03  0.26532639217E+03  0.17146102101E+03 0.  0.
         24    2    3    3    0    0  0.90537702877E+02  0.60907713992E+02  0.71847946058E+02  0.15288015634E+03  0.79393888828E+02 0.  0.
         -6    2    1    2    0  502 -0.92828023552E+02 -0.24847179717E+02  0.17240970623E+03  0.26151717238E+03  0.17155669719E+03 0.  0.
        -24    2    5    5    0    0 -0.12812804259E+03 -0.38597199050E+02  0.12061360800E+03  0.19717371764E+03  0.80145451665E+02 0.  0.
          5    1    3    3  501    0  0.22903206753E+01 -0.36060534275E+02  0.10637884307E+03  0.11244623583E+03  0.47000000000E+01 0. -1.
        -11    1    4    4    0    0  0.97381420024E+02  0.29744402972E+02  0.63128097679E+02  0.11980412009E+03  0.00000000000E+00 0.  1.
         12    1    4    4    0    0 -0.68437171471E+01  0.31163311020E+02  0.87198483792E+01  0.33076036248E+02  0.00000000000E+00 0. -1.
         -5    1    5    5    0  502  0.35300019034E+02  0.13750019333E+02  0.51796098229E+02  0.64343454735E+02  0.47000000000E+01 0.  1.
         11    1    6    6    0    0 -0.21116745698E+02  0.10341563571E+02 -0.60573954714E+01  0.24280793353E+02  0.00000000000E+00 0. -1.
        -12    1    6    6    0    0 -0.10701129689E+03 -0.48938762620E+02  0.12667100348E+03  0.17289292429E+03  0.00000000000E+00 0.  1.
</event>
<event>
12    1  0.8562501E-002  0.2612344E+03  0.7818608E-02  0.1106599E+00
         21   -1    0    0  501  502  0.00000000000E+00  0.00000000000E+00  0.26073379938E+03  0.26073379938E+03  0.00000000000E+00 0. -1.
         21   -1    0    0  502  503 -0.00000000000E+00 -0.00000000000E+00 -0.56114814087E+03  0.56114814087E+03  0.00000000000E+00 0.  1.
         -6    2    1    2    0  503 -0.62370357982E+02 -0.18620153831E+03 -0.45086113232E+03  0.52042271832E+03  0.17030258568E+03 0.  0.
        -24    2    3    3    0    0  0.15065434199E+02 -0.45170835371E+02 -0.11203553888E+03  0.14530829065E+03  0.79342080156E+02 0.  0.
          6    2    1    2  501    0  0.62370357982E+02  0.18620153831E+03  0.15044679083E+03  0.30145922192E+03  0.17228566739E+03 0.  0.
         24    2    5    5    0    0  0.20626179170E+02  0.19827483419E+03  0.14178129786E+03  0.25690002863E+03  0.78468714456E+02 0.  0.
          5    1    5    5  501    0  0.41744178812E+02 -0.12073295881E+02  0.86654929685E+01  0.44559193288E+02  0.47000000000E+01 0. -1.
        -13    1    6    6    0    0 -0.21811031088E+02  0.13452679710E+03  0.76602361393E+02  0.15633650241E+03  0.00000000000E+00 0.  1.
         14    1    6    6    0    0  0.42437210257E+02  0.63748037091E+02  0.65178936468E+02  0.10056352622E+03  0.00000000000E+00 0. -1.
         -5    1    3    3    0  503 -0.77435792180E+02 -0.14103070294E+03 -0.33882559344E+03  0.37511442768E+03  0.47000000000E+01 0.  1.
         11    1    4    4    0    0  0.38863337840E+02 -0.53193189368E+02 -0.68424151329E+02  0.94982834809E+02  0.00000000000E+00 0. -1.
        -12    1    4    4    0    0 -0.23797903642E+02  0.80223539974E+01 -0.43611387550E+02  0.50325455840E+02  0.00000000000E+00 0.  1.
</event>
<event>
12    1  0.8562501E-002  0.2340241E+03  0.7818608E-02  0.1123872E+00
         21   -1    0    0  501  502  0.00000000000E+00  0.00000000000E+00  0.11123017062E+04  0.11123017062E+04  0.00000000000E+00 0. -1.
         21   -1    0    0  502  503 -0.00000000000E+00 -0.00000000000E+00 -0.54831602737E+02  0.54831602737E+02  0.00000000000E+00 0.  1.
         -6    2    1    2    0  503 -0.62784275239E+02  0.14534680835E+03  0.34147110480E+03  0.41385921222E+03  0.17207374061E+03 0.  0.
        -24    2    3    3    0    0 -0.96158073994E+02  0.14431372196E+03  0.32273271316E+03  0.37528337740E+03  0.81291965570E+02 0.  0.
          6    2    1    2  501    0  0.62784275239E+02 -0.14534680835E+03  0.71599899861E+03  0.75327409667E+03  0.17233612154E+03 0.  0.
         24    2    5    5    0    0 -0.95477714440E+01 -0.11952947879E+02  0.21832326832E+03  0.23295777989E+03  0.79813813455E+02 0.  0.
          5    1    5    5  501    0  0.72332046683E+02 -0.13339386047E+03  0.49767573029E+03  0.52031631678E+03  0.47000000000E+01 0. -1.
        -11    1    6    6    0    0 -0.22604668115E+02 -0.24907877616E+02  0.34380681373E+02  0.48097865229E+02  0.00000000000E+00 0.  1.
         12    1    6    6    0    0  0.13056896671E+02  0.12954929737E+02  0.18394258695E+03  0.18485991466E+03  0.00000000000E+00 0. -1.
         -5    1    3    3    0  503  0.33373798755E+02  0.10330863919E+01  0.18738391641E+02  0.38575834821E+02  0.47000000000E+01 0.  1.
         13    1    4    4    0    0 -0.31018352570E+02 -0.97349003048E+00  0.70093903984E+02  0.76656645210E+02  0.00000000000E+00 0. -1.
        -14    1    4    4    0    0 -0.65139721423E+02  0.14528721199E+03  0.25263880918E+03  0.29862673219E+03  0.00000000000E+00 0.  1.
</event>
<event>
12    1  0.8562501E-002  0.2223213E+03  0.7818608E-02  0.1132211E+00
         21   -1    0    0  503  502  0.00000000000E+00  0.00000000000E+00  0.51067880843E+02  0.51067880843E+02  0.00000000000E+00 0.  1.
         21   -1    0    0  501  503 -0.00000000000E+00 -0.00000000000E+00 -0.10229360483E+04  0.10229360483E+04  0.00000000000E+00 0.  1.
          6    2    1    2  501    0 -0.46157727292E+02  0.13431284043E+03 -0.35981465774E+03  0.42282327574E+03  0.17071162728E+03 0.  0.
         24    2    3    3    0    0 -0.58978384687E+02  0.98979239095E+02 -0.35902611543E+03  0.38493469648E+03  0.77457274389E+02 0.  0.
         -6    2    1    2    0  502  0.46157727292E+02 -0.13431284043E+03 -0.61205350968E+03  0.65118065337E+03  0.17104464246E+03 0.  0.
        -24    2    5    5    0    0 -0.38130530717E+02 -0.87635649465E+02 -0.32623090353E+03  0.34951871878E+03  0.81257540739E+02 0.  0.
          5    1    3    3  501    0  0.12820657395E+02  0.35333601337E+02 -0.78854230452E+00  0.37888579262E+02  0.47000000000E+01 0. -1.
        -13    1    4    4    0    0 -0.60366727910E+02  0.38180570712E+02 -0.13415230339E+03  0.15198269087E+03  0.00000000000E+00 0.  1.
         14    1    4    4    0    0  0.13883432230E+01  0.60798668383E+02 -0.22487381205E+03  0.23295200561E+03  0.00000000000E+00 0. -1.
         -5    1    5    5    0  502  0.84288258009E+02 -0.46677190967E+02 -0.28582260615E+03  0.30166193459E+03  0.47000000000E+01 0.  1.
         13    1    6    6    0    0 -0.14471848324E+02 -0.96895907893E+02 -0.28169755447E+03  0.29824782238E+03  0.00000000000E+00 0. -1.
        -14    1    6    6    0    0 -0.23658682392E+02  0.92602584280E+01 -0.44533349059E+02  0.51270896395E+02  0.00000000000E+00 0.  1.
</event>
<event>
12    1  0.8562501E-002  0.1717577E+03  0.7818608E-02  0.1176213E+00
         21   -1    0    0  503  502  0.00000000000E+00  0.00000000000E+00  0.10859504543E+03  0.10859504543E+03  0.00000000000E+00 0.  1.
         21   -1    0    0  501  503 -0.00000000000E+00 -0.00000000000E+00 -0.12038734982E+04  0.12038734982E+04  0.00000000000E+00 0.  1.
          6    2    1    2  501    0 -0.55008497189E+01 -0.45461732278E+01 -0.11257181860E+04  0.11387458698E+04  0.17160942486E+03 0.  0.
         24    2    3    3    0    0 -0.20230322825E+02 -0.13105664304E+01 -0.25553781344E+03  0.26842213849E+03  0.79623406026E+02 0.  0.
         -6    2    1    2    0  502  0.55008497189E+01  0.45461732278E+01  0.30439733209E+02  0.17372267382E+03  0.17088611121E+03 0.  0.
        -24    2    5    5    0    0 -0.41485077233E+01 -0.12401786728E+02 -0.46615909897E+02  0.94098521833E+02  0.80687510342E+02 0.  0.
          5    1    3    3  501    0  0.14729473106E+02 -0.32356067974E+01 -0.87018037258E+03  0.87032373135E+03  0.47000000000E+01 0. -1.
        -13    1    4    4    0    0 -0.69006397019E+01  0.79321029117E+01 -0.25148266695E+03  0.25170234178E+03  0.00000000000E+00 0.  1.
         14    1    4    4    0    0 -0.13329683123E+02 -0.92426693422E+01 -0.40551464919E+01  0.16719796703E+02  0.00000000000E+00 0. -1.
         -5    1    5    5    0  502  0.96493574422E+01  0.16947959956E+02  0.77055643106E+02  0.79624151990E+02  0.47000000000E+01 0.  1.
         11    1    6    6    0    0  0.26866232314E+02 -0.24136060909E+02  0.93406217586E+00  0.36127778054E+02  0.00000000000E+00 0. -1.
        -12    1    6    6    0    0 -0.31014740038E+02  0.11734274181E+02 -0.47549972073E+02  0.57970743779E+02  0.00000000000E+00 0.  1.
</event>
<event>
12    1  0.8562501E-002  0.2306198E+03  0.7818608E-02  0.1126785E+00
         21   -1    0    0  503  502  0.00000000000E+00  0.00000000000E+00  0.14690120287E+03  0.14690120287E+03  0.00000000000E+00 0.  1.
         21   -1    0    0  501  503 -0.00000000000E+00 -0.00000000000E+00 -0.36749250970E+03  0.36749250970E+03  0.00000000000E+00 0.  1.
          6    2    1    2  501    0 -0.11687069652E+02  0.15121120551E+03 -0.15471841802E+03  0.27771075829E+03  0.17373560408E+03 0.  0.
         24    2    3    3    0    0 -0.66843164322E+01  0.15820557509E+03 -0.72227737317E+02  0.19463999839E+03  0.87144700707E+02 0.  0.
         -6    2    1    2    0  502  0.11687069652E+02 -0.15121120551E+03 -0.65872888797E+02  0.23668295428E+03  0.16934629344E+03 0.  0.
        -24    2    5    5    0    0  0.55800341978E+02 -0.47324998724E+02  0.42071218494E+01  0.10374829873E+03  0.73434841498E+02 0.  0.
          5    1    3    3  501    0 -0.50027532200E+01 -0.69943695808E+01 -0.82490680707E+02  0.83070759892E+02  0.47000000000E+01 0. -1.
        -11    1    4    4    0    0  0.19790136641E+02  0.15232305311E+03 -0.62397089138E+02  0.16579312033E+03  0.00000000000E+00 0.  1.
         12    1    4    4    0    0 -0.26474453073E+02  0.58825219823E+01 -0.98306481794E+01  0.28846878063E+02  0.00000000000E+00 0. -1.
         -5    1    5    5    0  502 -0.44113272326E+02 -0.10388620678E+03 -0.70080010646E+02  0.13293465555E+03  0.47000000000E+01 0.  1.
         13    1    6    6    0    0  0.21611892197E+02  0.76198434908E+01 -0.23974641504E+02  0.33165031801E+02  0.00000000000E+00 0. -1.
        -14    1    6    6    0    0  0.34188449782E+02 -0.54944842215E+02  0.28181763353E+02  0.70583266928E+02  0.00000000000E+00 0.  1.
</event>
<event>
12    1  0.8562501E-002  0.1895455E+03  0.7818608E-02  0.1159518E+00
         21   -1    0    0  501  502  0.00000000000E+00  0.00000000000E+00  0.19105584369E+03  0.19105584369E+03  0.00000000000E+00 0.  1.
         21   -1    0    0  502  503 -0.00000000000E+00 -0.00000000000E+00 -0.30177739790E+03  0.30177739790E+03  0.00000000000E+00 0.  1.
         -6    2    1    2    0  503 -0.22326543867E+01  0.70532526899E+02 -0.20822747906E+03  0.27967863822E+03  0.17286305431E+03 0.  0.
        -24    2    3    3    0    0  0.26454265848E+02 -0.35096676458E+02 -0.34137138636E+02  0.73984679575E+02  0.48752268641E+02 0.  0.
          6    2    1    2  501    0  0.22326543867E+01 -0.70532526899E+02  0.97505924850E+02  0.21315460336E+03  0.17591946299E+03 0.  0.
         24    2    5    5    0    0 -0.23797048798E+02 -0.68910463663E+02 -0.41645693221E+01  0.10808721584E+03  0.79690344808E+02 0.  0.
          5    1    5    5  501    0  0.26029703184E+02 -0.16220632361E+01  0.10167049417E+03  0.10506738753E+03  0.47000000000E+01 0. -1.
        -11    1    6    6    0    0  0.21445868317E+02 -0.50493210969E+01 -0.18197445193E+02  0.28575652625E+02  0.00000000000E+00 0.  1.
         12    1    6    6    0    0 -0.45242917115E+02 -0.63861142566E+02  0.14032875870E+02  0.79511563210E+02  0.00000000000E+00 0. -1.
         -5    1    3    3    0  503 -0.28686920235E+02  0.10562920336E+03 -0.17409034042E+03  0.20569395864E+03  0.47000000000E+01 0.  1.
         13    1    4    4    0    0  0.37295234136E+02 -0.14149333486E+02 -0.30291016481E+02  0.50086762791E+02  0.00000000000E+00 0. -1.
        -14    1    4    4    0    0 -0.10840968288E+02 -0.20947342972E+02 -0.38461221547E+01  0.23897916784E+02  0.00000000000E+00 0.  1.
</event>
<event>
12    1  0.8562501E-002  0.1922838E+03  0.7818608E-02  0.1156784E+00
         21   -1    0    0  503  502  0.00000000000E+00  0.00000000000E+00  0.95413389797E+02  0.95413389797E+02  0.00000000000E+00 0. -1.
         21   -1    0    0  501  503 -0.00000000000E+00 -0.00000000000E+00 -0.47782253945E+03  0.47782253945E+03  0.00000000000E+00 0. -1.
          6    2    1    2  501    0  0.76919710139E+02 -0.32434834552E+02 -0.31741385085E+03  0.37026442254E+03  0.17139290998E+03 0.  0.
         24    2    3    3    0    0  0.56530403003E+02 -0.68336105885E+02 -0.12350405848E+03  0.17195223757E+03  0.80304481293E+02 0.  0.
         -6    2    1    2    0  502 -0.76919710139E+02  0.32434834552E+02 -0.64995298807E+02  0.20297150671E+03  0.17321773399E+03 0.  0.
        -24    2    5    5    0    0 -0.29469262315E+02  0.73607204134E+02 -0.33126692792E+02  0.13237117339E+03  0.10068908504E+03 0.  0.
          5    1    3    3  501    0  0.20389307136E+02  0.35901271333E+02 -0.19390979237E+03  0.19831218497E+03  0.47000000000E+01 0. -1.
        -11    1    4    4    0    0 -0.11537016209E+02 -0.28457753819E+02 -0.70537368774E+02  0.76931572771E+02  0.00000000000E+00 0.  1.
         12    1    4    4    0    0  0.68067419213E+02 -0.39878352066E+02 -0.52966689701E+02  0.95020664803E+02  0.00000000000E+00 0. -1.
         -5    1    5    5    0  502 -0.47450447824E+02 -0.41172369582E+02 -0.31868606015E+02  0.70600333321E+02  0.47000000000E+01 0.  1.
         13    1    6    6    0    0 -0.57770915308E+02  0.12245426996E+02 -0.52996063194E+01  0.59291778225E+02  0.00000000000E+00 0. -1.
        -14    1    6    6    0    0  0.28301652993E+02  0.61361777138E+02 -0.27827086472E+02  0.73079395161E+02  0.00000000000E+00 0.  1.
</event>
<event>
12    1  0.8562501E-002  0.2229657E+03  0.7818608E-02  0.1132115E+00
         21   -1    0    0  503  502  0.00000000000E+00  0.00000000000E+00  0.73045555055E+03  0.73045555055E+03  0.00000000000E+00 0. -1.
         21   -1    0    0  501  503 -0.00000000000E+00 -0.00000000000E+00 -0.78640758449E+02  0.78640758449E+02  0.00000000000E+00 0. -1.
          6    2    1    2  501    0 -0.14584361474E+02 -0.13769087500E+03  0.48059168436E+03  0.52979436291E+03  0.17476332349E+03 0.  0.
         24    2    3    3    0    0  0.26903917642E+02 -0.44677508465E+02  0.35686435433E+03  0.36947185715E+03  0.80233317795E+02 0.  0.
         -6    2    1    2    0  502  0.14584361474E+02  0.13769087500E+03  0.17122310774E+03  0.27930194609E+03  0.17181601732E+03 0.  0.
        -24    2    5    5    0    0 -0.25202614028E+02  0.15093543541E+03  0.16137533122E+03  0.23597192760E+03  0.78892811289E+02 0.  0.
          5    1    3    3  501    0 -0.41488279116E+02 -0.93013366531E+02  0.12372733003E+03  0.16032250576E+03  0.47000000000E+01 0. -1.
        -13    1    4    4    0    0  0.13323714840E+02  0.22636714687E+02  0.12077382189E+03  0.12359716130E+03  0.00000000000E+00 0.  1.
         14    1    4    4    0    0  0.13580202801E+02 -0.67314223152E+02  0.23609053245E+03  0.24587469585E+03  0.00000000000E+00 0. -1.
         -5    1    5    5    0  502  0.39786975502E+02 -0.13244560412E+02  0.98477765228E+01  0.43330018492E+02  0.47000000000E+01 0.  1.
         11    1    6    6    0    0 -0.47637234804E+02  0.13609751483E+03  0.14494770126E+03  0.20445458123E+03  0.00000000000E+00 0. -1.
        -12    1    6    6    0    0  0.22434620776E+02  0.14837920575E+02  0.16427629959E+02  0.31517346373E+02  0.00000000000E+00 0.  1.
</event>
<event>
12    1  0.8562501E-002  0.2692602E+03  0.7818608E-02  0.1102833E+00
         21   -1    0    0  503  502  0.00000000000E+00  0.00000000000E+00  0.46613046837E+03  0.46613046837E+03  0.00000000000E+00 0.  1.
         21   -1    0    0  501  503 -0.00000000000E+00 -0.00000000000E+00 -0.22820422695E+03  0.22820422695E+03  0.00000000000E+00 0. -1.
          6    2    1    2  501    0  0.18567038687E+03 -0.65269213082E+02 -0.81673621981E+02  0.28137459015E+03  0.18375939900E+03 0.  0.
         24    2    3    3    0    0  0.48661986346E+02  0.33351851932E+02 -0.25985273846E+02  0.10355249255E+03  0.81040417780E+02 0.  0.
         -6    2    1    2    0  502 -0.18567038687E+03  0.65269213082E+02  0.31959986340E+03  0.41296010517E+03  0.17221618111E+03 0.  0.
        -24    2    5    5    0    0 -0.57589053485E+02  0.34985030797E+02  0.55735761929E+02  0.11805619928E+03  0.79311660999E+02 0.  0.
          5    1    3    3  501    0  0.13700840052E+03 -0.98621065014E+02 -0.55688348135E+02  0.17782209760E+03  0.47000000000E+01 0. -1.
        -11    1    4    4    0    0 -0.89651431308E+01  0.97125740164E+01 -0.37897511473E+02  0.40136383260E+02  0.00000000000E+00 0.  1.
         12    1    4    4    0    0  0.57627129477E+02  0.23639277915E+02  0.11912237627E+02  0.63416109289E+02  0.00000000000E+00 0. -1.
         -5    1    5    5    0  502 -0.12808133338E+03  0.30284182285E+02  0.26386410147E+03  0.29490390588E+03  0.47000000000E+01 0.  1.
         13    1    6    6    0    0 -0.74834378424E+02  0.13631154359E+02  0.46211517037E+02  0.89002791361E+02  0.00000000000E+00 0. -1.
        -14    1    6    6    0    0  0.17245324939E+02  0.21353876438E+02  0.95242448924E+01  0.29053407923E+02  0.00000000000E+00 0.  1.
</event>
<event>
12    1  0.8562501E-002  0.2037916E+03  0.7818608E-02  0.1146699E+00
         21   -1    0    0  501  502  0.00000000000E+00  0.00000000000E+00  0.85941008121E+02  0.85941008121E+02  0.00000000000E+00 0.  1.
         21   -1    0    0  502  503 -0.00000000000E+00 -0.00000000000E+00 -0.58020023865E+03  0.58020023865E+03  0.00000000000E+00 0. -1.
         -6    2    1    2    0  503  0.10507415457E+03 -0.28871613979E+02 -0.38454568792E+03  0.43520847584E+03  0.17221173971E+03 0.  0.
        -24    2    3    3    0    0  0.75787763551E+02  0.38592162515E+01 -0.37364142374E+03  0.38971130094E+03  0.80674072015E+02 0.  0.
          6    2    1    2  501    0 -0.10507415457E+03  0.28871613979E+02 -0.10971354260E+03  0.23093277092E+03  0.17151890626E+03 0.  0.
         24    2    5    5    0    0 -0.64094854145E+02  0.85307685652E+02 -0.66687907620E+02  0.14884971229E+03  0.79519860833E+02 0.  0.
          5    1    5    5  501    0 -0.40979300424E+02 -0.56436071672E+02 -0.43025634980E+02  0.82083058632E+02  0.47000000000E+01 0. -1.
        -13    1    6    6    0    0 -0.92907478308E+01  0.50197484734E+02 -0.66408708297E+02  0.83762891584E+02  0.00000000000E+00 0.  1.
         14    1    6    6    0    0 -0.54804106314E+02  0.35110200918E+02 -0.27919932352E+00  0.65086820706E+02  0.00000000000E+00 0. -1.
         -5    1    3    3    0  503  0.29286391018E+02 -0.32730830231E+02 -0.10904264186E+02  0.45497174900E+02  0.47000000000E+01 0.  1.
         13    1    4    4    0    0  0.45173621449E+02  0.39764867612E+02 -0.25557591813E+03  0.26256608825E+03  0.00000000000E+00 0. -1.
        -14    1    4    4    0    0  0.30614142102E+02 -0.35905651360E+02 -0.11806550561E+03  0.12714521270E+03  0.00000000000E+00 0.  1.
</event>
<event>
12    1  0.8562501E-002  0.3354910E+03  0.7818608E-02  0.1068762E+00
         21   -1    0    0  501  502  0.00000000000E+00  0.00000000000E+00  0.72317435300E+03  0.72317435300E+03  0.00000000000E+00 0.  1.
         21   -1    0    0  502  503 -0.00000000000E+00 -0.00000000000E+00 -0.33581643577E+03  0.33581643577E+03  0.00000000000E+00 0. -1.
         -6    2    1    2    0  503 -0.28057103425E+03 -0.63546848727E+02 -0.19426713270E+03  0.38767761413E+03  0.17261490784E+03 0.  0.
        -24    2    3    3    0    0 -0.28927507463E+03 -0.78189588555E+02 -0.15966222456E+03  0.34882198628E+03  0.79944178035E+02 0.  0.
          6    2    1    2  501    0  0.28057103425E+03  0.63546848727E+02  0.58162504993E+03  0.67131317464E+03  0.17209117495E+03 0.  0.
         24    2    5    5    0    0  0.74674018755E+02  0.47650571207E+02  0.13632326014E+03  0.18043432337E+03  0.78267028709E+02 0.  0.
          5    1    5    5  501    0  0.20589701549E+03  0.15896277520E+02  0.44530178980E+03  0.49087885127E+03  0.47000000000E+01 0. -1.
        -11    1    6    6    0    0  0.13256454371E+02  0.10463073064E+02  0.97224146810E+02  0.98680009138E+02  0.00000000000E+00 0.  1.
         12    1    6    6    0    0  0.61417564384E+02  0.37187498143E+02  0.39099113326E+02  0.81754314234E+02  0.00000000000E+00 0. -1.
         -5    1    3    3    0  503  0.87040403781E+01  0.14642739828E+02 -0.34604908131E+02  0.38855627846E+02  0.47000000000E+01 0.  1.
         13    1    4    4    0    0 -0.42484209793E+02  0.72860347476E+01 -0.48749429979E+02  0.65073045936E+02  0.00000000000E+00 0. -1.
        -14    1    4    4    0    0 -0.24679086483E+03 -0.85475623303E+02 -0.11091279458E+03  0.28374894034E+03  0.00000000000E+00 0.  1.
</event>
<event>
12    1  0.8562501E-002  0.2008861E+03  0.7818608E-02  0.1153967E+00
         21   -1    0    0  503  502  0.00000000000E+00  0.00000000000E+00  0.43934404097E+03  0.43934404097E+03  0.00000000000E+00 0. -1.
         21   -1    0    0  501  503 -0.00000000000E+00 -0.00000000000E+00 -0.96442379421E+02  0.96442379421E+02  0.00000000000E+00 0. -1.
          6    2    1    2  501    0  0.45141126138E+02 -0.25605659295E+02  0.76307842957E+02  0.21489091014E+03  0.19406660018E+03 0.  0.
         24    2    3    3    0    0  0.16147776128E+02  0.62220053863E+02  0.65830791803E+02  0.12169311597E+03  0.79645687577E+02 0.  0.
         -6    2    1    2    0  502 -0.45141126138E+02  0.25605659295E+02  0.26659381859E+03  0.32089551025E+03  0.17090433971E+03 0.  0.
        -24    2    5    5    0    0 -0.86433803170E+02  0.14341582238E+02  0.24666729937E+03  0.27344953279E+03  0.79078486937E+02 0.  0.
          5    1    3    3  501    0  0.28993350010E+02 -0.87825713158E+02  0.10477051155E+02  0.93197794166E+02  0.47000000000E+01 0. -1.
        -11    1    4    4    0    0 -0.26923793581E+02  0.50454056088E+02  0.42960048429E+02  0.71526695699E+02  0.00000000000E+00 0.  1.
         12    1    4    4    0    0  0.43071569709E+02  0.11765997775E+02  0.22870743374E+02  0.50166420276E+02  0.00000000000E+00 0. -1.
         -5    1    5    5    0  502  0.41292677032E+02  0.11264077057E+02  0.19926519222E+02  0.47445977455E+02  0.47000000000E+01 0.  1.
         11    1    6    6    0    0 -0.81393066345E+02 -0.80954406008E+01  0.12334327911E+03  0.14799976996E+03  0.00000000000E+00 0. -1.
        -12    1    6    6    0    0 -0.50407368248E+01  0.22437022838E+02  0.12332402026E+03  0.12544976283E+03  0.00000000000E+00 0.  1.
</event>
<event>
12    1  0.8562501E-002  0.1820202E+03  0.7818608E-02  0.1165891E+00
         21   -1    0    0  501  502  0.00000000000E+00  0.00000000000E+00  0.74418575642E+03  0.74418575642E+03  0.00000000000E+00 0.  1.
         21   -1    0    0  502  503 -0.00000000000E+00 -0.00000000000E+00 -0.54409458882E+02  0.54409458882E+02  0.00000000000E+00 0.  1.
         -6    2    1    2    0  503 -0.76877526430E+01  0.57585165892E+02  0.17430561146E+03  0.25193134200E+03  0.17237111714E+03 0.  0.
        -24    2    3    3    0    0 -0.77865740067E+01 -0.29831907600E+02  0.12634984726E+03  0.15211350880E+03  0.78890190856E+02 0.  0.
          6    2    1    2  501    0  0.76877526430E+01 -0.57585165892E+02  0.51547068608E+03  0.54666387330E+03  0.17249988201E+03 0.  0.
         24    2    5    5    0    0 -0.51594493157E+02 -0.67116638388E+02  0.24953624626E+03  0.27399475162E+03  0.75087621130E+02 0.  0.
          5    1    5    5  501    0  0.59282245800E+02  0.95314724957E+01  0.26593443982E+03  0.27266912168E+03  0.47000000000E+01 0. -1.
        -13    1    6    6    0    0 -0.65323141569E+02 -0.26940268516E+02  0.15229955500E+03  0.16789295800E+03  0.00000000000E+00 0.  1.
         14    1    6    6    0    0  0.13728648412E+02 -0.40176369871E+02  0.97236691256E+02  0.10610179362E+03  0.00000000000E+00 0. -1.
         -5    1    3    3    0  503  0.98821363727E-01  0.87417073492E+02  0.47955764202E+02  0.99817833195E+02  0.47000000000E+01 0.  1.
         11    1    4    4    0    0 -0.30496481521E+02  0.12862208016E+02  0.72736943730E+02  0.79913295285E+02  0.00000000000E+00 0. -1.
        -12    1    4    4    0    0  0.22709907514E+02 -0.42694115617E+02  0.53612903525E+02  0.72200213518E+02  0.00000000000E+00 0.  1.
</event>
<event>
12    1  0.8562501E-002  0.2481958E+03  0.7818608E-02  0.1115308E+00
         21   -1    0    0  501  502  0.00000000000E+00  0.00000000000E+00  0.66695540205E+02  0.66695540205E+02  0.00000000000E+00 0.  1.
         21   -1    0    0  502  503 -0.00000000000E+00 -0.00000000000E+00 -0.10583443941E+04  0.10583443941E+04  0.00000000000E+00 0. -1.
         -6    2    1    2    0  503  0.36839172995E+02  0.16840353985E+03 -0.27639845325E+03  0.36795059590E+03  0.17109839030E+03 0.  0.
        -24    2    3    3    0    0  0.16726278757E+02  0.15825938473E+02 -0.13904009918E+03  0.16161625462E+03  0.79103955960E+02 0.  0.
          6    2    1    2  501    0 -0.36839172995E+02 -0.16840353985E+03 -0.71525040070E+03  0.75708933846E+03  0.17856162467E+03 0.  0.
         24    2    5    5    0    0 -0.33858265954E+02 -0.15424867743E+02 -0.18249544031E+03  0.20277778549E+03  0.80186880715E+02 0.  0.
          5    1    5    5  501    0 -0.29809070408E+01 -0.15297867211E+03 -0.53275496039E+03  0.55431155296E+03  0.47000000000E+01 0. -1.
        -11    1    6    6    0    0 -0.18557807173E+02 -0.46016484925E+02 -0.74628876059E+02  0.89617957094E+02  0.00000000000E+00 0.  1.
         12    1    6    6    0    0 -0.15300458781E+02  0.30591617182E+02 -0.10786656425E+03  0.11315982840E+03  0.00000000000E+00 0. -1.
         -5    1    3    3    0  503  0.20112894237E+02  0.15257760138E+03 -0.13735835407E+03  0.20633434128E+03  0.47000000000E+01 0.  1.
         13    1    4    4    0    0 -0.21016457860E+02 -0.42574654429E+01 -0.65842438750E+01  0.22431446239E+02  0.00000000000E+00 0. -1.
        -14    1    4    4    0    0  0.37742736617E+02  0.20083403915E+02 -0.13245585530E+03  0.13918480838E+03  0.00000000000E+00 0.  1.
</event>
<event>
12    1  0.8562501E-002  0.2297141E+03  0.7818608E-02  0.1127509E+00
         21   -1    0    0  503  502  0.00000000000E+00  0.00000000000E+00  0.14115679310E+03  0.14115679310E+03  0.00000000000E+00 0.  1.
         21   -1    0    0  501  503 -0.00000000000E+00 -0.00000000000E+00 -0.48988347482E+03  0.48988347482E+03  0.00000000000E+00 0. -1.
          6    2    1    2  501    0 -0.13113713741E+03  0.65048555126E+02 -0.17896523989E+02  0.23041015609E+03  0.17703189296E+03 0.  0.
         24    2    3    3    0    0 -0.99168450533E+02 -0.24474070676E+02  0.79760500425E+01  0.13178065970E+03  0.82880414932E+02 0.  0.
         -6    2    1    2    0  502  0.13113713741E+03 -0.65048555126E+02 -0.33083015773E+03  0.40063011183E+03  0.17212678441E+03 0.  0.
        -24    2    5    5    0    0  0.70157297859E+02 -0.71301930766E+02 -0.31102094041E+03  0.33603800217E+03  0.78622527039E+02 0.  0.
          5    1    3    3  501    0 -0.31968686878E+02  0.89522625802E+02 -0.25872574032E+02  0.98629496391E+02  0.47000000000E+01 0. -1.
        -13    1    4    4    0    0 -0.57128595424E+02 -0.55130327474E+02  0.20978681427E+01  0.79419333120E+02  0.00000000000E+00 0.  1.
         14    1    4    4    0    0 -0.42039855110E+02  0.30656256798E+02  0.58781818998E+01  0.52361326577E+02  0.00000000000E+00 0. -1.
         -5    1    5    5    0  502  0.60979839553E+02  0.62533756401E+01 -0.19809217315E+02  0.64592109653E+02  0.47000000000E+01 0.  1.
         11    1    6    6    0    0  0.21541003933E+02 -0.74715484477E+02 -0.17321521998E+03  0.18986819350E+03  0.00000000000E+00 0. -1.
        -12    1    6    6    0    0  0.48616293925E+02  0.34135537114E+01 -0.13780572043E+03  0.14616980867E+03  0.00000000000E+00 0.  1.
</event>
<event>
12    1  0.8562501E-002  0.2008180E+03  0.7818608E-02  0.1150113E+00
         21   -1    0    0  501  502  0.00000000000E+00  0.00000000000E+00  0.14583068558E+04  0.14583068558E+04  0.00000000000E+00 0. -1.
         21   -1    0    0  502  503 -0.00000000000E+00 -0.00000000000E+00 -0.39142738900E+02  0.39142738900E+02  0.00000000000E+00 0. -1.
         -6    2    1    2    0  503 -0.95178645999E+02 -0.30737639987E+02  0.29823603232E+03  0.35954498311E+03  0.17413812546E+03 0.  0.
        -24    2    3    3    0    0 -0.69603904400E+02  0.27976567906E+01  0.29810470454E+03  0.31710925778E+03  0.82700278751E+02 0.  0.
          6    2    1    2  501    0  0.95178645999E+02  0.30737639987E+02  0.11209280846E+04  0.11379046116E+04  0.16835485474E+03 0.  0.
         24    2    5    5    0    0  0.44442391777E+02  0.10911252174E+02  0.10105846263E+04  0.10147582681E+04  0.79742548379E+02 0.  0.
          5    1    5    5  501    0  0.50736254221E+02  0.19826387814E+02  0.11034345829E+03  0.12314634357E+03  0.47000000000E+01 0. -1.
        -11    1    6    6    0    0  0.30165667972E+02 -0.28663717684E+01  0.11412787998E+03  0.11808199100E+03  0.00000000000E+00 0.  1.
         12    1    6    6    0    0  0.14276723805E+02  0.13777623942E+02  0.89645674634E+03  0.89667627705E+03  0.00000000000E+00 0. -1.
         -5    1    3    3    0  503 -0.25574741599E+02 -0.33535296778E+02  0.13132777924E+00  0.42435725336E+02  0.47000000000E+01 0.  1.
         13    1    4    4    0    0 -0.66682483253E+02 -0.28645970510E+02  0.24290094260E+03  0.25351136684E+03  0.00000000000E+00 0. -1.
        -14    1    4    4    0    0 -0.29214211468E+01  0.31443627301E+02  0.55203761942E+02  0.63597890939E+02  0.00000000000E+00 0.  1.
</event>
<event>
12    1  0.8562501E-002  0.1727820E+03  0.7818608E-02  0.1175087E+00
         21   -1    0    0  501  502  0.00000000000E+00  0.00000000000E+00  0.12887086611E+03  0.12887086611E+03  0.00000000000E+00 0.  1.
         21   -1    0    0  502  503 -0.00000000000E+00 -0.00000000000E+00 -0.45983262237E+03  0.45983262237E+03  0.00000000000E+00 0.  1.
         -6    2    1    2    0  503 -0.13326827280E+02 -0.74255669419E+01 -0.37319553503E+03  0.41125237266E+03  0.17210712735E+03 0.  0.
        -24    2    3    3    0    0  0.12736318888E+01  0.49007403941E+02 -0.21248405162E+03  0.24023154203E+03  0.10078875837E+03 0.  0.
          6    2    1    2  501    0  0.13326827280E+02  0.74255669419E+01  0.42233778760E+02  0.17745111582E+03  0.17167545855E+03 0.  0.
         24    2    5    5    0    0 -0.50242754945E+02  0.64941521411E+01 -0.95434399271E+01  0.95323594898E+02  0.80181058001E+02 0.  0.
          5    1    5    5  501    0  0.63569582225E+02  0.93141480085E+00  0.51777218687E+02  0.82127520921E+02  0.47000000000E+01 0. -1.
        -13    1    6    6    0    0 -0.31742557588E+02  0.39155418443E+02  0.12312164193E+02  0.51887629960E+02  0.00000000000E+00 0.  1.
         14    1    6    6    0    0 -0.18500197357E+02 -0.32661266302E+02 -0.21855604120E+02  0.43435964939E+02  0.00000000000E+00 0. -1.
         -5    1    3    3    0  503 -0.14600459168E+02 -0.56432970883E+02 -0.16071148341E+03  0.17102083063E+03  0.47000000000E+01 0.  1.
         13    1    4    4    0    0 -0.31737499445E+02  0.96185366131E+01 -0.15413388125E+02  0.36569900890E+02  0.00000000000E+00 0. -1.
        -14    1    4    4    0    0  0.33011131334E+02  0.39388867328E+02 -0.19707066349E+03  0.20366164114E+03  0.00000000000E+00 0.  1.
</event>
<event>
12    1  0.8562501E-002  0.3982393E+03  0.7818608E-02  0.1044608E+00
         21   -1    0    0  503  502  0.00000000000E+00  0.00000000000E+00  0.14766864454E+03  0.14766864454E+03  0.00000000000E+00 0.  1.
         21   -1    0    0  501  503 -0.00000000000E+00 -0.00000000000E+00 -0.10860515375E+04  0.10860515375E+04  0.00000000000E+00 0. -1.
          6    2    1    2  501    0 -0.29397098184E+03  0.20233011424E+03 -0.54878914736E+03  0.67660453083E+03  0.17107819730E+03 0.  0.
         24    2    3    3    0    0 -0.27848757904E+03  0.20767907548E+03 -0.55383148074E+03  0.65883201625E+03  0.81513106309E+02 0.  0.
         -6    2    1    2    0  502  0.29397098184E+03 -0.20233011424E+03 -0.38959374556E+03  0.55711565117E+03  0.17674317216E+03 0.  0.
        -24    2    5    5    0    0  0.95379535230E+02 -0.51124471265E+02 -0.69635786442E+02  0.15128699923E+03  0.79546502620E+02 0.  0.
          5    1    3    3  501    0 -0.15483402802E+02 -0.53489612448E+01  0.50423333823E+01  0.17772514584E+02  0.47000000000E+01 0. -1.
        -11    1    4    4    0    0 -0.86072936841E+02  0.11235436176E+03 -0.23835766919E+03  0.27721188922E+03  0.00000000000E+00 0.  1.
         12    1    4    4    0    0 -0.19241464220E+03  0.95324713728E+02 -0.31547381155E+03  0.38162012703E+03  0.00000000000E+00 0. -1.
         -5    1    5    5    0  502  0.19859144661E+03 -0.15120564297E+03 -0.31995795912E+03  0.40582865194E+03  0.47000000000E+01 0.  1.
         13    1    6    6    0    0  0.81657849720E+02 -0.22730396827E+02 -0.81505087888E+02  0.11759147381E+03  0.00000000000E+00 0. -1.
        -14    1    6    6    0    0  0.13721685510E+02 -0.28394074439E+02  0.11869301446E+02  0.33695525419E+02  0.00000000000E+00 0.  1.
</event>
<event>
12    1  0.8562501E-002  0.3652981E+03  0.7818608E-02  0.1056588E+00
         21   -1    0    0  503  502  0.00000000000E+00  0.00000000000E+00  0.10313742778E+04  0.10313742778E+04  0.00000000000E+00 0. -1.
         21   -1    0    0  501  503 -0.00000000000E+00 -0.00000000000E+00 -0.14085695004E+03  0.14085695004E+03  0.00000000000E+00 0. -1.
          6    2    1    2  501    0 -0.15417339613E+03 -0.28200080228E+03  0.27628479994E+03  0.45801312759E+03  0.17363422994E+03 0.  0.
         24    2    3    3    0    0 -0.18602817297E+02 -0.84684892242E+02  0.44373122822E+02  0.12466936181E+03  0.77819534567E+02 0.  0.
         -6    2    1    2    0  502  0.15417339613E+03  0.28200080228E+03  0.61423252786E+03  0.71421810030E+03  0.17184879386E+03 0.  0.
        -24    2    5    5    0    0  0.47171930963E+02  0.47223371576E+02  0.15095490003E+03  0.18391817953E+03  0.81137395978E+02 0.  0.
          5    1    3    3  501    0 -0.13557057883E+03 -0.19731591004E+03  0.23191167712E+03  0.33334376577E+03  0.47000000000E+01 0. -1.
        -11    1    4    4    0    0  0.42643880541E+01 -0.87379024726E+01  0.44299973416E+02  0.45354421943E+02  0.00000000000E+00 0.  1.
         12    1    4    4    0    0 -0.22867205351E+02 -0.75946989769E+02  0.73149406004E-01  0.79314939869E+02  0.00000000000E+00 0. -1.
         -5    1    5    5    0  502  0.10700146516E+03  0.23477743070E+03  0.46327762784E+03  0.53029992077E+03  0.47000000000E+01 0.  1.
         11    1    6    6    0    0  0.69911461634E+02  0.42530450872E+02  0.11634450525E+03  0.14224097729E+03  0.00000000000E+00 0. -1.
        -12    1    6    6    0    0 -0.22739530670E+02  0.46929207033E+01  0.34610394773E+02  0.41677202236E+02  0.00000000000E+00 0.  1.
</event>
<event>
12    1  0.8562501E-002  0.2209116E+03  0.7818608E-02  0.1133732E+00
         21   -1    0    0  501  502  0.00000000000E+00  0.00000000000E+00  0.17574238967E+03  0.17574238967E+03  0.00000000000E+00 0.  1.
         21   -1    0    0  502  503 -0.00000000000E+00 -0.00000000000E+00 -0.28420003682E+03  0.28420003682E+03  0.00000000000E+00 0. -1.
         -6    2    1    2    0  503  0.13837229398E+03 -0.96834329120E+01 -0.97125559032E+02  0.23874038348E+03  0.16829419442E+03 0.  0.
        -24    2    3    3    0    0  0.12814854949E+03 -0.61166046422E+02 -0.61490876204E+02  0.17512509393E+03  0.82002040802E+02 0.  0.
          6    2    1    2  501    0 -0.13837229398E+03  0.96834329120E+01 -0.11332088119E+02  0.22120204301E+03  0.17193390299E+03 0.  0.
         24    2    5    5    0    0 -0.16619898071E+03  0.29347540954E+02  0.15478663686E+01  0.18447351367E+03  0.74462755821E+02 0.  0.
          5    1    5    5  501    0  0.27826686737E+02 -0.19664108042E+02 -0.12879954487E+02  0.36728529339E+02  0.47000000000E+01 0. -1.
        -11    1    6    6    0    0 -0.30767573085E+02 -0.77156351930E+00  0.29851244233E+02  0.42875816564E+02  0.00000000000E+00 0.  1.
         12    1    6    6    0    0 -0.13543140763E+03  0.30119104473E+02 -0.28303377864E+02  0.14159769710E+03  0.00000000000E+00 0. -1.
         -5    1    3    3    0  503  0.10223744486E+02  0.51482613510E+02 -0.35634682828E+02  0.63615289557E+02  0.47000000000E+01 0.  1.
         13    1    4    4    0    0  0.52637126871E+02 -0.41321172159E+02  0.11902831493E+02  0.67968991395E+02  0.00000000000E+00 0. -1.
        -14    1    4    4    0    0  0.75511422619E+02 -0.19844874263E+02 -0.73393707697E+02  0.10715610253E+03  0.00000000000E+00 0.  1.
</event>
<event>
12    1  0.8562501E-002  0.2615227E+03  0.7818608E-02  0.1106268E+00
         21   -1    0    0  501  502  0.00000000000E+00  0.00000000000E+00  0.13238232256E+04  0.13238232256E+04  0.00000000000E+00 0. -1.
         21   -1    0    0  502  503 -0.00000000000E+00 -0.00000000000E+00 -0.11841973422E+03  0.11841973422E+03  0.00000000000E+00 0.  1.
         -6    2    1    2    0  503 -0.91110370675E+02 -0.17516214165E+03  0.61200862959E+02  0.26858828098E+03  0.17149706570E+03 0.  0.
        -24    2    3    3    0    0 -0.81279783655E+02 -0.73836847235E+02 -0.18275036190E+02  0.13935220137E+03  0.83825866163E+02 0.  0.
          6    2    1    2  501    0  0.91110370675E+02  0.17516214165E+03  0.11442026284E+04  0.11736546788E+04  0.17112210486E+03 0.  0.
         24    2    5    5    0    0  0.59382806853E+02  0.19520880896E+03  0.87886368691E+03  0.90563350233E+03  0.78344518181E+02 0.  0.
          5    1    5    5  501    0  0.31727563822E+02 -0.20046667314E+02  0.26533894149E+03  0.26802117649E+03  0.47000000000E+01 0. -1.
        -11    1    6    6    0    0  0.17572836955E+02  0.45024384874E+01  0.34346822015E+02  0.38843026832E+02  0.00000000000E+00 0.  1.
         12    1    6    6    0    0  0.41809969897E+02  0.19070637047E+03  0.84451686489E+03  0.86679047550E+03  0.00000000000E+00 0. -1.
         -5    1    3    3    0  503 -0.98305870205E+01 -0.10132529441E+03  0.79475899150E+02  0.12923607962E+03  0.47000000000E+01 0.  1.
         11    1    4    4    0    0 -0.22037770066E+02 -0.51002167871E+02  0.26604735547E+02  0.61601107056E+02  0.00000000000E+00 0. -1.
        -12    1    4    4    0    0 -0.59242013588E+02 -0.22834679364E+02 -0.44879771737E+02  0.77751094313E+02  0.00000000000E+00 0.  1.
</event>
<event>
12    1  0.8562501E-002  0.1953930E+03  0.7818608E-02  0.1153946E+00
         21   -1    0    0  501  502  0.00000000000E+00  0.00000000000E+00  0.17156613261E+03  0.17156613261E+03  0.00000000000E+00 0. -1.
         21   -1    0    0  502  503 -0.00000000000E+00 -0.00000000000E+00 -0.40584582574E+03  0.40584582574E+03  0.00000000000E+00 0. -1.
         -6    2    1    2    0  503  0.45370006102E+02  0.76962260893E+02 -0.31208860183E+03  0.36820879322E+03  0.17377224451E+03 0.  0.
        -24    2    3    3    0    0  0.97825382022E+01 -0.14360855849E+02 -0.67642910788E+02  0.10480384758E+03  0.78143143351E+02 0.  0.
          6    2    1    2  501    0 -0.45370006102E+02 -0.76962260893E+02  0.77808908704E+02  0.20920316512E+03  0.17242421805E+03 0.  0.
         24    2    5    5    0    0  0.20803456775E+02 -0.94569609064E+02  0.58041971236E+02  0.13777650543E+03  0.78976580389E+02 0.  0.
          5    1    5    5  501    0 -0.66173462877E+02  0.17607348171E+02  0.19766937468E+02  0.71426659698E+02  0.47000000000E+01 0. -1.
        -11    1    6    6    0    0  0.28628887567E+01 -0.26226112136E+01 -0.17192337590E+02  0.17625285627E+02  0.00000000000E+00 0.  1.
         12    1    6    6    0    0  0.17940568018E+02 -0.91946997851E+02  0.75234308826E+02  0.12015121980E+03  0.00000000000E+00 0. -1.
         -5    1    3    3    0  503  0.35587467900E+02  0.91323116743E+02 -0.24444569104E+03  0.26340494565E+03  0.47000000000E+01 0.  1.
         13    1    4    4    0    0 -0.37872993041E+01  0.33617045239E+01 -0.79409825601E+02  0.79571132298E+02  0.00000000000E+00 0. -1.
        -14    1    4    4    0    0  0.13569837506E+02 -0.17722560373E+02  0.11766914813E+02  0.25232715279E+02  0.00000000000E+00 0.  1.
</event>
<event>
12    1  0.8562501E-002  0.1867446E+03  0.7818608E-02  0.1161649E+00
         21   -1    0    0  503  502  0.00000000000E+00  0.00000000000E+00  0.14822679804E+04  0.14822679804E+04  0.00000000000E+00 0. -1.
         21   -1    0    0  501  503 -0.00000000000E+00 -0.00000000000E+00 -0.76240941041E+03  0.76240941041E+03  0.00000000000E+00 0. -1.
          6    2    1    2  501    0  0.30981235890E+02  0.62387146721E+02 -0.74507348193E+03  0.76789052386E+03  0.17224799013E+03 0.  0.
         24    2    3    3    0    0  0.40651789211E+02 -0.24035550950E+02 -0.47979816764E+03  0.48868542962E+03  0.79855443037E+02 0.  0.
         -6    2    1    2    0  502 -0.30981235890E+02 -0.62387146721E+02  0.14649320519E+04  0.14767868669E+04  0.17326725197E+03 0.  0.
        -24    2    5    5    0    0  0.25714479419E+02  0.86586125416E+01  0.43509957289E+03  0.44294020090E+03  0.78410313225E+02 0.  0.
          5    1    3    3  501    0 -0.96705533210E+01  0.86422697671E+02 -0.26527531429E+03  0.27920509423E+03  0.47000000000E+01 0. -1.
        -13    1    4    4    0    0 -0.70135937680E+01 -0.18748176643E+01 -0.13820491902E+01  0.73902299545E+01  0.00000000000E+00 0.  1.
         14    1    4    4    0    0  0.47665382979E+02 -0.22160733285E+02 -0.47841611845E+03  0.48129519967E+03  0.00000000000E+00 0. -1.
         -5    1    5    5    0  502 -0.56695715310E+02 -0.71045759263E+02  0.10298324790E+04  0.10338466660E+04  0.47000000000E+01 0.  1.
         13    1    6    6    0    0  0.20444975030E+01 -0.23343611899E+02  0.32539347215E+03  0.32623613519E+03  0.00000000000E+00 0. -1.
        -14    1    6    6    0    0  0.23669981916E+02  0.32002224441E+02  0.10970610074E+03  0.11670406571E+03  0.00000000000E+00 0.  1.
</event>
<event>
12    1  0.8562501E-002  0.1909334E+03  0.7818608E-02  0.1157634E+00
         21   -1    0    0  501  502  0.00000000000E+00  0.00000000000E+00  0.22341215247E+03  0.22341215247E+03  0.00000000000E+00 0.  1.
         21   -1    0    0  502  503 -0.00000000000E+00 -0.00000000000E+00 -0.11338348932E+04  0.11338348932E+04  0.00000000000E+00 0.  1.
         -6    2    1    2    0  503  0.79360222249E+02  0.17749678343E+02 -0.10831310585E+04  0.10998311045E+04  0.17274973973E+03 0.  0.
        -24    2    3    3    0    0  0.96525839861E+02  0.61166262365E+02 -0.89271375087E+03  0.90371761888E+03  0.81909366187E+02 0.  0.
          6    2    1    2  501    0 -0.79360222249E+02 -0.17749678343E+02  0.17270831779E+03  0.25741594115E+03  0.17268962843E+03 0.  0.
         24    2    5    5    0    0 -0.11268202198E+02  0.23471364812E+02  0.15475177335E+03  0.17568329723E+03  0.78985012652E+02 0.  0.
          5    1    5    5  501    0 -0.68092020050E+02 -0.41221043154E+02  0.17956544440E+02  0.81732643916E+02  0.47000000000E+01 0. -1.
        -13    1    6    6    0    0  0.26556591583E+02  0.11990334932E+02  0.20225156486E+02  0.35469390228E+02  0.00000000000E+00 0.  1.
         14    1    6    6    0    0 -0.37824793781E+02  0.11481029880E+02  0.13452661687E+03  0.14021390700E+03  0.00000000000E+00 0. -1.
         -5    1    3    3    0  503 -0.17165617613E+02 -0.43416584022E+02 -0.19041730763E+03  0.19611348562E+03  0.47000000000E+01 0.  1.
         11    1    4    4    0    0  0.73078991912E+02  0.35842018410E+02 -0.32793584326E+03  0.33788623327E+03  0.00000000000E+00 0. -1.
        -12    1    4    4    0    0  0.23446847950E+02  0.25324243954E+02 -0.56477790761E+03  0.56583138560E+03  0.00000000000E+00 0.  1.
</event>
<event>
12    1  0.8562501E-002  0.2094177E+03  0.7818608E-02  0.1142085E+00
         21   -1    0    0  501  502  0.00000000000E+00  0.00000000000E+00  0.19100916474E+03  0.19100916474E+03  0.00000000000E+00 0.  1.
         21   -1    0    0  502  503 -0.00000000000E+00 -0.00000000000E+00 -0.31895861994E+03  0.31895861994E+03  0.00000000000E+00 0. -1.
         -6    2    1    2    0  503  0.11826242055E+03 -0.16068239777E+02 -0.19914428403E+03  0.28877899026E+03  0.17172848020E+03 0.  0.
        -24    2    3    3    0    0  0.30528444325E+02  0.47995062017E+02 -0.11472810175E+03  0.15112166554E+03  0.80247794809E+02 0.  0.
          6    2    1    2  501    0 -0.11826242055E+03  0.16068239777E+02  0.71194828825E+02  0.22118879441E+03  0.17208018677E+03 0.  0.
         24    2    5    5    0    0  0.42557443488E+00  0.24501730183E+02  0.55563442517E+02  0.10108719513E+03  0.80813420787E+02 0.  0.
          5    1    5    5  501    0 -0.11868799498E+03 -0.84334904065E+01  0.15631386308E+02  0.12010159929E+03  0.47000000000E+01 0. -1.
        -11    1    6    6    0    0  0.35297194945E+02  0.15746592099E+02  0.52235017561E+02  0.64979567506E+02  0.00000000000E+00 0.  1.
         12    1    6    6    0    0 -0.34871620510E+02  0.87551380837E+01  0.33284249562E+01  0.36107627623E+02  0.00000000000E+00 0. -1.
         -5    1    3    3    0  503  0.87733976221E+02 -0.64063301794E+02 -0.84416182276E+02  0.13765732472E+03  0.47000000000E+01 0.  1.
         13    1    4    4    0    0  0.54668847898E+02  0.46435939073E+02 -0.99051790438E+02  0.12229569312E+03  0.00000000000E+00 0. -1.
        -14    1    4    4    0    0 -0.24140403573E+02  0.15591229448E+01 -0.15676311315E+02  0.28825972411E+02  0.00000000000E+00 0.  1.
</event>
<event>
12    1  0.8562501E-002  0.1927090E+03  0.7818608E-02  0.1156342E+00
         21   -1    0    0  501  502  0.00000000000E+00  0.00000000000E+00  0.59666726511E+03  0.59666726511E+03  0.00000000000E+00 0.  1.
         21   -1    0    0  502  503 -0.00000000000E+00 -0.00000000000E+00 -0.72579032446E+02  0.72579032446E+02  0.00000000000E+00 0.  1.
         -6    2    1    2    0  503 -0.13720218971E+02 -0.81989158928E+02  0.13231873147E+03  0.23264569555E+03  0.17235227405E+03 0.  0.
        -24    2    3    3    0    0 -0.26551594588E+02 -0.10763486923E+03  0.14847090121E+03  0.19939920333E+03  0.73662619637E+02 0.  0.
          6    2    1    2  501    0  0.13720218971E+02  0.81989158928E+02  0.39176950120E+03  0.43660060201E+03  0.17385705914E+03 0.  0.
         24    2    5    5    0    0  0.19076587027E+02  0.10898057143E+03  0.38406184227E+03  0.40763985213E+03  0.80162767131E+02 0.  0.
          5    1    5    5  501    0 -0.53563680562E+01 -0.26991412498E+02  0.77076589277E+01  0.28960749879E+02  0.47000000000E+01 0. -1.
        -11    1    6    6    0    0 -0.28388234084E+02  0.68835310555E+02  0.21025217707E+03  0.22304746081E+03  0.00000000000E+00 0.  1.
         12    1    6    6    0    0  0.47464821111E+02  0.40145260871E+02  0.17380966521E+03  0.18459239132E+03  0.00000000000E+00 0. -1.
         -5    1    3    3    0  503  0.12831375617E+02  0.25645710305E+02 -0.16152169747E+02  0.33246492218E+02  0.47000000000E+01 0.  1.
         13    1    4    4    0    0 -0.38735623996E+01  0.93307058044E+01  0.28845610156E+02  0.30563634956E+02  0.00000000000E+00 0. -1.
        -14    1    4    4    0    0 -0.22678032188E+02 -0.11696557504E+03  0.11962529106E+03  0.16883556838E+03  0.00000000000E+00 0.  1.
</event>
<event>
12    1  0.8562501E-002  0.1902992E+03  0.7818608E-02  0.1159492E+00
         21   -1    0    0  501  502  0.00000000000E+00  0.00000000000E+00  0.16849194300E+02  0.16849194300E+02  0.00000000000E+00 0. -1.
         21   -1    0    0  502  503 -0.00000000000E+00 -0.00000000000E+00 -0.20882185273E+04  0.20882185273E+04  0.00000000000E+00 0. -1.
         -6    2    1    2    0  503 -0.65133767622E+02  0.15641933467E+02 -0.10138465154E+04  0.10315515164E+04  0.17811989327E+03 0.  0.
        -24    2    3    3    0    0 -0.34664783050E+02 -0.37963913358E+01 -0.17550936882E+03  0.19242252222E+03  0.70758948151E+02 0.  0.
          6    2    1    2  501    0  0.65133767622E+02 -0.15641933467E+02 -0.10575228176E+04  0.10735162052E+04  0.17203329727E+03 0.  0.
         24    2    5    5    0    0 -0.10082598558E+02 -0.56810477954E+02 -0.56406806837E+03  0.57264493400E+03  0.80127058395E+02 0.  0.
          5    1    5    5  501    0  0.75216366180E+02  0.41168544487E+02 -0.49345474920E+03  0.50087127119E+03  0.47000000000E+01 0. -1.
        -13    1    6    6    0    0 -0.30960566928E+02  0.63347561676E+01 -0.15276075047E+03  0.15599529712E+03  0.00000000000E+00 0.  1.
         14    1    6    6    0    0  0.20877968370E+02 -0.63145234121E+02 -0.41130731790E+03  0.41664963688E+03  0.00000000000E+00 0. -1.
         -5    1    3    3    0  503 -0.30468984572E+02  0.19438324803E+02 -0.83833714657E+03  0.83912899414E+03  0.47000000000E+01 0.  1.
         13    1    4    4    0    0 -0.38980153301E+02 -0.30570268331E+02 -0.13375795375E+03  0.14263654458E+03  0.00000000000E+00 0. -1.
        -14    1    4    4    0    0  0.43153702514E+01  0.26773876995E+02 -0.41751415068E+02  0.49785977643E+02  0.00000000000E+00 0.  1.
</event>
<event>
12    1  0.8562501E-002  0.1988341E+03  0.7818608E-02  0.1155489E+00
         21   -1    0    0  501  502  0.00000000000E+00  0.00000000000E+00  0.10329346386E+04  0.10329346386E+04  0.00000000000E+00 0. -1.
         21   -1    0    0  502  503 -0.00000000000E+00 -0.00000000000E+00 -0.47937973297E+02  0.47937973297E+02  0.00000000000E+00 0. -1.
         -6    2    1    2    0  503 -0.40400024552E+02  0.31314889673E+02  0.18500535172E+03  0.25654191075E+03  0.17021747123E+03 0.  0.
        -24    2    3    3    0    0 -0.88072999125E+02  0.15667191441E+02  0.16485055501E+03  0.20226605245E+03  0.75720119018E+02 0.  0.
          6    2    1    2  501    0  0.40400024552E+02 -0.31314889673E+02  0.79999131360E+03  0.82433070115E+03  0.19215155147E+03 0.  0.
         24    2    5    5    0    0  0.70872092851E+02 -0.13987057400E+01  0.75441080797E+03  0.76169526789E+03  0.77583529243E+02 0.  0.
          5    1    5    5  501    0 -0.30472068299E+02 -0.29916183933E+02  0.45580505625E+02  0.62635433267E+02  0.47000000000E+01 0. -1.
        -13    1    6    6    0    0  0.19306400952E+02 -0.34710742716E+02  0.20075555000E+03  0.20464692432E+03  0.00000000000E+00 0.  1.
         14    1    6    6    0    0  0.51565691898E+02  0.33312036976E+02  0.55365525797E+03  0.55704834356E+03  0.00000000000E+00 0. -1.
         -5    1    3    3    0  503  0.47672974573E+02  0.15647698232E+02  0.20154796709E+02  0.54275858308E+02  0.47000000000E+01 0.  1.
         11    1    4    4    0    0  0.54363502536E+01 -0.12645194733E+02  0.44742335657E+01  0.14473203513E+02  0.00000000000E+00 0. -1.
        -12    1    4    4    0    0 -0.93509349379E+02  0.28312386174E+02  0.16037632144E+03  0.18779284893E+03  0.00000000000E+00 0.  1.
</event>
<event>
12    1  0.8562501E-002  0.2018286E+03  0.7818608E-02  0.1151418E+00
         21   -1    0    0  501  502  0.00000000000E+00  0.00000000000E+00  0.40060869094E+02  0.40060869094E+02  0.00000000000E+00 0. -1.
         21   -1    0    0  502  503 -0.00000000000E+00 -0.00000000000E+00 -0.14091677665E+04  0.14091677665E+04  0.00000000000E+00 0. -1.
         -6    2    1    2    0  503  0.63292442214E+02 -0.56039686655E+02 -0.25082057092E+03  0.31287520901E+03  0.16683392308E+03 0.  0.
        -24    2    3    3    0    0  0.61622526848E+02 -0.55058688435E+02 -0.72693228084E+02  0.13467534582E+03  0.77616675875E+02 0.  0.
          6    2    1    2  501    0 -0.63292442214E+02  0.56039686655E+02 -0.11182863265E+04  0.11363534266E+04  0.18327144456E+03 0.  0.
         24    2    5    5    0    0  0.12118183068E+02 -0.49220952278E+01 -0.78851962666E+03  0.79259294665E+03  0.79178911724E+02 0.  0.
          5    1    5    5  501    0 -0.75410625282E+02  0.60961781883E+02 -0.32976669980E+03  0.34376047991E+03  0.47000000000E+01 0. -1.
        -11    1    6    6    0    0  0.95238129323E+01  0.32112183355E+01 -0.10530580730E+02  0.14557062426E+02  0.00000000000E+00 0.  1.
         12    1    6    6    0    0  0.25943701358E+01 -0.81333135632E+01 -0.77798904593E+03  0.77803588422E+03  0.00000000000E+00 0. -1.
         -5    1    3    3    0  503  0.16699153662E+01 -0.98099822016E+00 -0.17812734284E+03  0.17819986319E+03  0.47000000000E+01 0.  1.
         11    1    4    4    0    0  0.46590576720E+02 -0.29858109797E+01 -0.35494522733E+01  0.46820887622E+02  0.00000000000E+00 0. -1.
        -12    1    4    4    0    0  0.15031950129E+02 -0.52072877455E+02 -0.69143775810E+02  0.87854458194E+02  0.00000000000E+00 0.  1.
</event>
<event>
12    1  0.8562501E-002  0.1744496E+03  0.7818608E-02  0.1173673E+00
         21   -1    0    0  503  502  0.00000000000E+00  0.00000000000E+00  0.27975042627E+03  0.27975042627E+03  0.00000000000E+00 0. -1.
         21   -1    0    0  501  503 -0.00000000000E+00 -0.00000000000E+00 -0.10807307682E+03  0.10807307682E+03  0.00000000000E+00 0. -1.
          6    2    1    2  501    0 -0.23844073162E+02  0.96142626543E+01  0.76340409090E+02  0.18902265001E+03  0.17099921136E+03 0.  0.
         24    2    3    3    0    0  0.30872931423E+02  0.30916302540E+02  0.93070375563E+02  0.12778778027E+03  0.75885876961E+02 0.  0.
         -6    2    1    2    0  502  0.23844073162E+02 -0.96142626543E+01  0.95336940359E+02  0.19880085307E+03  0.17254469889E+03 0.  0.
        -24    2    5    5    0    0 -0.50373182940E+02 -0.53964703627E+01  0.77585552589E+02  0.12222936593E+03  0.79711482695E+02 0.  0.
          5    1    3    3  501    0 -0.54717004586E+02 -0.21302039885E+02 -0.16729966473E+02  0.61234869742E+02  0.47000000000E+01 0. -1.
        -11    1    4    4    0    0  0.17577517634E+02  0.56079618466E+02  0.67822333756E+02  0.89742752853E+02  0.00000000000E+00 0.  1.
         12    1    4    4    0    0  0.13295413790E+02 -0.25163315927E+02  0.25248041807E+02  0.38045027420E+02  0.00000000000E+00 0. -1.
         -5    1    5    5    0  502  0.74217256102E+02 -0.42177922916E+01  0.17751387770E+02  0.76571487141E+02  0.47000000000E+01 0.  1.
         11    1    6    6    0    0  0.21936296445E+02 -0.18269961434E+01  0.16628328172E+02  0.27586959137E+02  0.00000000000E+00 0. -1.
        -12    1    6    6    0    0 -0.72309479385E+02 -0.35694742192E+01  0.60957224417E+02  0.94642406794E+02  0.00000000000E+00 0.  1.
</event>
<event>
12    1  0.8562501E-002  0.2249428E+03  0.7818608E-02  0.1130342E+00
         21   -1    0    0  503  502  0.00000000000E+00  0.00000000000E+00  0.23323437478E+03  0.23323437478E+03  0.00000000000E+00 0.  1.
         21   -1    0    0  501  503 -0.00000000000E+00 -0.00000000000E+00 -0.24571914814E+03  0.24571914814E+03  0.00000000000E+00 0.  1.
          6    2    1    2  501    0  0.46440939708E+02 -0.13672647390E+03 -0.88887230578E+02  0.24186811352E+03  0.17247711452E+03 0.  0.
         24    2    3    3    0    0  0.53694876175E+02 -0.53349414642E+01 -0.34512928050E+02  0.99407560505E+02  0.76020520619E+02 0.  0.
         -6    2    1    2    0  502 -0.46440939708E+02  0.13672647390E+03  0.76402457219E+02  0.23708540939E+03  0.17181753790E+03 0.  0.
        -24    2    5    5    0    0  0.15601349555E+02  0.12743202059E+03  0.18424057958E+02  0.15153298511E+03  0.78361200133E+02 0.  0.
          5    1    3    3  501    0 -0.72539364666E+01 -0.13139153244E+03 -0.54374302528E+02  0.14246055302E+03  0.47000000000E+01 0. -1.
        -11    1    4    4    0    0  0.58425294631E+02  0.58284238350E+01 -0.51795727972E+02  0.78296123872E+02  0.00000000000E+00 0.  1.
         12    1    4    4    0    0 -0.47304184564E+01 -0.11163365299E+02  0.17282799923E+02  0.21111436634E+02  0.00000000000E+00 0. -1.
         -5    1    5    5    0  502 -0.62042289264E+02  0.92944533136E+01  0.57978399261E+02  0.85552424281E+02  0.47000000000E+01 0.  1.
         13    1    6    6    0    0 -0.21602704111E+01  0.13204114633E+03  0.16216259805E+02  0.13305073534E+03  0.00000000000E+00 0. -1.
        -14    1    6    6    0    0  0.17761619966E+02 -0.46091257428E+01  0.22077981528E+01  0.18482249772E+02  0.00000000000E+00 0.  1.
</event>
<event>
12    1  0.8562501E-002  0.2720724E+03  0.7818608E-02  0.1100240E+00
         21   -1    0    0  503  502  0.00000000000E+00  0.00000000000E+00  0.12125330139E+04  0.12125330139E+04  0.00000000000E+00 0.  1.
         21   -1    0    0  501  503 -0.00000000000E+00 -0.00000000000E+00 -0.10078086103E+03  0.10078086103E+03  0.00000000000E+00 0.  1.
          6    2    1    2  501    0  0.44419638883E+02  0.20612244896E+03  0.14180427495E+03  0.30592999353E+03  0.17036766203E+03 0.  0.
         24    2    3    3    0    0 -0.27633960203E+01  0.22793612544E+02  0.51862851469E+02  0.96293997811E+02  0.77817694142E+02 0.  0.
         -6    2    1    2    0  502 -0.44419638883E+02 -0.20612244896E+03  0.96994787792E+03  0.10073838814E+04  0.17194135729E+03 0.  0.
        -24    2    5    5    0    0 -0.56050407291E+02 -0.12334558408E+03  0.49344033491E+03  0.52357729538E+03  0.11087848688E+03 0.  0.
          5    1    3    3  501    0  0.47183034904E+02  0.18332883642E+03  0.89941423481E+02  0.20963599572E+03  0.47000000000E+01 0. -1.
        -13    1    4    4    0    0 -0.38315776336E+02  0.32053614023E+01  0.14402369710E+02  0.41058510825E+02  0.00000000000E+00 0.  1.
         14    1    4    4    0    0  0.35552380316E+02  0.19588251141E+02  0.37460481759E+02  0.55235486986E+02  0.00000000000E+00 0. -1.
         -5    1    5    5    0  502  0.11630768408E+02 -0.82776864881E+02  0.47650754302E+03  0.48380658603E+03  0.47000000000E+01 0.  1.
         13    1    6    6    0    0 -0.39213966367E+02 -0.13682881922E+03  0.33946237276E+03  0.36809586177E+03  0.00000000000E+00 0. -1.
        -14    1    6    6    0    0 -0.16836440924E+02  0.13483235137E+02  0.15397796214E+03  0.15548143361E+03  0.00000000000E+00 0.  1.
</event>
<event>
12    1  0.8562501E-002  0.2188809E+03  0.7818608E-02  0.1134777E+00
         21   -1    0    0  503  502  0.00000000000E+00  0.00000000000E+00  0.14095551812E+03  0.14095551812E+03  0.00000000000E+00 0.  1.
         21   -1    0    0  501  503 -0.00000000000E+00 -0.00000000000E+00 -0.37784490583E+03  0.37784490583E+03  0.00000000000E+00 0.  1.
          6    2    1    2  501    0 -0.80470534089E+02  0.10990823164E+03 -0.20124816183E+03  0.29733761847E+03  0.17132866215E+03 0.  0.
         24    2    3    3    0    0 -0.60282003218E+02  0.16793763923E+02 -0.28729684038E+02  0.10020163479E+03  0.72794384755E+02 0.  0.
         -6    2    1    2    0  502  0.80470534089E+02 -0.10990823164E+03 -0.35641225880E+02  0.22146280548E+03  0.17093902711E+03 0.  0.
        -24    2    5    5    0    0  0.45796921715E+01 -0.10909198784E+03 -0.49593947779E+02  0.14415268590E+03  0.79990010650E+02 0.  0.
          5    1    3    3  501    0 -0.20188530871E+02  0.93114467722E+02 -0.17251847779E+03  0.19713598367E+03  0.47000000000E+01 0. -1.
        -11    1    4    4    0    0 -0.63167503358E+02  0.38524359302E+02 -0.20377654998E+02  0.76743133656E+02  0.00000000000E+00 0.  1.
         12    1    4    4    0    0  0.28855001405E+01 -0.21730595379E+02 -0.83520290400E+01  0.23458501138E+02  0.00000000000E+00 0. -1.
         -5    1    5    5    0  502  0.75890841917E+02 -0.81624380043E+00  0.13952721898E+02  0.77310119578E+02  0.47000000000E+01 0.  1.
         13    1    6    6    0    0  0.12995789413E+02  0.90346064996E+01 -0.17385502382E+00  0.15828609625E+02  0.00000000000E+00 0. -1.
        -14    1    6    6    0    0 -0.84160972418E+01 -0.11812659434E+03 -0.49420092755E+02  0.12832407628E+03  0.00000000000E+00 0.  1.
</event>
<event>
12    1  0.8562501E-002  0.2353832E+03  0.7818608E-02  0.1123111E+00
         21   -1    0    0  503  502  0.00000000000E+00  0.00000000000E+00  0.15550217584E+03  0.15550217584E+03  0.00000000000E+00 0.  1.
         21   -1    0    0  501  503 -0.00000000000E+00 -0.00000000000E+00 -0.46725914031E+03  0.46725914031E+03  0.00000000000E+00 0.  1.
          6    2    1    2  501    0  0.12126312932E+03  0.10509826156E+03 -0.30854304837E+03  0.38735614138E+03  0.17057425495E+03 0.  0.
         24    2    3    3    0    0  0.82561701496E+02  0.89985049023E+02 -0.31320529489E+03  0.34528434261E+03  0.78803406686E+02 0.  0.
         -6    2    1    2    0  502 -0.12126312932E+03 -0.10509826156E+03 -0.32139161051E+01  0.23540517477E+03  0.17220591145E+03 0.  0.
        -24    2    5    5    0    0 -0.19383731857E+02 -0.76357673440E+02 -0.44655472638E+02  0.12162940565E+03  0.81199616554E+02 0.  0.
          5    1    3    3  501    0  0.38701427819E+02  0.15113212538E+02  0.46622465235E+01  0.42071798762E+02  0.47000000000E+01 0. -1.
        -11    1    4    4    0    0  0.12619364264E+02  0.64751359110E+02 -0.10299238884E+03  0.12230870378E+03  0.00000000000E+00 0.  1.
         12    1    4    4    0    0  0.69942337232E+02  0.25233689913E+02 -0.21021290605E+03  0.22297563883E+03  0.00000000000E+00 0. -1.
         -5    1    5    5    0  502 -0.10187939746E+03 -0.28740588121E+02  0.41441556533E+02  0.11377576912E+03  0.47000000000E+01 0.  1.
         11    1    6    6    0    0 -0.47485864123E+02 -0.37089837352E+02 -0.41650489222E+02  0.73248389598E+02  0.00000000000E+00 0. -1.
        -12    1    6    6    0    0  0.28102132266E+02 -0.39267836088E+02 -0.30049834160E+01  0.48381016052E+02  0.00000000000E+00 0.  1.
</event>
<event>
12    1  0.8562501E-002  0.1709869E+03  0.7818608E-02  0.1176950E+00
         21   -1    0    0  503  502  0.00000000000E+00  0.00000000000E+00  0.30394939414E+02  0.30394939414E+02  0.00000000000E+00 0.  1.
         21   -1    0    0  501  503 -0.00000000000E+00 -0.00000000000E+00 -0.14095935284E+04  0.14095935284E+04  0.00000000000E+00 0.  1.
          6    2    1    2  501    0 -0.30045076047E+02 -0.26897208708E+02 -0.10959430972E+04  0.11091256827E+04  0.16565730074E+03 0.  0.
         24    2    3    3    0    0 -0.36535737285E+02  0.18559066639E+02 -0.98727883112E+03  0.99106462064E+03  0.76225277007E+02 0.  0.
         -6    2    1    2    0  502  0.30045076047E+02  0.26897208708E+02 -0.28325549173E+03  0.33086278506E+03  0.16616360164E+03 0.  0.
        -24    2    5    5    0    0  0.25771112093E+02 -0.44238055665E+02 -0.19942380520E+03  0.22073406822E+03  0.79577126156E+02 0.  0.
          5    1    3    3  501    0  0.64906612386E+01 -0.45456275347E+02 -0.10866426610E+03  0.11806106208E+03  0.47000000000E+01 0. -1.
        -11    1    4    4    0    0 -0.58945563569E+02  0.21824535506E+02 -0.65242294555E+03  0.65544381125E+03  0.00000000000E+00 0.  1.
         12    1    4    4    0    0  0.22409826284E+02 -0.32654688678E+01 -0.33485588556E+03  0.33562080939E+03  0.00000000000E+00 0. -1.
         -5    1    5    5    0  502  0.42739639541E+01  0.71135264373E+02 -0.83831686532E+02  0.11012871684E+03  0.47000000000E+01 0.  1.
         11    1    6    6    0    0  0.38222553119E+02 -0.40921952006E+02 -0.65420981022E+02  0.86113149291E+02  0.00000000000E+00 0. -1.
        -12    1    6    6    0    0 -0.12451441026E+02 -0.33161036590E+01 -0.13400282418E+03  0.13462091893E+03  0.00000000000E+00 0.  1.
</event>
<event>
12    1  0.8562501E-002  0.1762713E+03  0.7818608E-02  0.1171752E+00
         21   -1    0    0  501  502  0.00000000000E+00  0.00000000000E+00  0.61000655588E+02  0.61000655588E+02  0.00000000000E+00 0. -1.
         21   -1    0    0  502  503 -0.00000000000E+00 -0.00000000000E+00 -0.55935636284E+03  0.55935636284E+03  0.00000000000E+00 0. -1.
         -6    2    1    2    0  503  0.16587321578E+00 -0.38293002172E+02 -0.15412756262E+03  0.23415141407E+03  0.17206160996E+03 0.  0.
        -24    2    3    3    0    0  0.17205072329E+02  0.35772041974E+02 -0.12427792242E+03  0.15236476424E+03  0.78704293903E+02 0.  0.
          6    2    1    2  501    0 -0.16587321578E+00  0.38293002172E+02 -0.34422814463E+03  0.38620560436E+03  0.17086653198E+03 0.  0.
         24    2    5    5    0    0  0.42972313256E+02  0.53854523640E+02 -0.13076267270E+03  0.16781910801E+03  0.79482369224E+02 0.  0.
          5    1    5    5  501    0 -0.43138186471E+02 -0.15561521468E+02 -0.21346547193E+03  0.21838649635E+03  0.47000000000E+01 0. -1.
        -13    1    6    6    0    0  0.65560743984E+02  0.31825011603E+02 -0.10013113905E+03  0.12384380292E+03  0.00000000000E+00 0.  1.
         14    1    6    6    0    0 -0.22588430729E+02  0.22029512037E+02 -0.30631533656E+02  0.43975305087E+02  0.00000000000E+00 0. -1.
         -5    1    3    3    0  503 -0.17039199114E+02 -0.74065044146E+02 -0.29849640199E+02  0.81786649832E+02  0.47000000000E+01 0.  1.
         13    1    4    4    0    0  0.12048961536E+02  0.43636534161E+02 -0.23232980531E+02  0.50883160005E+02  0.00000000000E+00 0. -1.
        -14    1    4    4    0    0  0.51561107930E+01 -0.78644921869E+01 -0.10104494189E+03  0.10148160423E+03  0.00000000000E+00 0.  1.
</event>
<event>
12    1  0.8562501E-002  0.3344744E+03  0.7818608E-02  0.1069292E+00
         21   -1    0    0  501  502  0.00000000000E+00  0.00000000000E+00  0.33359479808E+03  0.33359479808E+03  0.00000000000E+00 0.  1.
         21   -1    0    0  502  503 -0.00000000000E+00 -0.00000000000E+00 -0.49514349465E+03  0.49514349465E+03  0.00000000000E+00 0. -1.
         -6    2    1    2    0  503 -0.27167309126E+03  0.89161896987E+02 -0.31705589717E+03  0.46086607546E+03  0.17354245934E+03 0.  0.
        -24    2    3    3    0    0 -0.47513492913E+02  0.50164721480E+02 -0.12446280920E+03  0.16273440528E+03  0.78850900440E+02 0.  0.
          6    2    1    2  501    0  0.27167309126E+03 -0.89161896987E+02  0.15550720061E+03  0.36787221727E+03  0.17143910408E+03 0.  0.
         24    2    5    5    0    0  0.27091338619E+03 -0.11316442157E+03  0.12878046509E+03  0.33163540271E+03  0.84837391584E+02 0.  0.
          5    1    5    5  501    0  0.75970506014E+00  0.24002524582E+02  0.26726735514E+02  0.36236814558E+02  0.47000000000E+01 0. -1.
        -11    1    6    6    0    0  0.13370671677E+03 -0.30153309717E+02  0.21611404015E+02  0.13875792222E+03  0.00000000000E+00 0.  1.
         12    1    6    6    0    0  0.13720666943E+03 -0.83011111852E+02  0.10716906108E+03  0.19287748049E+03  0.00000000000E+00 0. -1.
         -5    1    3    3    0  503 -0.22415959834E+03  0.38997175507E+02 -0.19259308798E+03  0.29813167018E+03  0.47000000000E+01 0.  1.
         11    1    4    4    0    0 -0.58773190883E+01  0.61385631557E+02 -0.75762956266E+02  0.97687072755E+02  0.00000000000E+00 0. -1.
        -12    1    4    4    0    0 -0.41636173825E+02 -0.11220910077E+02 -0.48699852931E+02  0.65047332530E+02  0.00000000000E+00 0.  1.
</event>
<event>
12    1  0.8562501E-002  0.1767850E+03  0.7818608E-02  0.1171424E+00
         21   -1    0    0  501  502  0.00000000000E+00  0.00000000000E+00  0.28342802598E+03  0.28342802598E+03  0.00000000000E+00 0.  1.
         21   -1    0    0  502  503 -0.00000000000E+00 -0.00000000000E+00 -0.16108586822E+03  0.16108586822E+03  0.00000000000E+00 0.  1.
         -6    2    1    2    0  503 -0.24689623611E+02 -0.23379426915E+02 -0.64879388790E+02  0.18831429226E+03  0.17348418506E+03 0.  0.
        -24    2    3    3    0    0 -0.72406963544E+02  0.83227556596E+01 -0.72568102269E+02  0.13032136834E+03  0.80034323562E+02 0.  0.
          6    2    1    2  501    0  0.24689623611E+02  0.23379426915E+02  0.18722154656E+03  0.25619960194E+03  0.17155218863E+03 0.  0.
         24    2    5    5    0    0  0.46741680544E+02  0.34182306007E+02  0.41308660542E+02  0.10816022976E+03  0.81480151699E+02 0.  0.
          5    1    5    5  501    0 -0.22052056933E+02 -0.10802879092E+02  0.14591288601E+03  0.14803937218E+03  0.47000000000E+01 0. -1.
        -13    1    6    6    0    0  0.39149678097E+02  0.50982785998E+02  0.55476243047E+02  0.84909100253E+02  0.00000000000E+00 0.  1.
         14    1    6    6    0    0  0.75920024476E+01 -0.16800479991E+02 -0.14167582505E+02  0.23251129502E+02  0.00000000000E+00 0. -1.
         -5    1    3    3    0  503  0.47717339933E+02 -0.31702182575E+02  0.76887134789E+01  0.57992923924E+02  0.47000000000E+01 0.  1.
         11    1    4    4    0    0 -0.21288013427E+01  0.21375493813E+02  0.77183156168E+01  0.22825773303E+02  0.00000000000E+00 0. -1.
        -12    1    4    4    0    0 -0.70278162201E+02 -0.13052738154E+02 -0.80286417886E+02  0.10749559504E+03  0.00000000000E+00 0.  1.
</event>
<event>
12    1  0.8562501E-002  0.2741933E+03  0.7818608E-02  0.1098984E+00
         21   -1    0    0  501  502  0.00000000000E+00  0.00000000000E+00  0.13037763918E+04  0.13037763918E+04  0.00000000000E+00 0.  1.
         21   -1    0    0  502  503 -0.00000000000E+00 -0.00000000000E+00 -0.68732958625E+02  0.68732958625E+02  0.00000000000E+00 0. -1.
         -6    2    1    2    0  503 -0.15306388272E+03 -0.14801726723E+03  0.34118331788E+03  0.43770769914E+03  0.17275505750E+03 0.  0.
        -24    2    3    3    0    0 -0.13982466178E+03 -0.13851012220E+03  0.35645325247E+03  0.41488394661E+03  0.79585036034E+02 0.  0.
          6    2    1    2  501    0  0.15306388272E+03  0.14801726723E+03  0.89386011528E+03  0.93480165128E+03  0.17184457498E+03 0.  0.
         24    2    5    5    0    0  0.18470041389E+02  0.58928032305E+01  0.27291434333E+03  0.28371747309E+03  0.75083274962E+02 0.  0.
          5    1    5    5  501    0  0.13459384133E+03  0.14212446400E+03  0.62094577195E+03  0.65108417819E+03  0.47000000000E+01 0. -1.
        -11    1    6    6    0    0  0.32812883776E+02  0.33150608129E+02  0.17138436673E+03  0.17761826854E+03  0.00000000000E+00 0.  1.
         12    1    6    6    0    0 -0.14342842387E+02 -0.27257804899E+02  0.10152997661E+03  0.10609920455E+03  0.00000000000E+00 0. -1.
         -5    1    3    3    0  503 -0.13239220933E+02 -0.95071450226E+01 -0.15269934584E+02  0.22823752531E+02  0.47000000000E+01 0.  1.
         11    1    4    4    0    0 -0.50901860750E+02 -0.45677540878E+01  0.75207726752E+02  0.90928906121E+02  0.00000000000E+00 0. -1.
        -12    1    4    4    0    0 -0.88922801034E+02 -0.13394236812E+03  0.28124552572E+03  0.32395504049E+03  0.00000000000E+00 0.  1.
</event>
<event>
12    1  0.8562501E-002  0.2573668E+03  0.7818608E-02  0.1108859E+00
         21   -1    0    0  503  502  0.00000000000E+00  0.00000000000E+00  0.21592184815E+03  0.21592184815E+03  0.00000000000E+00 0.  1.
         21   -1    0    0  501  503 -0.00000000000E+00 -0.00000000000E+00 -0.50659151171E+03  0.50659151171E+03  0.00000000000E+00 0. -1.
          6    2    1    2  501    0  0.72732668803E+02  0.17593983149E+03 -0.37290669500E+03  0.45309720619E+03  0.17318432280E+03 0.  0.
         24    2    3    3    0    0  0.59272166870E+01  0.70725779600E+02 -0.27269896476E+03  0.29310769295E+03  0.80685354827E+02 0.  0.
         -6    2    1    2    0  502 -0.72732668803E+02 -0.17593983149E+03  0.82237031441E+02  0.26941615367E+03  0.17198043232E+03 0.  0.
        -24    2    5    5    0    0  0.24436263675E+02 -0.55598102113E+02  0.16689720778E+02  0.10136118289E+03  0.79418276711E+02 0.  0.
          5    1    3    3  501    0  0.66805452116E+02  0.10521405189E+03 -0.10020773024E+03  0.15998951324E+03  0.47000000000E+01 0. -1.
        -11    1    4    4    0    0 -0.13139039415E+02  0.12101382959E+02 -0.52102088873E+01  0.18607098186E+02  0.00000000000E+00 0.  1.
         12    1    4    4    0    0  0.19066256102E+02  0.58624396641E+02 -0.26748875588E+03  0.27450059476E+03  0.00000000000E+00 0. -1.
         -5    1    5    5    0  502 -0.97168932478E+02 -0.12034172938E+03  0.65547310663E+02  0.16805497078E+03  0.47000000000E+01 0.  1.
         13    1    6    6    0    0  0.34182732649E+02  0.48268400679E+01 -0.78768151924E+01  0.35409064008E+02  0.00000000000E+00 0. -1.
        -14    1    6    6    0    0 -0.97464689738E+01 -0.60424942181E+02  0.24566535971E+02  0.65952118879E+02  0.00000000000E+00 0.  1.
</event>
<event>
12    1  0.8562501E-002  0.1819074E+03  0.7818608E-02  0.1166391E+00
         21   -1    0    0  503  502  0.00000000000E+00  0.00000000000E+00  0.46457209558E+02  0.46457209558E+02  0.00000000000E+00 0. -1.
         21   -1    0    0  501  503 -0.00000000000E+00 -0.00000000000E+00 -0.17488039776E+04  0.17488039776E+04  0.00000000000E+00 0. -1.
          6    2    1    2  501    0  0.53287541890E+02 -0.19332922307E+02 -0.15428503665E+04  0.15533326584E+04  0.17100225209E+03 0.  0.
         24    2    3    3    0    0 -0.16537928670E+02  0.22745716233E+02 -0.10849903695E+04  0.10882476393E+04  0.79296606352E+02 0.  0.
         -6    2    1    2    0  502 -0.53287541890E+02  0.19332922307E+02 -0.15949640153E+03  0.24192852875E+03  0.17284960780E+03 0.  0.
        -24    2    5    5    0    0 -0.70310691379E+01 -0.25526650354E+02 -0.64841873386E+02  0.12732655569E+03  0.10633220316E+03 0.  0.
          5    1    3    3  501    0  0.69825470560E+02 -0.42078638540E+02 -0.45785999698E+03  0.46508501911E+03  0.47000000000E+01 0. -1.
        -13    1    4    4    0    0 -0.16404678796E+01 -0.64075370281E+01 -0.92086705899E+03  0.92089081221E+03  0.00000000000E+00 0.  1.
         14    1    4    4    0    0 -0.14897460791E+02  0.29153253261E+02 -0.16412331052E+03  0.16735682708E+03  0.00000000000E+00 0. -1.
         -5    1    5    5    0  502 -0.46256472752E+02  0.44859572661E+02 -0.94654528141E+02  0.11460197306E+03  0.47000000000E+01 0.  1.
         11    1    6    6    0    0 -0.53564563249E+02 -0.31193532264E+02 -0.44060010879E+02  0.76049217286E+02  0.00000000000E+00 0. -1.
        -12    1    6    6    0    0  0.46533494111E+02  0.56668819093E+01 -0.20781862507E+02  0.51277338406E+02  0.00000000000E+00 0.  1.
</event>
<event>
12    1  0.8562501E-002  0.1806525E+03  0.7818608E-02  0.1167620E+00
         21   -1    0    0  501  502  0.00000000000E+00  0.00000000000E+00  0.96017485590E+02  0.96017485590E+02  0.00000000000E+00 0. -1.
         21   -1    0    0  502  503 -0.00000000000E+00 -0.00000000000E+00 -0.36894715846E+03  0.36894715846E+03  0.00000000000E+00 0. -1.
         -6    2    1    2    0  503  0.35105243275E+02  0.42285605529E+02 -0.20484677937E+03  0.27190866384E+03  0.17015189659E+03 0.  0.
        -24    2    3    3    0    0  0.19904306431E+02  0.76182964452E+02 -0.20615348699E+03  0.23444005154E+03  0.79138183459E+02 0.  0.
          6    2    1    2  501    0 -0.35105243275E+02 -0.42285605529E+02 -0.68082893503E+02  0.19305598021E+03  0.17208974568E+03 0.  0.
         24    2    5    5    0    0  0.15966116406E+02  0.28804797424E+02 -0.64332670396E+01  0.85888374963E+02  0.79061955461E+02 0.  0.
          5    1    5    5  501    0 -0.51071359681E+02 -0.71090402953E+02 -0.61649626463E+02  0.10716760525E+03  0.47000000000E+01 0. -1.
        -11    1    6    6    0    0 -0.14637588245E+02  0.47117916377E+02 -0.89128724435E+01  0.50137773470E+02  0.00000000000E+00 0.  1.
         12    1    6    6    0    0  0.30603704651E+02 -0.18313118954E+02  0.24796054039E+01  0.35750601493E+02  0.00000000000E+00 0. -1.
         -5    1    3    3    0  503  0.15200936845E+02 -0.33897358924E+02  0.13067076193E+01  0.37468612301E+02  0.47000000000E+01 0.  1.
         11    1    4    4    0    0  0.46487346056E+02  0.22326528347E+02 -0.93957768640E+02  0.10718026637E+03  0.00000000000E+00 0. -1.
        -12    1    4    4    0    0 -0.26583039625E+02  0.53856436106E+02 -0.11219571835E+03  0.12725978517E+03  0.00000000000E+00 0.  1.
</event>
<event>
12    1  0.8562501E-002  0.1968771E+03  0.7818608E-02  0.1152986E+00
         21   -1    0    0  501  502  0.00000000000E+00  0.00000000000E+00  0.74437399453E+03  0.74437399453E+03  0.00000000000E+00 0.  1.
         21   -1    0    0  502  503 -0.00000000000E+00 -0.00000000000E+00 -0.53616189248E+02  0.53616189248E+02  0.00000000000E+00 0. -1.
         -6    2    1    2    0  503 -0.25750284142E+02  0.88948026654E+02  0.26581558129E+03  0.33078471771E+03  0.17374054689E+03 0.  0.
        -24    2    3    3    0    0 -0.43731416385E+02 -0.11917766265E+02  0.97272443517E+02  0.13348771168E+03  0.79388733269E+02 0.  0.
          6    2    1    2  501    0  0.25750284142E+02 -0.88948026654E+02  0.42494222399E+03  0.46720546606E+03  0.17067578977E+03 0.  0.
         24    2    5    5    0    0  0.43703291295E+02 -0.93468007648E+02  0.42863584762E+03  0.44775106940E+03  0.78141436886E+02 0.  0.
          5    1    5    5  501    0 -0.17953007153E+02  0.45199809939E+01 -0.36936236341E+01  0.19454396664E+02  0.47000000000E+01 0. -1.
        -11    1    6    6    0    0  0.33650378070E+02 -0.71910824563E+02  0.16567259807E+03  0.18371424655E+03  0.00000000000E+00 0.  1.
         12    1    6    6    0    0  0.10052913225E+02 -0.21557183085E+02  0.26296324955E+03  0.26403682285E+03  0.00000000000E+00 0. -1.
         -5    1    3    3    0  503  0.17981132242E+02  0.10086579292E+03  0.16854313777E+03  0.19729700603E+03  0.47000000000E+01 0.  1.
         13    1    4    4    0    0  0.18746483540E+01 -0.38242777227E+02  0.34357631310E+02  0.51443864024E+02  0.00000000000E+00 0. -1.
        -14    1    4    4    0    0 -0.45606064739E+02  0.26325010963E+02  0.62914812207E+02  0.82043847656E+02  0.00000000000E+00 0.  1.
</event>
<event>
12    1  0.8562501E-002  0.2190918E+03  0.7818608E-02  0.1134713E+00
         21   -1    0    0  503  502  0.00000000000E+00  0.00000000000E+00  0.13882911527E+03  0.13882911527E+03  0.00000000000E+00 0.  1.
         21   -1    0    0  501  503 -0.00000000000E+00 -0.00000000000E+00 -0.34449400605E+03  0.34449400605E+03  0.00000000000E+00 0. -1.
          6    2    1    2  501    0 -0.13405351855E+03  0.18600977372E+02 -0.10390334934E+03  0.24248118393E+03  0.17229299568E+03 0.  0.
         24    2    3    3    0    0 -0.15492665725E+03  0.44395733952E+02 -0.10650871555E+03  0.20886667338E+03  0.79422480686E+02 0.  0.
         -6    2    1    2    0  502  0.13405351855E+03 -0.18600977372E+02 -0.10176154143E+03  0.24084193739E+03  0.17126904361E+03 0.  0.
        -24    2    5    5    0    0  0.15739708384E+03 -0.14225748883E+01 -0.11315979269E+03  0.20934543467E+03  0.79022190658E+02 0.  0.
          5    1    3    3  501    0  0.20873138702E+02 -0.25794756580E+02  0.26053662145E+01  0.33614510548E+02  0.47000000000E+01 0. -1.
        -13    1    4    4    0    0 -0.10468990108E+03  0.19141333221E+02 -0.24127466846E+02  0.10912607700E+03  0.00000000000E+00 0.  1.
         14    1    4    4    0    0 -0.50236756178E+02  0.25254400731E+02 -0.82381248708E+02  0.99740596380E+02  0.00000000000E+00 0. -1.
         -5    1    5    5    0  502 -0.23343565288E+02 -0.17178402484E+02  0.11398251252E+02  0.31496502724E+02  0.47000000000E+01 0.  1.
         13    1    6    6    0    0  0.62440532485E+02  0.18279688584E+02 -0.87484438254E+02  0.10902519914E+03  0.00000000000E+00 0. -1.
        -14    1    6    6    0    0  0.94956551354E+02 -0.19702263472E+02 -0.25675354432E+02  0.10032023553E+03  0.00000000000E+00 0.  1.
</event>
<event>
12    1  0.8562501E-002  0.1985230E+03  0.7818608E-02  0.1151190E+00
         21   -1    0    0  503  502  0.00000000000E+00  0.00000000000E+00  0.46692146995E+03  0.46692146995E+03  0.00000000000E+00 0. -1.
         21   -1    0    0  501  503 -0.00000000000E+00 -0.00000000000E+00 -0.96088876622E+02  0.96088876622E+02  0.00000000000E+00 0.  1.
          6    2    1    2  501    0  0.95855935116E+02 -0.27858999153E+02  0.85235704206E+02  0.21519293086E+03  0.17052386369E+03 0.  0.
         24    2    3    3    0    0  0.46737478926E+02 -0.14667940530E+02 -0.17463439558E+02  0.10049406035E+03  0.85991534633E+02 0.  0.
         -6    2    1    2    0  502 -0.95855935116E+02  0.27858999153E+02  0.28559688912E+03  0.34781741571E+03  0.17160095416E+03 0.  0.
        -24    2    5    5    0    0 -0.18705373093E+02 -0.29978552639E+02  0.20135909274E+03  0.21969447492E+03  0.80446090533E+02 0.  0.
          5    1    3    3  501    0  0.49118456190E+02 -0.13191058623E+02  0.10269914376E+03  0.11469887051E+03  0.47000000000E+01 0. -1.
        -13    1    4    4    0    0  0.56923539384E+02 -0.19392029657E+02  0.18420870316E+02  0.62894106349E+02  0.00000000000E+00 0.  1.
         14    1    4    4    0    0 -0.10186060458E+02  0.47240891264E+01 -0.35884309874E+02  0.37599954000E+02  0.00000000000E+00 0. -1.
         -5    1    5    5    0  502 -0.77150562023E+02  0.57837551792E+02  0.84237796385E+02  0.12812294079E+03  0.47000000000E+01 0.  1.
         13    1    6    6    0    0 -0.45778388194E+02  0.13707971607E+01  0.92397257033E+02  0.10312513281E+03  0.00000000000E+00 0. -1.
        -14    1    6    6    0    0  0.27073015101E+02 -0.31349349799E+02  0.10896183570E+03  0.11656934211E+03  0.00000000000E+00 0.  1.
</event>
<event>
12    1  0.8562501E-002  0.1782129E+03  0.7818608E-02  0.1169940E+00
         21   -1    0    0  501  502  0.00000000000E+00  0.00000000000E+00  0.41983211602E+03  0.41983211602E+03  0.00000000000E+00 0.  1.
         21   -1    0    0  502  503 -0.00000000000E+00 -0.00000000000E+00 -0.10994205377E+03  0.10994205377E+03  0.00000000000E+00 0.  1.
         -6    2    1    2    0  503  0.22111895856E+02 -0.18467359647E+02  0.60240290717E+01  0.17831467459E+03  0.17586885721E+03 0.  0.
        -24    2    3    3    0    0 -0.39796314369E+02 -0.55040031464E+01 -0.39084668524E+02  0.10048434821E+03  0.83399353921E+02 0.  0.
          6    2    1    2  501    0 -0.22111895856E+02  0.18467359647E+02  0.30386603318E+03  0.35145949520E+03  0.17423900635E+03 0.  0.
         24    2    5    5    0    0  0.39247825189E+02 -0.22490089732E+02  0.22756449777E+03  0.24522135548E+03  0.79383352270E+02 0.  0.
          5    1    5    5  501    0 -0.61359721045E+02  0.40957449379E+02  0.76301535407E+02  0.10623813972E+03  0.47000000000E+01 0. -1.
        -11    1    6    6    0    0 -0.10675116176E+02 -0.13975328003E+01  0.15118364916E+03  0.15156651008E+03  0.00000000000E+00 0.  1.
         12    1    6    6    0    0  0.49922941365E+02 -0.21092556931E+02  0.76380848612E+02  0.93654845401E+02  0.00000000000E+00 0. -1.
         -5    1    3    3    0  503  0.61908210225E+02 -0.12963356501E+02  0.45108697596E+02  0.77830326376E+02  0.47000000000E+01 0.  1.
         11    1    4    4    0    0  0.93891643974E+01  0.30674277602E+00  0.20769886962E+02  0.22795585178E+02  0.00000000000E+00 0. -1.
        -12    1    4    4    0    0 -0.49185478766E+02 -0.58107459224E+01 -0.59854555486E+02  0.77688763036E+02  0.00000000000E+00 0.  1.
</event>
<event>
12    1  0.8562501E-002  0.1954891E+03  0.7818608E-02  0.1153863E+00
         21   -1    0    0  503  502  0.00000000000E+00  0.00000000000E+00  0.62023609662E+02  0.62023609662E+02  0.00000000000E+00 0.  1.
         21   -1    0    0  501  503 -0.00000000000E+00 -0.00000000000E+00 -0.91669529936E+03  0.91669529936E+03  0.00000000000E+00 0. -1.
          6    2    1    2  501    0 -0.30119098116E+02 -0.85033514581E+02 -0.70840898863E+03  0.73456981022E+03  0.17208036567E+03 0.  0.
         24    2    3    3    0    0 -0.73121123505E+02 -0.24161847112E+02 -0.34337258153E+03  0.36197324207E+03  0.84790357197E+02 0.  0.
         -6    2    1    2    0  502  0.30119098116E+02  0.85033514581E+02 -0.14626270107E+03  0.24414909880E+03  0.17343052225E+03 0.  0.
        -24    2    5    5    0    0  0.51751052431E+02  0.11824641831E+03 -0.13426580062E+03  0.20247111850E+03  0.79415752462E+02 0.  0.
          5    1    3    3  501    0  0.43002025389E+02 -0.60871667469E+02 -0.36503640710E+03  0.37259656815E+03  0.47000000000E+01 0. -1.
        -13    1    4    4    0    0 -0.31009830573E+02 -0.46109243593E+02 -0.10377853869E+03  0.11771855007E+03  0.00000000000E+00 0.  1.
         14    1    4    4    0    0 -0.42111292932E+02  0.21947396481E+02 -0.23959404284E+03  0.24425469201E+03  0.00000000000E+00 0. -1.
         -5    1    5    5    0  502 -0.21631954316E+02 -0.33212903728E+02 -0.11996900450E+02  0.41677980301E+02  0.47000000000E+01 0.  1.
         11    1    6    6    0    0  0.56672077306E+02  0.42580845960E+02 -0.90376181554E+02  0.11485950975E+03  0.00000000000E+00 0. -1.
        -12    1    6    6    0    0 -0.49210248749E+01  0.75665572349E+02 -0.43889619064E+02  0.87611608742E+02  0.00000000000E+00 0.  1.
</event>
<event>
12    1  0.8562501E-002  0.3476297E+03  0.7818608E-02  0.1063635E+00
         21   -1    0    0  503  502  0.00000000000E+00  0.00000000000E+00  0.22394482143E+03  0.22394482143E+03  0.00000000000E+00 0. -1.
         21   -1    0    0  501  503 -0.00000000000E+00 -0.00000000000E+00 -0.68256593751E+03  0.68256593751E+03  0.00000000000E+00 0. -1.
          6    2    1    2  501    0 -0.27484878093E+03  0.12456710796E+03 -0.43708396635E+03  0.55821450472E+03  0.17176211129E+03 0.  0.
         24    2    3    3    0    0 -0.11167861893E+03 -0.52021296118E+01 -0.20356754615E+03  0.24513853104E+03  0.78447291093E+02 0.  0.
         -6    2    1    2    0  502  0.27484878093E+03 -0.12456710796E+03 -0.21537149741E+02  0.34829625423E+03  0.17259088946E+03 0.  0.
        -24    2    5    5    0    0  0.11171310426E+03 -0.26773919272E+01  0.22455075131E+02  0.13990297764E+03  0.81127225163E+02 0.  0.
          5    1    3    3  501    0 -0.16317016199E+03  0.12976923758E+03 -0.23351642020E+03  0.31307597367E+03  0.47000000000E+01 0. -1.
        -13    1    4    4    0    0 -0.70556290138E+02 -0.27797126533E+02 -0.68640371565E+02  0.10228573180E+03  0.00000000000E+00 0.  1.
         14    1    4    4    0    0 -0.41122328793E+02  0.22594996921E+02 -0.13492717458E+03  0.14285279924E+03  0.00000000000E+00 0. -1.
         -5    1    5    5    0  502  0.16313567666E+03 -0.12188971604E+03 -0.43992224872E+02  0.20839327658E+03  0.47000000000E+01 0.  1.
         11    1    6    6    0    0  0.11013323971E+03 -0.27197505836E+02  0.16668326710E+02  0.11465979212E+03  0.00000000000E+00 0. -1.
        -12    1    6    6    0    0  0.15798645484E+01  0.24520113908E+02  0.57867484210E+01  0.25243185523E+02  0.00000000000E+00 0.  1.
</event>
<event>
12    1  0.8562501E-002  0.2374664E+03  0.7818608E-02  0.1121564E+00
         21   -1    0    0  501  502  0.00000000000E+00  0.00000000000E+00  0.36240152831E+03  0.36240152831E+03  0.00000000000E+00 0.  1.
         21   -1    0    0  502  503 -0.00000000000E+00 -0.00000000000E+00 -0.17832518317E+03  0.17832518317E+03  0.00000000000E+00 0. -1.
         -6    2    1    2    0  503  0.99580907306E+02 -0.12943709174E+03 -0.51349391124E+01  0.23709665469E+03  0.17180843474E+03 0.  0.
        -24    2    3    3    0    0  0.34725851631E+02 -0.21505037074E+02 -0.50710343129E+02  0.10310145283E+03  0.79937596186E+02 0.  0.
          6    2    1    2  501    0 -0.99580907306E+02  0.12943709174E+03  0.18921128425E+03  0.30363005678E+03  0.17239484759E+03 0.  0.
         24    2    5    5    0    0 -0.11373465512E+02  0.63946390481E+01  0.95243508489E+02  0.12538295068E+03  0.80494169262E+02 0.  0.
          5    1    5    5  501    0 -0.88207441794E+02  0.12304245270E+03  0.93967775763E+02  0.17824710611E+03  0.47000000000E+01 0. -1.
        -11    1    6    6    0    0 -0.32052506221E+02  0.21454878945E+02  0.91795770808E+02  0.99569767117E+02  0.00000000000E+00 0.  1.
         12    1    6    6    0    0  0.20679040709E+02 -0.15060239897E+02  0.34477376807E+01  0.25813183560E+02  0.00000000000E+00 0. -1.
         -5    1    3    3    0  503  0.64855055675E+02 -0.10793205467E+03  0.45575404016E+02  0.13399520187E+03  0.47000000000E+01 0.  1.
         11    1    4    4    0    0  0.51836101791E+02 -0.35006686146E+02 -0.20447825336E+02  0.65807013948E+02  0.00000000000E+00 0. -1.
        -12    1    4    4    0    0 -0.17110250160E+02  0.13501649072E+02 -0.30262517793E+02  0.37294438880E+02  0.00000000000E+00 0.  1.
</event>
<event>
12    1  0.8562501E-002  0.1788204E+03  0.7818608E-02  0.1169132E+00
         21   -1    0    0  501  502  0.00000000000E+00  0.00000000000E+00  0.41656848271E+02  0.41656848271E+02  0.00000000000E+00 0.  1.
         21   -1    0    0  502  503 -0.00000000000E+00 -0.00000000000E+00 -0.85845714568E+03  0.85845714568E+03  0.00000000000E+00 0.  1.
         -6    2    1    2    0  503 -0.33045663861E+02  0.27941818931E+02 -0.55659706849E+03  0.58438868643E+03  0.17273412816E+03 0.  0.
        -24    2    3    3    0    0 -0.27054342326E+02  0.78517767745E+02 -0.46222307148E+03  0.47704641216E+03  0.83822039246E+02 0.  0.
          6    2    1    2  501    0  0.33045663861E+02 -0.27941818931E+02 -0.26020322892E+03  0.31572530752E+03  0.17350500951E+03 0.  0.
         24    2    5    5    0    0  0.86461700148E+02 -0.32276242926E+02 -0.20441822184E+03  0.23822616444E+03  0.80296416806E+02 0.  0.
          5    1    5    5  501    0 -0.53416036286E+02  0.43344239954E+01 -0.55785007073E+02  0.77499143079E+02  0.47000000000E+01 0. -1.
        -13    1    6    6    0    0  0.65994300303E+02 -0.19711705115E+02 -0.58563196287E+02  0.90407117808E+02  0.00000000000E+00 0.  1.
         14    1    6    6    0    0  0.20467399844E+02 -0.12564537811E+02 -0.14585502556E+03  0.14781904663E+03  0.00000000000E+00 0. -1.
         -5    1    3    3    0  503 -0.59913215352E+01 -0.50575948814E+02 -0.94373997016E+02  0.10734227427E+03  0.47000000000E+01 0.  1.
         11    1    4    4    0    0  0.30162996952E+01  0.26245475395E+02 -0.33726271567E+03  0.33829582087E+03  0.00000000000E+00 0. -1.
        -12    1    4    4    0    0 -0.30070642021E+02  0.52272292350E+02 -0.12496035581E+03  0.13875059129E+03  0.00000000000E+00 0.  1.
</event>
<event>
12    1  0.8562501E-002  0.2487523E+03  0.7818608E-02  0.1114225E+00
         21   -1    0    0  501  502  0.00000000000E+00  0.00000000000E+00  0.11767359702E+04  0.11767359702E+04  0.00000000000E+00 0. -1.
         21   -1    0    0  502  503 -0.00000000000E+00 -0.00000000000E+00 -0.76487699717E+02  0.76487699717E+02  0.00000000000E+00 0. -1.
         -6    2    1    2    0  503  0.77785913370E+02  0.16147494631E+03  0.19919089520E+03  0.31867654248E+03  0.17249034579E+03 0.  0.
        -24    2    3    3    0    0  0.23771670623E+02  0.91736160033E+02  0.30418173739E+02  0.12818413255E+03  0.80779274338E+02 0.  0.
          6    2    1    2  501    0 -0.77785913370E+02 -0.16147494631E+03  0.90105737524E+03  0.93454712739E+03  0.17131588729E+03 0.  0.
         24    2    5    5    0    0 -0.69064535857E+02 -0.69230545178E+02  0.29599872866E+03  0.32241711851E+03  0.82309005857E+02 0.  0.
          5    1    5    5  501    0 -0.87213775131E+01 -0.92244401134E+02  0.60505864658E+03  0.61213000888E+03  0.47000000000E+01 0. -1.
        -13    1    6    6    0    0  0.34329930054E+01  0.15711466010E+02  0.40714841043E+02  0.43775951004E+02  0.00000000000E+00 0.  1.
         14    1    6    6    0    0 -0.72497528863E+02 -0.84942011187E+02  0.25528388761E+03  0.27864116751E+03  0.00000000000E+00 0. -1.
         -5    1    3    3    0  503  0.54014242747E+02  0.69738786279E+02  0.16877272146E+03  0.19049240993E+03  0.47000000000E+01 0.  1.
         13    1    4    4    0    0  0.19110821000E+02 -0.93822858340E+01  0.14391184415E+02  0.25697411458E+02  0.00000000000E+00 0. -1.
        -14    1    4    4    0    0  0.46608496230E+01  0.10111844587E+03  0.16026989324E+02  0.10248672109E+03  0.00000000000E+00 0.  1.
</event>
<event>
12    1  0.8562501E-002  0.1784097E+03  0.7818608E-02  0.1169380E+00
         21   -1    0    0  501  502  0.00000000000E+00  0.00000000000E+00  0.59384382644E+03  0.59384382644E+03  0.00000000000E+00 0.  1.
         21   -1    0    0  502  503 -0.00000000000E+00 -0.00000000000E+00 -0.55049046209E+02  0.55049046209E+02  0.00000000000E+00 0.  1.
         -6    2    1    2    0  503  0.31368025024E+02 -0.34728559448E+02  0.32259691897E+03  0.36858675630E+03  0.17203894605E+03 0.  0.
        -24    2    3    3    0    0  0.15375518948E+02 -0.28649428840E+02  0.61476435957E+02  0.10686416895E+03  0.81138166558E+02 0.  0.
          6    2    1    2  501    0 -0.31368025024E+02  0.34728559448E+02  0.21619786126E+03  0.28030611634E+03  0.17216264929E+03 0.  0.
         24    2    5    5    0    0  0.18902076894E+02  0.44230971636E+02  0.20819441857E+03  0.22831069271E+03  0.80418835577E+02 0.  0.
          5    1    5    5  501    0 -0.50270101918E+02 -0.95024121879E+01  0.80034426806E+01  0.51995423635E+02  0.47000000000E+01 0. -1.
        -11    1    6    6    0    0  0.22578407216E+02  0.64456785250E+02  0.12318519782E+03  0.14085117891E+03  0.00000000000E+00 0.  1.
         12    1    6    6    0    0 -0.36763303217E+01 -0.20225813614E+02  0.85009220750E+02  0.87459513797E+02  0.00000000000E+00 0. -1.
         -5    1    3    3    0  503  0.15992506076E+02 -0.60791306080E+01  0.26112048301E+03  0.26172258735E+03  0.47000000000E+01 0.  1.
         13    1    4    4    0    0  0.95089428125E+01  0.19563398911E+02  0.53358672119E+02  0.57621996326E+02  0.00000000000E+00 0. -1.
        -14    1    4    4    0    0  0.58665761355E+01 -0.48212827751E+02  0.81177638379E+01  0.49242172627E+02  0.00000000000E+00 0.  1.
</event>
<event>
12    1  0.8562501E-002  0.2347395E+03  0.7818608E-02  0.1125875E+00
         21   -1    0    0  503  502  0.00000000000E+00  0.00000000000E+00  0.52396978205E+02  0.52396978205E+02  0.00000000000E+00 0. -1.
         21   -1    0    0  501  503 -0.00000000000E+00 -0.00000000000E+00 -0.15302547122E+04  0.15302547122E+04  0.00000000000E+00 0. -1.
          6    2    1    2  501    0 -0.66235731376E+02  0.12314899573E+03 -0.11945718859E+04  0.12147474768E+04  0.17045994983E+03 0.  0.
         24    2    3    3    0    0 -0.42196670854E+02  0.13977266758E+03 -0.69890207848E+03  0.71819448778E+03  0.77603152893E+02 0.  0.
         -6    2    1    2    0  502  0.66235731376E+02 -0.12314899573E+03 -0.28328584812E+03  0.36790421365E+03  0.18854652322E+03 0.  0.
        -24    2    5    5    0    0  0.34489561679E+02 -0.91220600910E+02 -0.29499602188E+03  0.32114461725E+03  0.81243365068E+02 0.  0.
          5    1    3    3  501    0 -0.24039060522E+02 -0.16623671849E+02 -0.49566980740E+03  0.49655298898E+03  0.47000000000E+01 0. -1.
        -13    1    4    4    0    0 -0.59280258242E+02  0.79672922442E+02 -0.49783957919E+03  0.50764768313E+03  0.00000000000E+00 0.  1.
         14    1    4    4    0    0  0.17083587388E+02  0.60099745139E+02 -0.20106249930E+03  0.21054680465E+03  0.00000000000E+00 0. -1.
         -5    1    5    5    0  502  0.31746169697E+02 -0.31928394821E+02  0.11710173760E+02  0.46759596403E+02  0.47000000000E+01 0.  1.
         11    1    6    6    0    0 -0.33406845094E+01 -0.35750925721E+02 -0.20889982848E+03  0.21196326852E+03  0.00000000000E+00 0. -1.
        -12    1    6    6    0    0  0.37830246188E+02 -0.55469675189E+02 -0.86096193403E+02  0.10918134873E+03  0.00000000000E+00 0.  1.
</event>
<event>
12    1  0.8562501E-002  0.1935998E+03  0.7818608E-02  0.1157283E+00
         21   -1    0    0  503  502  0.00000000000E+00  0.00000000000E+00  0.72476512550E+03  0.72476512550E+03  0.00000000000E+00 0. -1.
         21   -1    0    0  501  503 -0.00000000000E+00 -0.00000000000E+00 -0.59096212548E+02  0.59096212548E+02  0.00000000000E+00 0. -1.
          6    2    1    2  501    0  0.43829438451E+02 -0.51889571424E+02  0.18024179690E+03  0.26451465540E+03  0.18129354726E+03 0.  0.
         24    2    3    3    0    0  0.23251686798E+02  0.16041665868E+02  0.15567634580E+02  0.85133032606E+02  0.78786458300E+02 0.  0.
         -6    2    1    2    0  502 -0.43829438451E+02  0.51889571424E+02  0.48542711606E+03  0.51934668265E+03  0.17166229776E+03 0.  0.
        -24    2    5    5    0    0 -0.72217842792E+02  0.25310947573E+02  0.17820614099E+03  0.20963852604E+03  0.79591595214E+02 0.  0.
          5    1    3    3  501    0  0.20577751653E+02 -0.67931237291E+02  0.16467416232E+03  0.17938162280E+03  0.47000000000E+01 0. -1.
        -13    1    4    4    0    0 -0.31742079458E+00 -0.29897959123E+02 -0.34742403561E+01  0.30100814968E+02  0.00000000000E+00 0.  1.
         14    1    4    4    0    0  0.23569107593E+02  0.45939624991E+02  0.19041874936E+02  0.55032217637E+02  0.00000000000E+00 0. -1.
         -5    1    5    5    0  502  0.28388404340E+02  0.26578623851E+02  0.30722097507E+03  0.30970815661E+03  0.47000000000E+01 0.  1.
         13    1    6    6    0    0  0.80347931282E+00  0.36502725308E+02  0.56787533456E+02  0.67512358053E+02  0.00000000000E+00 0. -1.
        -14    1    6    6    0    0 -0.73021322104E+02 -0.11191777735E+02  0.12141860753E+03  0.14212616798E+03  0.00000000000E+00 0.  1.
</event>
<event>
12    1  0.8562501E-002  0.2157212E+03  0.7818608E-02  0.1140356E+00
         21   -1    0    0  501  502  0.00000000000E+00  0.00000000000E+00  0.15991680366E+03  0.15991680366E+03  0.00000000000E+00 0. -1.
         21   -1    0    0  502  503 -0.00000000000E+00 -0.00000000000E+00 -0.27691245690E+03  0.27691245690E+03  0.00000000000E+00 0. -1.
         -6    2    1    2    0  503  0.49286705309E+02 -0.88834163337E+02 -0.20497120461E+02  0.20050830943E+03  0.17164720303E+03 0.  0.
        -24    2    3    3    0    0  0.90703937942E+02 -0.89755435133E+02 -0.38106028307E+02  0.15524906136E+03  0.79793227565E+02 0.  0.
          6    2    1    2  501    0 -0.49286705309E+02  0.88834163337E+02 -0.96498532776E+02  0.23632095113E+03  0.19030222599E+03 0.  0.
         24    2    5    5    0    0  0.39044797805E+02  0.89421247494E+02 -0.68901212947E+02  0.14365757556E+03  0.79808935157E+02 0.  0.
          5    1    5    5  501    0 -0.88331503114E+02 -0.58708415658E+00 -0.27597319829E+02  0.92663375569E+02  0.47000000000E+01 0. -1.
        -13    1    6    6    0    0  0.53629985924E+02  0.59957937530E+02 -0.75274490467E+02  0.11016977162E+03  0.00000000000E+00 0.  1.
         14    1    6    6    0    0 -0.14585188119E+02  0.29463309963E+02  0.63732775203E+01  0.33487803941E+02  0.00000000000E+00 0. -1.
         -5    1    3    3    0  503 -0.41417232633E+02  0.92127179592E+00  0.17608907846E+02  0.45259248074E+02  0.47000000000E+01 0.  1.
         13    1    4    4    0    0  0.71227409630E+02 -0.26284710186E+02 -0.45394512702E+02  0.88458417664E+02  0.00000000000E+00 0. -1.
        -14    1    4    4    0    0  0.19476528313E+02 -0.63470724947E+02  0.72884843952E+01  0.66790643695E+02  0.00000000000E+00 0.  1.
</event>
<event>
12    1  0.8562501E-002  0.2087980E+03  0.7818608E-02  0.1142650E+00
         21   -1    0    0  503  502  0.00000000000E+00  0.00000000000E+00  0.51243588925E+03  0.51243588925E+03  0.00000000000E+00 0.  1.
         21   -1    0    0  501  503 -0.00000000000E+00 -0.00000000000E+00 -0.12457188883E+03  0.12457188883E+03  0.00000000000E+00 0.  1.
          6    2    1    2  501    0  0.53845796617E+01 -0.11883936352E+03  0.13796003376E+02  0.20861137924E+03  0.17081156231E+03 0.  0.
         24    2    3    3    0    0 -0.27933972653E+02 -0.87584471746E+01  0.34259189336E+02  0.91697881082E+02  0.79861080107E+02 0.  0.
         -6    2    1    2    0  502 -0.53845796617E+01  0.11883936352E+03  0.37406799705E+03  0.42839639884E+03  0.17159493028E+03 0.  0.
        -24    2    5    5    0    0  0.48572027525E+02  0.90586560036E+02  0.16170615498E+03  0.20742314631E+03  0.79437487059E+02 0.  0.
          5    1    3    3  501    0  0.33318552315E+02 -0.11008091635E+03 -0.20463185961E+02  0.11691349816E+03  0.47000000000E+01 0. -1.
        -11    1    4    4    0    0  0.42706268422E+01 -0.20372176092E+02 -0.19133183576E+02  0.28272646252E+02  0.00000000000E+00 0.  1.
         12    1    4    4    0    0 -0.32204599496E+02  0.11613728917E+02  0.53392372912E+02  0.63425234830E+02  0.00000000000E+00 0. -1.
         -5    1    5    5    0  502 -0.53956607187E+02  0.28252803486E+02  0.21236184207E+03  0.22097325252E+03  0.47000000000E+01 0.  1.
         11    1    6    6    0    0  0.41336747754E+02  0.19750375859E+02  0.11078604547E+03  0.11988474437E+03  0.00000000000E+00 0. -1.
        -12    1    6    6    0    0  0.72352797714E+01  0.70836184177E+02  0.50920109510E+02  0.87538401942E+02  0.00000000000E+00 0.  1.
</event>
<event>
12    1  0.8562501E-002  0.2660020E+03  0.7818608E-02  0.1103623E+00
         21   -1    0    0  503  502  0.00000000000E+00  0.00000000000E+00  0.56584363159E+03  0.56584363159E+03  0.00000000000E+00 0.  1.
         21   -1    0    0  501  503 -0.00000000000E+00 -0.00000000000E+00 -0.12554543420E+03  0.12554543420E+03  0.00000000000E+00 0.  1.
          6    2    1    2  501    0  0.18730615059E+03  0.76742285887E+02  0.24404016660E+03  0.36082246146E+03  0.17223319451E+03 0.  0.
         24    2    3    3    0    0  0.20811317745E+03  0.67938800081E+02  0.18577439341E+03  0.29815329796E+03  0.80352278466E+02 0.  0.
         -6    2    1    2    0  502 -0.18730615059E+03 -0.76742285887E+02  0.19625803079E+03  0.33056660433E+03  0.17258068478E+03 0.  0.
        -24    2    5    5    0    0 -0.82330772122E+02  0.22012475969E+02  0.11893958100E+03  0.16694336102E+03  0.80377588440E+02 0.  0.
          5    1    3    3  501    0 -0.20807026856E+02  0.88034858059E+01  0.58265773183E+02  0.62669163499E+02  0.47000000000E+01 0. -1.
        -13    1    4    4    0    0  0.17604161882E+03  0.50184951549E+02  0.18672013496E+03  0.26148344062E+03  0.00000000000E+00 0.  1.
         14    1    4    4    0    0  0.32071558626E+02  0.17753848532E+02 -0.94574154784E+00  0.36669857342E+02  0.00000000000E+00 0. -1.
         -5    1    5    5    0  502 -0.10497537847E+03 -0.98754761856E+02  0.77318449786E+02  0.16362324331E+03  0.47000000000E+01 0.  1.
         13    1    6    6    0    0 -0.32600299028E+02 -0.30492376763E+02  0.50072277833E+02  0.67080530296E+02  0.00000000000E+00 0. -1.
        -14    1    6    6    0    0 -0.49730473094E+02  0.52504852732E+02  0.68867303171E+02  0.99862830726E+02  0.00000000000E+00 0.  1.
</event>
<event>
12    1  0.8562501E-002  0.2194800E+03  0.7818608E-02  0.1136042E+00
         21   -1    0    0  501  502  0.00000000000E+00  0.00000000000E+00  0.95023458058E+02  0.95023458058E+02  0.00000000000E+00 0.  1.
         21   -1    0    0  502  503 -0.00000000000E+00 -0.00000000000E+00 -0.65542103927E+03  0.65542103927E+03  0.00000000000E+00 0.  1.
         -6    2    1    2    0  503 -0.10896690128E+03  0.61030763423E+02 -0.46658242179E+03  0.51175485287E+03  0.16910154776E+03 0.  0.
        -24    2    3    3    0    0 -0.26114613472E+02  0.40989577692E+02 -0.36665193596E+03  0.38032295903E+03  0.88599054760E+02 0.  0.
          6    2    1    2  501    0  0.10896690128E+03 -0.61030763423E+02 -0.93815159424E+02  0.23868964446E+03  0.18047970129E+03 0.  0.
         24    2    5    5    0    0  0.59054773952E+02 -0.78978948648E+02 -0.12365340725E+03  0.17765056812E+03  0.80897580745E+02 0.  0.
          5    1    5    5  501    0  0.49912127329E+02  0.17948185225E+02  0.29838247830E+02  0.61039076344E+02  0.47000000000E+01 0. -1.
        -11    1    6    6    0    0  0.26311166121E+02 -0.22450513369E+02  0.34324576873E+01  0.34757513993E+02  0.00000000000E+00 0.  1.
         12    1    6    6    0    0  0.32743607831E+02 -0.56528435279E+02 -0.12708586494E+03  0.14289305412E+03  0.00000000000E+00 0. -1.
         -5    1    3    3    0  503 -0.82852287810E+02  0.20041185731E+02 -0.99930485834E+02  0.13143189385E+03  0.47000000000E+01 0.  1.
         13    1    4    4    0    0  0.28321130959E+02  0.40206144161E+01 -0.18334718136E+03  0.18556519262E+03  0.00000000000E+00 0. -1.
        -14    1    4    4    0    0 -0.54435744432E+02  0.36968963276E+02 -0.18330475460E+03  0.19475776640E+03  0.00000000000E+00 0.  1.
</event>
<event>
12    1  0.8562501E-002  0.2099976E+03  0.7818608E-02  0.1141600E+00
         21   -1    0    0  503  502  0.00000000000E+00  0.00000000000E+00  0.65570477875E+02  0.65570477875E+02  0.00000000000E+00 0.  1.
         21   -1    0    0  501  503 -0.00000000000E+00 -0.00000000000E+00 -0.77065517888E+03  0.77065517888E+03  0.00000000000E+00 0. -1.
          6    2    1    2  501    0 -0.74137051603E+02  0.95339532099E+02 -0.50224515300E+03  0.54437964280E+03  0.17179369308E+03 0.  0.
         24    2    3    3    0    0 -0.11557747719E+03  0.79481023785E+02 -0.42605509847E+03  0.45608572700E+03  0.82558204075E+02 0.  0.
         -6    2    1    2    0  502  0.74137051603E+02 -0.95339532099E+02 -0.20283954801E+03  0.29184601396E+03  0.17159337058E+03 0.  0.
        -24    2    5    5    0    0  0.94316013506E+01 -0.11714228250E+03 -0.13631943290E+03  0.19640403718E+03  0.78614811463E+02 0.  0.
          5    1    3    3  501    0  0.41440425587E+02  0.15858508314E+02 -0.76190054526E+02  0.88293915801E+02  0.47000000000E+01 0. -1.
        -13    1    4    4    0    0 -0.10986626417E+03  0.57598083387E+02 -0.40998749052E+03  0.42834317737E+03  0.00000000000E+00 0.  1.
         14    1    4    4    0    0 -0.57112130203E+01  0.21882940398E+02 -0.16067607948E+02  0.27742549627E+02  0.00000000000E+00 0. -1.
         -5    1    5    5    0  502  0.64705450252E+02  0.21802750400E+02 -0.66520115109E+02  0.95441976779E+02  0.47000000000E+01 0.  1.
         11    1    6    6    0    0  0.31900385057E+02 -0.78329632644E+02 -0.12363821315E+03  0.14979844348E+03  0.00000000000E+00 0. -1.
        -12    1    6    6    0    0 -0.22468783707E+02 -0.38812649855E+02 -0.12681219748E+02  0.46605593702E+02  0.00000000000E+00 0.  1.
</event>
<event>
12    1  0.8562501E-002  0.1844363E+03  0.7818608E-02  0.1165422E+00
         21   -1    0    0  501  502  0.00000000000E+00  0.00000000000E+00  0.74260904618E+03  0.74260904618E+03  0.00000000000E+00 0. -1.
         21   -1    0    0  502  503 -0.00000000000E+00 -0.00000000000E+00 -0.45543172762E+02  0.45543172762E+02  0.00000000000E+00 0. -1.
         -6    2    1    2    0  503 -0.65973801170E+01  0.39357367422E+02  0.26692293904E+03  0.32013544796E+03  0.17218107288E+03 0.  0.
        -24    2    3    3    0    0  0.16435846192E+02  0.60833469298E+02  0.26940555655E+03  0.28819791744E+03  0.80671170101E+02 0.  0.
          6    2    1    2  501    0  0.65973801170E+01 -0.39357367422E+02  0.43014293438E+03  0.46801677099E+03  0.18006728224E+03 0.  0.
         24    2    5    5    0    0  0.59033972604E+02  0.11459346045E+02  0.32396322955E+03  0.33906657007E+03  0.79985238046E+02 0.  0.
          5    1    5    5  501    0 -0.52436592487E+02 -0.50816713466E+02  0.10617970483E+03  0.12895020092E+03  0.47000000000E+01 0. -1.
        -11    1    6    6    0    0 -0.10151066350E+02  0.21671138080E+01  0.32980088190E+01  0.10891161208E+02  0.00000000000E+00 0.  1.
         12    1    6    6    0    0  0.69185038954E+02  0.92922322368E+01  0.32066522073E+03  0.32817540886E+03  0.00000000000E+00 0. -1.
         -5    1    3    3    0  503 -0.23033226309E+02 -0.21476101876E+02 -0.24826175128E+01  0.31937530520E+02  0.47000000000E+01 0.  1.
         13    1    4    4    0    0 -0.82765994438E+01  0.34203379307E+02  0.23674240935E+03  0.23934356402E+03  0.00000000000E+00 0. -1.
        -14    1    4    4    0    0  0.24712445636E+02  0.26630089990E+02  0.32663147206E+02  0.48854353415E+02  0.00000000000E+00 0.  1.
</event>
<event>
12    1  0.8562501E-002  0.1868985E+03  0.7818608E-02  0.1161516E+00
         21   -1    0    0  501  502  0.00000000000E+00  0.00000000000E+00  0.15457848876E+03  0.15457848876E+03  0.00000000000E+00 0.  1.
         21   -1    0    0  502  503 -0.00000000000E+00 -0.00000000000E+00 -0.26498678020E+03  0.26498678020E+03  0.00000000000E+00 0.  1.
         -6    2    1    2    0  503  0.19369820862E+02 -0.66988098179E+02 -0.13678921665E+03  0.23081407692E+03  0.17234051483E+03 0.  0.
        -24    2    3    3    0    0  0.36775026894E+02 -0.33987504957E+02 -0.61192821406E+01  0.94840909949E+02  0.80310643690E+02 0.  0.
          6    2    1    2  501    0 -0.19369820862E+02  0.66988098179E+02  0.26380925212E+02  0.18875119204E+03  0.17340260673E+03 0.  0.
         24    2    5    5    0    0 -0.24128788131E+01  0.47991261009E+01 -0.46094363955E+02  0.91644221783E+02  0.79026067865E+02 0.  0.
          5    1    5    5  501    0 -0.16956942049E+02  0.62188972078E+02  0.72475289167E+02  0.97106970253E+02  0.47000000000E+01 0. -1.
        -11    1    6    6    0    0 -0.20580339871E+02  0.28710895758E+02  0.15120096490E+01  0.35357489979E+02  0.00000000000E+00 0.  1.
         12    1    6    6    0    0  0.18167461058E+02 -0.23911769657E+02 -0.47606373604E+02  0.56286731804E+02  0.00000000000E+00 0. -1.
         -5    1    3    3    0  503 -0.17405206032E+02 -0.33000593222E+02 -0.13066993451E+03  0.13597316697E+03  0.47000000000E+01 0.  1.
         13    1    4    4    0    0  0.36940806507E+01  0.19520379700E+02  0.18633746285E+02  0.27237987372E+02  0.00000000000E+00 0. -1.
        -14    1    4    4    0    0  0.33080946244E+02 -0.53507884657E+02 -0.24753028425E+02  0.67602922578E+02  0.00000000000E+00 0.  1.
</event>
<event>
12    1  0.8562501E-002  0.1793623E+03  0.7818608E-02  0.1168784E+00
         21   -1    0    0  501  502  0.00000000000E+00  0.00000000000E+00  0.12392099964E+03  0.12392099964E+03  0.00000000000E+00 0.  1.
         21   -1    0    0  502  503 -0.00000000000E+00 -0.00000000000E+00 -0.26098451587E+03  0.26098451587E+03  0.00000000000E+00 0.  1.
         -6    2    1    2    0  503  0.34225134043E+02  0.32243482541E+02 -0.45896427703E+02  0.18370349039E+03  0.17155025019E+03 0.  0.
        -24    2    3    3    0    0  0.78581021904E+01  0.51321573851E+02 -0.88951694127E+02  0.12952748183E+03  0.78544961325E+02 0.  0.
          6    2    1    2  501    0 -0.34225134043E+02 -0.32243482541E+02 -0.91167088526E+02  0.20120202512E+03  0.17308903754E+03 0.  0.
         24    2    5    5    0    0 -0.16091897520E+02 -0.34533869792E+02  0.20583035008E+02  0.87869592650E+02  0.76458267399E+02 0.  0.
          5    1    5    5  501    0 -0.18133236523E+02  0.22903872511E+01 -0.11175012353E+03  0.11333243247E+03  0.47000000000E+01 0. -1.
        -11    1    6    6    0    0 -0.44111062930E+02 -0.18749113549E+02 -0.29475643867E+01  0.48020862836E+02  0.00000000000E+00 0.  1.
         12    1    6    6    0    0  0.28019165409E+02 -0.15784756243E+02  0.23530599395E+02  0.39848729814E+02  0.00000000000E+00 0. -1.
         -5    1    3    3    0  503  0.26367031853E+02 -0.19078091310E+02  0.43055266424E+02  0.54176008561E+02  0.47000000000E+01 0.  1.
         11    1    4    4    0    0 -0.23778174334E+02  0.24975477967E+02 -0.80393469144E+02  0.87477345383E+02  0.00000000000E+00 0. -1.
        -12    1    4    4    0    0  0.31636276524E+02  0.26346095884E+02 -0.85582249832E+01  0.42050136450E+02  0.00000000000E+00 0.  1.
</event>
<event>
12    1  0.8562501E-002  0.1761754E+03  0.7818608E-02  0.1171647E+00
         21   -1    0    0  503  502  0.00000000000E+00  0.00000000000E+00  0.68530465178E+02  0.68530465178E+02  0.00000000000E+00 0.  1.
         21   -1    0    0  501  503 -0.00000000000E+00 -0.00000000000E+00 -0.53008435412E+03  0.53008435412E+03  0.00000000000E+00 0.  1.
          6    2    1    2  501    0  0.31970488862E+02  0.21864607564E+02 -0.34546949582E+03  0.38763294445E+03  0.17149330558E+03 0.  0.
         24    2    3    3    0    0  0.83176243559E+02 -0.34136249872E+01 -0.19644046081E+03  0.22796841605E+03  0.80316895745E+02 0.  0.
         -6    2    1    2    0  502 -0.31970488862E+02 -0.21864607564E+02 -0.11608439312E+03  0.21098187485E+03  0.17186503998E+03 0.  0.
        -24    2    5    5    0    0 -0.20539822687E+02 -0.61104729460E+02 -0.13164932629E+03  0.16699546285E+03  0.80001670117E+02 0.  0.
          5    1    3    3  501    0 -0.51205754698E+02  0.25278232551E+02 -0.14902903501E+03  0.15966452840E+03  0.47000000000E+01 0. -1.
        -11    1    4    4    0    0  0.24448929552E+01 -0.25491978743E+02 -0.83874307040E+02  0.87696738042E+02  0.00000000000E+00 0.  1.
         12    1    4    4    0    0  0.80731350604E+02  0.22078353756E+02 -0.11256615377E+03  0.14027167800E+03  0.00000000000E+00 0. -1.
         -5    1    5    5    0  502 -0.11430666175E+02  0.39240121896E+02  0.15564933172E+02  0.43986411996E+02  0.47000000000E+01 0.  1.
         11    1    6    6    0    0 -0.22880657545E+02 -0.76508689157E+02 -0.79954546257E+02  0.11300368788E+03  0.00000000000E+00 0. -1.
        -12    1    6    6    0    0  0.23408348584E+01  0.15403959697E+02 -0.51694780036E+02  0.53991774977E+02  0.00000000000E+00 0.  1.
</event>
<event>
12    1  0.8562501E-002  0.2071817E+03  0.7818608E-02  0.1144107E+00
         21   -1    0    0  501  502  0.00000000000E+00  0.00000000000E+00  0.88111651842E+02  0.88111651842E+02  0.00000000000E+00 0.  1.
         21   -1    0    0  502  503 -0.00000000000E+00 -0.00000000000E+00 -0.55004298815E+03  0.55004298815E+03  0.00000000000E+00 0. -1.
         -6    2    1    2    0  503 -0.43115500403E+01 -0.11317112720E+03 -0.34099355080E+03  0.39825836955E+03  0.17177553297E+03 0.  0.
        -24    2    3    3    0    0  0.26537581346E+02 -0.13944361683E+03 -0.29239479262E+03  0.33480884696E+03  0.80333578034E+02 0.  0.
          6    2    1    2  501    0  0.43115500403E+01  0.11317112720E+03 -0.12093778550E+03  0.23989627045E+03  0.17348769154E+03 0.  0.
         24    2    5    5    0    0  0.30551984742E+02  0.13568423934E+03 -0.63382414608E+02  0.17259016856E+03  0.80164825359E+02 0.  0.
          5    1    5    5  501    0 -0.26240434702E+02 -0.22513112145E+02 -0.57555370896E+02  0.67306101884E+02  0.47000000000E+01 0. -1.
        -13    1    6    6    0    0  0.52488990900E+02  0.52454794661E+02 -0.34173704866E+02  0.81697256704E+02  0.00000000000E+00 0.  1.
         14    1    6    6    0    0 -0.21937006158E+02  0.83229444683E+02 -0.29208709742E+02  0.90892911859E+02  0.00000000000E+00 0. -1.
         -5    1    3    3    0  503 -0.30849131386E+02  0.26272489626E+02 -0.48598758187E+02  0.63449522581E+02  0.47000000000E+01 0.  1.
         11    1    4    4    0    0 -0.15733073037E+02 -0.22243536693E+02 -0.15913515777E+02  0.31552250256E+02  0.00000000000E+00 0. -1.
        -12    1    4    4    0    0  0.42270654383E+02 -0.11720008013E+03 -0.27648127684E+03  0.30325659671E+03  0.00000000000E+00 0.  1.
</event>
<event>
12    1  0.8562501E-002  0.2379017E+03  0.7818608E-02  0.1121340E+00
         21   -1    0    0  503  502  0.00000000000E+00  0.00000000000E+00  0.16489752036E+04  0.16489752036E+04  0.00000000000E+00 0. -1.
         21   -1    0    0  501  503 -0.00000000000E+00 -0.00000000000E+00 -0.10353491004E+03  0.10353491004E+03  0.00000000000E+00 0.  1.
          6    2    1    2  501    0 -0.16073480336E+03  0.29518881719E+02  0.56108037700E+02  0.24442857515E+03  0.17288775279E+03 0.  0.
         24    2    3    3    0    0 -0.21012992967E+02 -0.26516024484E+01  0.57999327193E+02  0.10096153598E+03  0.79879490001E+02 0.  0.
         -6    2    1    2    0  502  0.16073480336E+03 -0.29518881719E+02  0.14893322558E+04  0.15080815385E+04  0.17173327281E+03 0.  0.
        -24    2    5    5    0    0  0.44605814953E+02 -0.73348704465E+02  0.62609318186E+03  0.63595151137E+03  0.71217562959E+02 0.  0.
          5    1    3    3  501    0 -0.13972181040E+03  0.32170484167E+02 -0.18912894930E+01  0.14346703917E+03  0.47000000000E+01 0. -1.
        -11    1    4    4    0    0 -0.26951353036E+02  0.35192300644E+02  0.30517597264E+02  0.53816328357E+02  0.00000000000E+00 0.  1.
         12    1    4    4    0    0  0.59383600697E+01 -0.37843903092E+02  0.27481729929E+02  0.47145207619E+02  0.00000000000E+00 0. -1.
         -5    1    5    5    0  502  0.11612898841E+03  0.43829822746E+02  0.86323907399E+03  0.87213002710E+03  0.47000000000E+01 0.  1.
         11    1    6    6    0    0  0.11551839430E+02 -0.98387622818E+01  0.36221919864E+03  0.36253688654E+03  0.00000000000E+00 0. -1.
        -12    1    6    6    0    0  0.33053975522E+02 -0.63509942183E+02  0.26387398321E+03  0.27341462483E+03  0.00000000000E+00 0.  1.
</event>
<event>
12    1  0.8562501E-002  0.1828474E+03  0.7818608E-02  0.1165355E+00
         21   -1    0    0  501  502  0.00000000000E+00  0.00000000000E+00  0.17858306625E+03  0.17858306625E+03  0.00000000000E+00 0. -1.
         21   -1    0    0  502  503 -0.00000000000E+00 -0.00000000000E+00 -0.39507120878E+03  0.39507120878E+03  0.00000000000E+00 0. -1.
         -6    2    1    2    0  503 -0.15231575691E+02 -0.58449425000E+02 -0.31672929532E+03  0.36513219076E+03  0.17133515120E+03 0.  0.
        -24    2    3    3    0    0  0.55462683925E+02 -0.49376212182E+02 -0.21040258525E+03  0.23704057976E+03  0.80030425075E+02 0.  0.
          6    2    1    2  501    0  0.15231575691E+02  0.58449425000E+02  0.10024115279E+03  0.20852208427E+03  0.17258283441E+03 0.  0.
         24    2    5    5    0    0 -0.25084591321E+02  0.18232878632E+02 -0.82090414068E+01  0.85940280785E+02  0.79728720770E+02 0.  0.
          5    1    5    5  501    0  0.40316167012E+02  0.40216546368E+02  0.10845019420E+03  0.12258180348E+03  0.47000000000E+01 0. -1.
        -13    1    6    6    0    0 -0.58377231330E+01  0.17843327646E+02 -0.42585737925E+02  0.46540395652E+02  0.00000000000E+00 0.  1.
         14    1    6    6    0    0 -0.19246868188E+02  0.38955098621E+00  0.34376696518E+02  0.39399885133E+02  0.00000000000E+00 0. -1.
         -5    1    3    3    0  503 -0.70694259616E+02 -0.90732128178E+01 -0.10632671008E+03  0.12809161100E+03  0.47000000000E+01 0.  1.
         11    1    4    4    0    0  0.65667976483E+02 -0.22997915901E+02 -0.92237093652E+02  0.11553730444E+03  0.00000000000E+00 0. -1.
        -12    1    4    4    0    0 -0.10205292557E+02 -0.26378296281E+02 -0.11816549160E+03  0.12150327533E+03  0.00000000000E+00 0.  1.
</event>
<event>
12    1  0.8562501E-002  0.2735013E+03  0.7818608E-02  0.1099374E+00
         21   -1    0    0  501  502  0.00000000000E+00  0.00000000000E+00  0.10164941141E+04  0.10164941141E+04  0.00000000000E+00 0.  1.
         21   -1    0    0  502  503 -0.00000000000E+00 -0.00000000000E+00 -0.11789841853E+03  0.11789841853E+03  0.00000000000E+00 0. -1.
         -6    2    1    2    0  503 -0.13067041905E+03 -0.16715284372E+03  0.10066805707E+03  0.29089298818E+03  0.17166782250E+03 0.  0.
        -24    2    3    3    0    0 -0.12451686681E+03 -0.19401226714E+03  0.97892632492E+02  0.26280228130E+03  0.79604407152E+02 0.  0.
          6    2    1    2  501    0  0.13067041905E+03  0.16715284372E+03  0.79792763855E+03  0.84349954450E+03  0.17259239161E+03 0.  0.
         24    2    5    5    0    0  0.42522610602E+02  0.97352224115E+02  0.24053994995E+03  0.27486496234E+03  0.80035317500E+02 0.  0.
          5    1    5    5  501    0  0.88147808450E+02  0.69800619602E+02  0.55738768860E+03  0.56863458217E+03  0.47000000000E+01 0. -1.
        -13    1    6    6    0    0  0.50746124973E+02  0.10570832094E+03  0.23323437709E+03  0.26105113095E+03  0.00000000000E+00 0.  1.
         14    1    6    6    0    0 -0.82235143704E+01 -0.83560968238E+01  0.73055728573E+01  0.13813831384E+02  0.00000000000E+00 0. -1.
         -5    1    3    3    0  503 -0.61535522392E+01  0.26859423420E+02  0.27754245759E+01  0.28090706883E+02  0.47000000000E+01 0.  1.
         13    1    4    4    0    0 -0.30376381876E+02 -0.99173815954E+02  0.13110568612E+02  0.10454691462E+03  0.00000000000E+00 0. -1.
        -14    1    4    4    0    0 -0.94140484938E+02 -0.94838451184E+02  0.84782063880E+02  0.15825536668E+03  0.00000000000E+00 0.  1.
</event>
<event>
12    1  0.8562501E-002  0.2415600E+03  0.7818608E-02  0.1118849E+00
         21   -1    0    0  501  502  0.00000000000E+00  0.00000000000E+00  0.61825177670E+02  0.61825177670E+02  0.00000000000E+00 0. -1.
         21   -1    0    0  502  503 -0.00000000000E+00 -0.00000000000E+00 -0.10086112174E+04  0.10086112174E+04  0.00000000000E+00 0. -1.
         -6    2    1    2    0  503  0.31028307239E+02  0.16631859613E+03 -0.61078940509E+03  0.65661883715E+03  0.17163906505E+03 0.  0.
        -24    2    3    3    0    0 -0.12122116669E+02  0.38654911289E+02 -0.13535756474E+03  0.16243516650E+03  0.80139659995E+02 0.  0.
          6    2    1    2  501    0 -0.31028307239E+02 -0.16631859613E+03 -0.33599663462E+03  0.41381755791E+03  0.17241404087E+03 0.  0.
         24    2    5    5    0    0  0.32303986638E+02 -0.48216354715E+02 -0.19797765121E+03  0.22138458605E+03  0.80297074345E+02 0.  0.
          5    1    5    5  501    0 -0.63332293878E+02 -0.11810224142E+03 -0.13801898341E+03  0.19243297186E+03  0.47000000000E+01 0. -1.
        -13    1    6    6    0    0  0.52517890480E+02 -0.46115912042E+02 -0.18370387592E+03  0.19655004501E+03  0.00000000000E+00 0.  1.
         14    1    6    6    0    0 -0.20213903841E+02 -0.21004426731E+01 -0.14273775288E+02  0.24834541044E+02  0.00000000000E+00 0. -1.
         -5    1    3    3    0  503  0.43150423908E+02  0.12766368484E+03 -0.47543184036E+03  0.49418367065E+03  0.47000000000E+01 0.  1.
         11    1    4    4    0    0 -0.18892835372E+02  0.61313665912E+02 -0.11270852444E+03  0.12969007802E+03  0.00000000000E+00 0. -1.
        -12    1    4    4    0    0  0.67707187037E+01 -0.22658754623E+02 -0.22649040293E+02  0.32745088471E+02  0.00000000000E+00 0.  1.
</event>
<event>
12    1  0.8562501E-002  0.2608522E+03  0.7818608E-02  0.1106697E+00
         21   -1    0    0  503  502  0.00000000000E+00  0.00000000000E+00  0.12701603944E+04  0.12701603944E+04  0.00000000000E+00 0.  1.
         21   -1    0    0  501  503 -0.00000000000E+00 -0.00000000000E+00 -0.12900152540E+03  0.12900152540E+03  0.00000000000E+00 0. -1.
          6    2    1    2  501    0  0.16489309089E+03  0.10369071187E+03  0.35114609766E+02  0.26277387317E+03  0.17284553060E+03 0.  0.
         24    2    3    3    0    0  0.21724512841E+02  0.77850154659E+02  0.30175647236E+02  0.11713232865E+03  0.79226332052E+02 0.  0.
         -6    2    1    2    0  502 -0.16489309089E+03 -0.10369071187E+03  0.11060442592E+04  0.11363880466E+04  0.17350041501E+03 0.  0.
        -24    2    5    5    0    0 -0.48356221520E+02 -0.45323449255E+02  0.74736382498E+03  0.75473201933E+03  0.81701865908E+02 0.  0.
          5    1    3    3  501    0  0.14316857805E+03  0.25840557207E+02  0.49389625301E+01  0.14564154452E+03  0.47000000000E+01 0. -1.
        -11    1    4    4    0    0  0.17026255003E+02  0.16564558495E+02 -0.25035097388E+02  0.34511361300E+02  0.00000000000E+00 0.  1.
         12    1    4    4    0    0  0.46982578381E+01  0.61285596164E+02  0.55210744624E+02  0.82620967350E+02  0.00000000000E+00 0. -1.
         -5    1    5    5    0  502 -0.11653686937E+03 -0.58367262611E+02  0.35868043423E+03  0.38165602730E+03  0.47000000000E+01 0.  1.
         13    1    6    6    0    0 -0.67080719149E+02 -0.13729062142E+02  0.49023984886E+03  0.49499840347E+03  0.00000000000E+00 0. -1.
        -14    1    6    6    0    0  0.18724497628E+02 -0.31594387113E+02  0.25712397612E+03  0.25973361585E+03  0.00000000000E+00 0.  1.
</event>
<event>
12    1  0.8562501E-002  0.2550409E+03  0.7818608E-02  0.1110180E+00
         21   -1    0    0  503  502  0.00000000000E+00  0.00000000000E+00  0.12036907955E+03  0.12036907955E+03  0.00000000000E+00 0.  1.
         21   -1    0    0  501  503 -0.00000000000E+00 -0.00000000000E+00 -0.56665676677E+03  0.56665676677E+03  0.00000000000E+00 0. -1.
          6    2    1    2  501    0 -0.18907908057E+03 -0.88450054688E+01 -0.29743461902E+03  0.39172411433E+03  0.17073750709E+03 0.  0.
         24    2    3    3    0    0 -0.19489581799E+03 -0.29759339647E+00 -0.19089400817E+03  0.28457989169E+03  0.80998296057E+02 0.  0.
         -6    2    1    2    0  502  0.18907908057E+03  0.88450054688E+01 -0.14885306821E+03  0.29530173199E+03  0.17092906180E+03 0.  0.
        -24    2    5    5    0    0  0.17140767999E+03 -0.39634818917E+01 -0.17721917116E+03  0.25920378823E+03  0.79897855144E+02 0.  0.
          5    1    3    3  501    0  0.58167374170E+01 -0.85474120723E+01 -0.10654061085E+03  0.10714422265E+03  0.47000000000E+01 0. -1.
        -13    1    4    4    0    0 -0.82303553738E+02  0.39108871811E+02 -0.93767531875E+02  0.13075063612E+03  0.00000000000E+00 0.  1.
         14    1    4    4    0    0 -0.11259226425E+03 -0.39406465208E+02 -0.97126476297E+02  0.15382925556E+03  0.00000000000E+00 0. -1.
         -5    1    5    5    0  502  0.17671400582E+02  0.12808487360E+02  0.28366102952E+02  0.36097943760E+02  0.47000000000E+01 0.  1.
         13    1    6    6    0    0  0.42575668810E+02 -0.36679671043E+02 -0.55047539186E+02  0.78665859258E+02  0.00000000000E+00 0. -1.
        -14    1    6    6    0    0  0.12883201118E+03  0.32716189151E+02 -0.12217163197E+03  0.18053792897E+03  0.00000000000E+00 0.  1.
</event>
<event>
12    1  0.8562501E-002  0.1908756E+03  0.7818608E-02  0.1157855E+00
         21   -1    0    0  501  502  0.00000000000E+00  0.00000000000E+00  0.89457699958E+02  0.89457699958E+02  0.00000000000E+00 0. -1.
         21   -1    0    0  502  503 -0.00000000000E+00 -0.00000000000E+00 -0.90388173847E+03  0.90388173847E+03  0.00000000000E+00 0. -1.
         -6    2    1    2    0  503  0.78252182146E+02 -0.23709267620E+02 -0.77638156663E+03  0.79950099298E+03  0.17247599073E+03 0.  0.
        -24    2    3    3    0    0  0.99999698287E+02 -0.63636603558E+02 -0.52489235867E+03  0.54389180234E+03  0.79099604906E+02 0.  0.
          6    2    1    2  501    0 -0.78252182146E+02  0.23709267620E+02 -0.38042471883E+02  0.19383844546E+03  0.17158257455E+03 0.  0.
         24    2    5    5    0    0 -0.46968240234E+02  0.25562346009E+02 -0.90856802111E+02  0.13224654340E+03  0.79841972850E+02 0.  0.
          5    1    5    5  501    0 -0.31283941912E+02 -0.18530783889E+01  0.52814330228E+02  0.61591902053E+02  0.47000000000E+01 0. -1.
        -11    1    6    6    0    0 -0.19501695669E+02  0.63387900078E+01 -0.96144219337E+02  0.98306700203E+02  0.00000000000E+00 0.  1.
         12    1    6    6    0    0 -0.27466544565E+02  0.19223556001E+02  0.52874172268E+01  0.33939843202E+02  0.00000000000E+00 0. -1.
         -5    1    3    3    0  503 -0.21747516141E+02  0.39927335937E+02 -0.25148920796E+03  0.25560919063E+03  0.47000000000E+01 0.  1.
         11    1    4    4    0    0  0.27736235279E+02 -0.48455687071E+02 -0.34412026338E+03  0.34862014862E+03  0.00000000000E+00 0. -1.
        -12    1    4    4    0    0  0.72263463008E+02 -0.15180916487E+02 -0.18077209529E+03  0.19527165372E+03  0.00000000000E+00 0.  1.
</event>
<event>
12    1  0.8562501E-002  0.1733003E+03  0.7818608E-02  0.1174529E+00
         21   -1    0    0  503  502  0.00000000000E+00  0.00000000000E+00  0.30432355815E+03  0.30432355815E+03  0.00000000000E+00 0. -1.
         21   -1    0    0  501  503 -0.00000000000E+00 -0.00000000000E+00 -0.16260379766E+03  0.16260379766E+03  0.00000000000E+00 0. -1.
          6    2    1    2  501    0  0.43812193363E+01  0.18913385587E+02 -0.75676831147E+02  0.18910311127E+03  0.17220944423E+03 0.  0.
         24    2    3    3    0    0  0.14737582280E+02 -0.54781051968E+02 -0.31238267884E+02  0.10229873186E+03  0.79189905750E+02 0.  0.
         -6    2    1    2    0  502 -0.43812193363E+01 -0.18913385587E+02  0.21739659164E+03  0.27782424454E+03  0.17189567057E+03 0.  0.
        -24    2    5    5    0    0 -0.18825057216E+02 -0.65863251354E+02  0.19884915150E+03  0.22510791041E+03  0.80251078614E+02 0.  0.
          5    1    3    3  501    0 -0.10356362944E+02  0.73694437555E+02 -0.44438563262E+02  0.86804379410E+02  0.47000000000E+01 0. -1.
        -13    1    4    4    0    0  0.25820162460E+02  0.12639732326E+02 -0.53994858895E+01  0.29250608038E+02  0.00000000000E+00 0.  1.
         14    1    4    4    0    0 -0.11082580180E+02 -0.67420784294E+02 -0.25838781995E+02  0.73048123817E+02  0.00000000000E+00 0. -1.
         -5    1    5    5    0  502  0.14443837880E+02  0.46949865767E+02  0.18547440136E+02  0.52716334127E+02  0.47000000000E+01 0.  1.
         11    1    6    6    0    0 -0.40455284356E+02 -0.50816857116E+01  0.69984472688E+02  0.80995555306E+02  0.00000000000E+00 0. -1.
        -12    1    6    6    0    0  0.21630227140E+02 -0.60781565642E+02  0.12886467882E+03  0.14411235511E+03  0.00000000000E+00 0.  1.
</event>
<event>
12    1  0.8562501E-002  0.2014928E+03  0.7818608E-02  0.1151126E+00
         21   -1    0    0  501  502  0.00000000000E+00  0.00000000000E+00  0.71705264389E+03  0.71705264389E+03  0.00000000000E+00 0. -1.
         21   -1    0    0  502  503 -0.00000000000E+00 -0.00000000000E+00 -0.73992196442E+02  0.73992196442E+02  0.00000000000E+00 0. -1.
         -6    2    1    2    0  503 -0.49264556276E+02  0.60940720087E+02  0.11936182061E+03  0.23419347169E+03  0.18563019715E+03 0.  0.
        -24    2    3    3    0    0 -0.19631727282E+02  0.10643944608E+03  0.11969847123E+03  0.17969171067E+03  0.79035602544E+02 0.  0.
          6    2    1    2  501    0  0.49264556276E+02 -0.60940720087E+02  0.52369862684E+03  0.55685136864E+03  0.17228588779E+03 0.  0.
         24    2    5    5    0    0  0.37598434474E+02  0.10979447938E+01  0.12537935621E+03  0.15353359604E+03  0.80235493344E+02 0.  0.
          5    1    5    5  501    0  0.11666121802E+02 -0.62038664881E+02  0.39831927063E+03  0.40331777260E+03  0.47000000000E+01 0. -1.
        -11    1    6    6    0    0  0.53366783663E+02  0.80222253180E+00  0.12692169997E+03  0.13768723646E+03  0.00000000000E+00 0.  1.
         12    1    6    6    0    0 -0.15768349189E+02  0.29572226201E+00 -0.15423437611E+01  0.15846359585E+02  0.00000000000E+00 0. -1.
         -5    1    3    3    0  503 -0.29632828994E+02 -0.45498725995E+02 -0.33665061996E+00  0.54501761026E+02  0.47000000000E+01 0.  1.
         11    1    4    4    0    0  0.28204833992E+01  0.26579055162E+02  0.86162520167E+02  0.90212976790E+02  0.00000000000E+00 0. -1.
        -12    1    4    4    0    0 -0.22452210681E+02  0.79860390920E+02  0.33535951061E+02  0.89478733876E+02  0.00000000000E+00 0.  1.
</event>
<event>
12    1  0.8562501E-002  0.1764043E+03  0.7818608E-02  0.1171421E+00
         21   -1    0    0  501  502  0.00000000000E+00  0.00000000000E+00  0.67995334925E+03  0.67995334925E+03  0.00000000000E+00 0. -1.
         21   -1    0    0  502  503 -0.00000000000E+00 -0.00000000000E+00 -0.17213069690E+03  0.17213069690E+03  0.00000000000E+00 0. -1.
         -6    2    1    2    0  503  0.22784330098E+02 -0.34283241311E+02 -0.11119357877E+03  0.20852452277E+03  0.17153424819E+03 0.  0.
        -24    2    3    3    0    0  0.70146351989E+02  0.15341158507E+02 -0.81360056250E+02  0.13357206289E+03  0.77885655876E+02 0.  0.
          6    2    1    2  501    0 -0.22784330098E+02  0.34283241311E+02  0.61901623112E+03  0.64355952339E+03  0.17115285398E+03 0.  0.
         24    2    5    5    0    0 -0.46792704052E+02 -0.16537641058E+02  0.52794793052E+03  0.53643954636E+03  0.81088339710E+02 0.  0.
          5    1    5    5  501    0  0.24008373955E+02  0.50820882368E+02  0.91068300604E+02  0.10711997703E+03  0.47000000000E+01 0. -1.
        -11    1    6    6    0    0 -0.57824382791E+01 -0.16252002508E+02  0.18316534367E+02  0.25160675850E+02  0.00000000000E+00 0.  1.
         12    1    6    6    0    0 -0.41010265773E+02 -0.28563854932E+00  0.50963139615E+03  0.51127887051E+03  0.00000000000E+00 0. -1.
         -5    1    3    3    0  503 -0.47362021891E+02 -0.49624399818E+02 -0.29833522519E+02  0.74952459872E+02  0.47000000000E+01 0.  1.
         11    1    4    4    0    0  0.71470872437E+02 -0.16582632171E+02 -0.63098754240E+02  0.96770460799E+02  0.00000000000E+00 0. -1.
        -12    1    4    4    0    0 -0.13245204483E+01  0.31923790678E+02 -0.18261302010E+02  0.36801602095E+02  0.00000000000E+00 0.  1.
</event>
<event>
12    1  0.8562501E-002  0.1955916E+03  0.7818608E-02  0.1153700E+00
         21   -1    0    0  501  502  0.00000000000E+00  0.00000000000E+00  0.18019706548E+03  0.18019706548E+03  0.00000000000E+00 0. -1.
         21   -1    0    0  502  503 -0.00000000000E+00 -0.00000000000E+00 -0.21500082134E+03  0.21500082134E+03  0.00000000000E+00 0.  1.
         -6    2    1    2    0  503 -0.68191085381E+02  0.62872095474E+02 -0.43122732198E+02  0.20028890301E+03  0.17220090047E+03 0.  0.
        -24    2    3    3    0    0 -0.10658607363E+03  0.77129718787E+02 -0.32314561098E+02  0.15767011012E+03  0.80660077821E+02 0.  0.
          6    2    1    2  501    0  0.68191085381E+02 -0.62872095474E+02  0.83189763361E+01  0.19490898381E+03  0.17122319378E+03 0.  0.
         24    2    5    5    0    0  0.14113623839E+02 -0.10099649344E+03 -0.56718094661E+01  0.12711758572E+03  0.75678432286E+02 0.  0.
          5    1    5    5  501    0  0.54077461542E+02  0.38124397962E+02  0.13990785802E+02  0.67791398084E+02  0.47000000000E+01 0. -1.
        -11    1    6    6    0    0  0.27647640489E+02 -0.84243001989E+02 -0.30948288206E+02  0.93909914022E+02  0.00000000000E+00 0.  1.
         12    1    6    6    0    0 -0.13534016650E+02 -0.16753491447E+02  0.25276478740E+02  0.33207671701E+02  0.00000000000E+00 0. -1.
         -5    1    3    3    0  503  0.38394988247E+02 -0.14257623313E+02 -0.10808171101E+02  0.42618792892E+02  0.47000000000E+01 0.  1.
         13    1    4    4    0    0 -0.11487119592E+03  0.50399641554E+02 -0.19719669972E+02  0.12698181328E+03  0.00000000000E+00 0. -1.
        -14    1    4    4    0    0  0.82851222899E+01  0.26730077233E+02 -0.12594891126E+02  0.30688296837E+02  0.00000000000E+00 0.  1.
</event>
<event>
12    1  0.8562501E-002  0.2025170E+03  0.7818608E-02  0.1148393E+00
         21   -1    0    0  503  502  0.00000000000E+00  0.00000000000E+00  0.72972817061E+02  0.72972817061E+02  0.00000000000E+00 0. -1.
         21   -1    0    0  501  503 -0.00000000000E+00 -0.00000000000E+00 -0.55362550399E+03  0.55362550399E+03  0.00000000000E+00 0. -1.
          6    2    1    2  501    0  0.96767735641E+02 -0.40736215382E+02 -0.22120508639E+03  0.29746885736E+03  0.16891594640E+03 0.  0.
         24    2    3    3    0    0 -0.11976159986E+02 -0.74421548838E+01 -0.61808163942E+02  0.10160360218E+03  0.79399173604E+02 0.  0.
         -6    2    1    2    0  502 -0.96767735641E+02  0.40736215382E+02 -0.25944760054E+03  0.32912946369E+03  0.17317538087E+03 0.  0.
        -24    2    5    5    0    0 -0.79154455048E+02 -0.34408166582E+02 -0.11542140484E+03  0.16565915800E+03  0.81679289013E+02 0.  0.
          5    1    3    3  501    0  0.10874389563E+03 -0.33294060498E+02 -0.15939692245E+03  0.19586525518E+03  0.47000000000E+01 0. -1.
        -11    1    4    4    0    0  0.12693914182E+02  0.17320126874E+02 -0.63071418913E+02  0.66626767413E+02  0.00000000000E+00 0.  1.
         12    1    4    4    0    0 -0.24670074168E+02 -0.24762281758E+02  0.12632549704E+01  0.34976834769E+02  0.00000000000E+00 0. -1.
         -5    1    5    5    0  502 -0.17613280593E+02  0.75144381964E+02 -0.14402619571E+03  0.16347030569E+03  0.47000000000E+01 0.  1.
         13    1    6    6    0    0 -0.22871464474E+01  0.22285814107E+02 -0.14390075347E+02  0.26626355698E+02  0.00000000000E+00 0. -1.
        -14    1    6    6    0    0 -0.76867308601E+02 -0.56693980688E+02 -0.10103132949E+03  0.13903280230E+03  0.00000000000E+00 0.  1.
</event>
<event>
12    1  0.8562501E-002  0.2046295E+03  0.7818608E-02  0.1145935E+00
         21   -1    0    0  501  502  0.00000000000E+00  0.00000000000E+00  0.29822450198E+03  0.29822450198E+03  0.00000000000E+00 0. -1.
         21   -1    0    0  502  503 -0.00000000000E+00 -0.00000000000E+00 -0.14852673502E+03  0.14852673502E+03  0.00000000000E+00 0. -1.
         -6    2    1    2    0  503 -0.52493102573E+02 -0.10188602424E+03  0.22192910379E+02  0.20582942637E+03  0.16951973258E+03 0.  0.
        -24    2    3    3    0    0 -0.11584769730E+02 -0.13101418728E+03  0.22841187770E+02  0.15538686654E+03  0.79526311854E+02 0.  0.
          6    2    1    2  501    0  0.52493102573E+02  0.10188602424E+03  0.12750485657E+03  0.24092181063E+03  0.16926175775E+03 0.  0.
         24    2    5    5    0    0  0.31382117102E+02  0.13820987572E+03  0.99696017810E+02  0.19032025525E+03  0.78712747197E+02 0.  0.
          5    1    5    5  501    0  0.21110985471E+02 -0.36323851479E+02  0.27808838761E+02  0.50601555382E+02  0.47000000000E+01 0. -1.
        -13    1    6    6    0    0 -0.24208530473E+02  0.70317104645E+02  0.45163803643E+02  0.87007570434E+02  0.00000000000E+00 0.  1.
         14    1    6    6    0    0  0.55590647575E+02  0.67892771073E+02  0.54532214167E+02  0.10331268482E+03  0.00000000000E+00 0. -1.
         -5    1    3    3    0  503 -0.40908332843E+02  0.29128163041E+02 -0.64827739081E+00  0.50442559825E+02  0.47000000000E+01 0.  1.
         11    1    4    4    0    0 -0.27489563295E+02 -0.92967376037E+02 -0.16561617525E+02  0.98350883434E+02  0.00000000000E+00 0. -1.
        -12    1    4    4    0    0  0.15904793565E+02 -0.38046811243E+02  0.39402805295E+02  0.57035983109E+02  0.00000000000E+00 0.  1.
</event>
<event>
12    1  0.8562501E-002  0.2937339E+03  0.7818608E-02  0.1088433E+00
         21   -1    0    0  503  502  0.00000000000E+00  0.00000000000E+00  0.12506393298E+03  0.12506393298E+03  0.00000000000E+00 0.  1.
         21   -1    0    0  501  503 -0.00000000000E+00 -0.00000000000E+00 -0.75598266870E+03  0.75598266870E+03  0.00000000000E+00 0.  1.
          6    2    1    2  501    0  0.13996972235E+03 -0.19217575983E+03 -0.44608796394E+03  0.53411053731E+03  0.17250086565E+03 0.  0.
         24    2    3    3    0    0  0.11756376610E+03 -0.21356554657E+03 -0.35535116990E+03  0.43811675811E+03  0.78995936647E+02 0.  0.
         -6    2    1    2    0  502 -0.13996972235E+03  0.19217575983E+03 -0.18483077177E+03  0.34693606437E+03  0.17227644275E+03 0.  0.
        -24    2    5    5    0    0 -0.11239990186E+03  0.80727855156E+02 -0.45329706382E+02  0.16620596808E+03  0.80118144079E+02 0.  0.
          5    1    3    3  501    0  0.22405956246E+02  0.21389786739E+02 -0.90736794043E+02  0.95993779201E+02  0.47000000000E+01 0. -1.
        -11    1    4    4    0    0  0.51121807236E+01 -0.85582688998E+02 -0.11166684544E+03  0.14078357652E+03  0.00000000000E+00 0.  1.
         12    1    4    4    0    0  0.11245158538E+03 -0.12798285757E+03 -0.24368432446E+03  0.29733318158E+03  0.00000000000E+00 0. -1.
         -5    1    5    5    0  502 -0.27569820490E+02  0.11144790467E+03 -0.13950106539E+03  0.18073009629E+03  0.47000000000E+01 0.  1.
         11    1    6    6    0    0 -0.38869230493E+01 -0.14495803228E+02 -0.83543230394E+01  0.17176472148E+02  0.00000000000E+00 0. -1.
        -12    1    6    6    0    0 -0.10851297881E+03  0.95223658384E+02 -0.36975383342E+02  0.14902949594E+03  0.00000000000E+00 0.  1.
</event>
<event>
12    1  0.8562501E-002  0.2356758E+03  0.7818608E-02  0.1123794E+00
         21   -1    0    0  503  502  0.00000000000E+00  0.00000000000E+00  0.43390333838E+03  0.43390333838E+03  0.00000000000E+00 0. -1.
         21   -1    0    0  501  503 -0.00000000000E+00 -0.00000000000E+00 -0.67166414219E+03  0.67166414219E+03  0.00000000000E+00 0. -1.
          6    2    1    2  501    0 -0.13955931530E+03  0.83298218322E+02 -0.61744833800E+03  0.65868301627E+03  0.16188103707E+03 0.  0.
         24    2    3    3    0    0 -0.82953695454E+02  0.34215151506E+02 -0.52962669968E+03  0.54314915196E+03  0.80340326581E+02 0.  0.
         -6    2    1    2    0  502  0.13955931530E+03 -0.83298218322E+02  0.37968753419E+03  0.44688446430E+03  0.17066840700E+03 0.  0.
        -24    2    5    5    0    0  0.72752441686E+02 -0.12780637020E+02  0.30596820095E+03  0.32484956057E+03  0.80339495606E+02 0.  0.
          5    1    3    3  501    0 -0.56605619847E+02  0.49083066816E+02 -0.87821638321E+02  0.11553386432E+03  0.47000000000E+01 0. -1.
        -11    1    4    4    0    0 -0.69791712117E+02 -0.14233613031E+01 -0.21058558735E+03  0.22185400297E+03  0.00000000000E+00 0.  1.
         12    1    4    4    0    0 -0.13161983337E+02  0.35638512809E+02 -0.31904111233E+03  0.32129514898E+03  0.00000000000E+00 0. -1.
         -5    1    5    5    0  502  0.66806873614E+02 -0.70517581302E+02  0.73719333243E+02  0.12203490373E+03  0.47000000000E+01 0.  1.
         11    1    6    6    0    0 -0.68533606962E+01 -0.19691386619E+02  0.12905178954E+03  0.13072522191E+03  0.00000000000E+00 0. -1.
        -12    1    6    6    0    0  0.79605802383E+02  0.69107495994E+01  0.17691641140E+03  0.19412433865E+03  0.00000000000E+00 0.  1.
</event>
<event>
12    1  0.8562501E-002  0.2793158E+03  0.7818608E-02  0.1096947E+00
         21   -1    0    0  501  502  0.00000000000E+00  0.00000000000E+00  0.24630119069E+03  0.24630119069E+03  0.00000000000E+00 0. -1.
         21   -1    0    0  502  503 -0.00000000000E+00 -0.00000000000E+00 -0.35682482760E+03  0.35682482760E+03  0.00000000000E+00 0. -1.
         -6    2    1    2    0  503  0.42693394278E+02  0.21098985965E+03 -0.16444185426E+03  0.31865369692E+03  0.16780824872E+03 0.  0.
        -24    2    3    3    0    0  0.68803477732E+02  0.15603063439E+03 -0.59388892633E+02  0.19716103193E+03  0.79157782491E+02 0.  0.
          6    2    1    2  501    0 -0.42693394278E+02 -0.21098985965E+03  0.53918217347E+02  0.28447232136E+03  0.17798281003E+03 0.  0.
         24    2    5    5    0    0  0.41102960992E+02 -0.65848280387E+02  0.21894578818E+02  0.11378104855E+03  0.80257741034E+02 0.  0.
          5    1    5    5  501    0 -0.83796355270E+02 -0.14514157927E+03  0.32023638529E+02  0.17069127281E+03  0.47000000000E+01 0. -1.
        -11    1    6    6    0    0  0.33151794902E+02 -0.37874068936E+02 -0.26829399202E+02  0.57037735443E+02  0.00000000000E+00 0.  1.
         12    1    6    6    0    0  0.79511660900E+01 -0.27974211451E+02  0.48723978020E+02  0.56743313110E+02  0.00000000000E+00 0. -1.
         -5    1    3    3    0  503 -0.26110083454E+02  0.54959225267E+02 -0.10505296163E+03  0.12149266499E+03  0.47000000000E+01 0.  1.
         13    1    4    4    0    0  0.49886557294E+02  0.51537871840E+02  0.67708783646E+01  0.72046274201E+02  0.00000000000E+00 0. -1.
        -14    1    4    4    0    0  0.18916920439E+02  0.10449276255E+03 -0.66159770997E+02  0.12511475773E+03  0.00000000000E+00 0.  1.
</event>
<event>
12    1  0.8562501E-002  0.2099788E+03  0.7818608E-02  0.1141593E+00
         21   -1    0    0  501  502  0.00000000000E+00  0.00000000000E+00  0.44503252462E+03  0.44503252462E+03  0.00000000000E+00 0. -1.
         21   -1    0    0  502  503 -0.00000000000E+00 -0.00000000000E+00 -0.11793804886E+03  0.11793804886E+03  0.00000000000E+00 0. -1.
         -6    2    1    2    0  503 -0.80927573744E+02  0.89423354883E+02  0.50914702574E+02  0.21606339538E+03  0.17188739132E+03 0.  0.
        -24    2    3    3    0    0 -0.16829719166E+02  0.11354046376E+03  0.20796805025E+02  0.14110108715E+03  0.79387236623E+02 0.  0.
          6    2    1    2  501    0  0.80927573744E+02 -0.89423354883E+02  0.27617977319E+03  0.34690717810E+03  0.17182408011E+03 0.  0.
         24    2    5    5    0    0  0.23991098553E+01  0.17855361590E+02  0.13926328749E+03  0.15600496044E+03  0.67961126942E+02 0.  0.
          5    1    5    5  501    0  0.78528463889E+02 -0.10727871647E+03  0.13691648570E+03  0.19090221766E+03  0.47000000000E+01 0. -1.
        -13    1    6    6    0    0 -0.10115570806E+02  0.86796524961E+01  0.13984229679E+03  0.14047608021E+03  0.00000000000E+00 0.  1.
         14    1    6    6    0    0  0.12514680661E+02  0.91757090935E+01 -0.57900930354E+00  0.15528880230E+02  0.00000000000E+00 0. -1.
         -5    1    3    3    0  503 -0.64097854578E+02 -0.24117108877E+02  0.30117897549E+02  0.74962308228E+02  0.47000000000E+01 0.  1.
         13    1    4    4    0    0 -0.48498775905E+02  0.77574737137E+02  0.16758895106E+02  0.93009847174E+02  0.00000000000E+00 0. -1.
        -14    1    4    4    0    0  0.31669056739E+02  0.35965726623E+02  0.40379099193E+01  0.48091239980E+02  0.00000000000E+00 0.  1.
</event>
<event>
12    1  0.8562501E-002  0.1976921E+03  0.7818608E-02  0.1151992E+00
         21   -1    0    0  503  502  0.00000000000E+00  0.00000000000E+00  0.10559359470E+04  0.10559359470E+04  0.00000000000E+00 0.  1.
         21   -1    0    0  501  503 -0.00000000000E+00 -0.00000000000E+00 -0.39163367915E+02  0.39163367915E+02  0.00000000000E+00 0. -1.
          6    2    1    2  501    0 -0.44893081685E+02  0.87894714604E+02  0.37107345081E+03  0.41981453279E+03  0.16972880253E+03 0.  0.
         24    2    3    3    0    0 -0.53640057192E+02  0.12265639483E+03  0.32876138710E+03  0.36416127836E+03  0.81286776805E+02 0.  0.
         -6    2    1    2    0  502  0.44893081685E+02 -0.87894714604E+02  0.64569912828E+03  0.67528478213E+03  0.17129303276E+03 0.  0.
        -24    2    5    5    0    0 -0.26887014808E+02 -0.67099306727E+01  0.28057768091E+03  0.29439226090E+03  0.84705569597E+02 0.  0.
          5    1    3    3  501    0  0.87469755071E+01 -0.34761680231E+02  0.42312063715E+02  0.55653254432E+02  0.47000000000E+01 0. -1.
        -13    1    4    4    0    0 -0.36982580685E+02  0.82706861688E+02  0.29690077473E+03  0.31041618238E+03  0.00000000000E+00 0.  1.
         14    1    4    4    0    0 -0.16657476506E+02  0.39949533147E+02  0.31860612362E+02  0.53745095983E+02  0.00000000000E+00 0. -1.
         -5    1    5    5    0  502  0.71780096493E+02 -0.81184783931E+02  0.36512144738E+03  0.38089252123E+03  0.47000000000E+01 0.  1.
         13    1    6    6    0    0  0.26683196264E+01 -0.16926674384E+02  0.61763753653E+01  0.18214824950E+02  0.00000000000E+00 0. -1.
        -14    1    6    6    0    0 -0.29555334435E+02  0.10216743711E+02  0.27440130554E+03  0.27617743595E+03  0.00000000000E+00 0.  1.
</event>
<event>
12    1  0.8562501E-002  0.2396307E+03  0.7818608E-02  0.1120391E+00
         21   -1    0    0  501  502  0.00000000000E+00  0.00000000000E+00  0.31938007064E+03  0.31938007064E+03  0.00000000000E+00 0. -1.
         21   -1    0    0  502  503 -0.00000000000E+00 -0.00000000000E+00 -0.17934616070E+03  0.17934616070E+03  0.00000000000E+00 0. -1.
         -6    2    1    2    0  503 -0.84706727481E+02 -0.14176144060E+03  0.49963532116E+02  0.24272707707E+03  0.17072944585E+03 0.  0.
        -24    2    3    3    0    0 -0.76003306257E+02 -0.15847495788E+03  0.82048759305E+02  0.20522183738E+03  0.67031252394E+02 0.  0.
          6    2    1    2  501    0  0.84706727481E+02  0.14176144060E+03  0.90070377828E+02  0.25599915427E+03  0.17364146482E+03 0.  0.
         24    2    5    5    0    0  0.16822179003E+02  0.49714602646E+02  0.10274425572E+03  0.14083123565E+03  0.80762165824E+02 0.  0.
          5    1    5    5  501    0  0.67884548478E+02  0.92046837956E+02 -0.12673877889E+02  0.11516791863E+03  0.47000000000E+01 0. -1.
        -13    1    6    6    0    0  0.27124735911E+02  0.11741660228E+02 -0.13105393549E+01  0.29586067608E+02  0.00000000000E+00 0.  1.
         14    1    6    6    0    0 -0.10302556908E+02  0.37972942419E+02  0.10405479507E+03  0.11124516804E+03  0.00000000000E+00 0. -1.
         -5    1    3    3    0  503 -0.87034212243E+01  0.16713517275E+02 -0.32085227189E+02  0.37505239694E+02  0.47000000000E+01 0.  1.
         13    1    4    4    0    0 -0.19927097395E+02 -0.42473768141E+02 -0.85825246936E+01  0.47694548125E+02  0.00000000000E+00 0. -1.
        -14    1    4    4    0    0 -0.56076208862E+02 -0.11600118974E+03  0.90631283998E+02  0.15752728925E+03  0.00000000000E+00 0.  1.
</event>
<event>
12    1  0.8562501E-002  0.1833135E+03  0.7818608E-02  0.1165431E+00
         21   -1    0    0  503  502  0.00000000000E+00  0.00000000000E+00  0.10870416612E+03  0.10870416612E+03  0.00000000000E+00 0. -1.
         21   -1    0    0  501  503 -0.00000000000E+00 -0.00000000000E+00 -0.74828355808E+03  0.74828355808E+03  0.00000000000E+00 0.  1.
          6    2    1    2  501    0  0.93887083386E+01  0.61473431011E+02 -0.65132627081E+03  0.67663118820E+03  0.17244339141E+03 0.  0.
         24    2    3    3    0    0  0.11185850614E+02 -0.33388499323E+02 -0.30008915866E+03  0.31277460314E+03  0.80836465042E+02 0.  0.
         -6    2    1    2    0  502 -0.93887083386E+01 -0.61473431011E+02  0.11746878848E+02  0.18035653600E+03  0.16888860338E+03 0.  0.
        -24    2    5    5    0    0 -0.14196091384E+02 -0.20920993771E+01  0.62527992893E+02  0.10193418573E+03  0.79214408005E+02 0.  0.
          5    1    3    3  501    0 -0.17971422755E+01  0.94861930334E+02 -0.35123711214E+03  0.36385658506E+03  0.47000000000E+01 0. -1.
        -13    1    4    4    0    0  0.15222146360E+02 -0.24763548626E+02 -0.30171682150E+03  0.30311381931E+03  0.00000000000E+00 0.  1.
         14    1    4    4    0    0 -0.40362957463E+01 -0.86249506972E+01  0.16276628371E+01  0.96607838291E+01  0.00000000000E+00 0. -1.
         -5    1    5    5    0  502  0.48073830452E+01 -0.59381331634E+02 -0.50781114044E+02  0.78422350271E+02  0.47000000000E+01 0.  1.
         13    1    6    6    0    0  0.16344612735E+02 -0.26740738947E+02  0.52959656838E+02  0.61538108009E+02  0.00000000000E+00 0. -1.
        -14    1    6    6    0    0 -0.30540704119E+02  0.24648639569E+02  0.95683360542E+01  0.40396077725E+02  0.00000000000E+00 0.  1.
</event>
<event>
12    1  0.8562501E-002  0.1742777E+03  0.7818608E-02  0.1173672E+00
         21   -1    0    0  503  502  0.00000000000E+00  0.00000000000E+00  0.34248532082E+02  0.34248532082E+02  0.00000000000E+00 0. -1.
         21   -1    0    0  501  503 -0.00000000000E+00 -0.00000000000E+00 -0.89379600170E+03  0.89379600170E+03  0.00000000000E+00 0. -1.
          6    2    1    2  501    0  0.18949627603E+02 -0.21626079412E+02 -0.37876243580E+03  0.41693366689E+03  0.17188927865E+03 0.  0.
         24    2    3    3    0    0  0.10898847412E+02 -0.43144483972E+02 -0.94514895962E+02  0.13172039458E+03  0.80230701219E+02 0.  0.
         -6    2    1    2    0  502 -0.18949627603E+02  0.21626079412E+02 -0.48078503382E+03  0.51111086689E+03  0.17103594305E+03 0.  0.
        -24    2    5    5    0    0  0.44179424468E+02  0.12027320633E+00 -0.15624221943E+03  0.17975319716E+03  0.77121623080E+02 0.  0.
          5    1    3    3  501    0  0.80507801906E+01  0.21518404561E+02 -0.28424753984E+03  0.28521327231E+03  0.47000000000E+01 0. -1.
        -13    1    4    4    0    0  0.21263528327E+02 -0.64455990462E+02 -0.73524388745E+02  0.10006272075E+03  0.00000000000E+00 0.  1.
         14    1    4    4    0    0 -0.10364680915E+02  0.21311506490E+02 -0.20990507217E+02  0.31657673833E+02  0.00000000000E+00 0. -1.
         -5    1    5    5    0  502 -0.63129052070E+02  0.21505806205E+02 -0.32454281439E+03  0.33135766973E+03  0.47000000000E+01 0.  1.
         13    1    6    6    0    0  0.24143879174E+02 -0.36060617967E+02 -0.10688489737E+03  0.11535890237E+03  0.00000000000E+00 0. -1.
        -14    1    6    6    0    0  0.20035545294E+02  0.36180891173E+02 -0.49357322055E+02  0.64394294792E+02  0.00000000000E+00 0.  1.
</event>
<event>
12    1  0.8562501E-002  0.1925589E+03  0.7818608E-02  0.1156191E+00
         21   -1    0    0  503  502  0.00000000000E+00  0.00000000000E+00  0.12976982671E+04  0.12976982671E+04  0.00000000000E+00 0. -1.
         21   -1    0    0  501  503 -0.00000000000E+00 -0.00000000000E+00 -0.82607198912E+02  0.82607198912E+02  0.00000000000E+00 0. -1.
          6    2    1    2  501    0 -0.82811119553E+02 -0.26905853317E+02  0.49266216410E+02  0.19868516612E+03  0.17165963035E+03 0.  0.
         24    2    3    3    0    0 -0.44894135274E+02 -0.79277739312E+01  0.97410477912E+02  0.13435923737E+03  0.80531177054E+02 0.  0.
         -6    2    1    2    0  502  0.82811119553E+02  0.26905853317E+02  0.11658248518E+04  0.11816202999E+04  0.17174790139E+03 0.  0.
        -24    2    5    5    0    0  0.77489761482E+02  0.76716963252E+02  0.96414933711E+03  0.97376321740E+03  0.82101788853E+02 0.  0.
          5    1    3    3  501    0 -0.37916984280E+02 -0.18978079385E+02 -0.48144261501E+02  0.64325928750E+02  0.47000000000E+01 0. -1.
        -13    1    4    4    0    0 -0.31822997441E+02 -0.42766645143E+02  0.43238586111E+02  0.68638651150E+02  0.00000000000E+00 0.  1.
         14    1    4    4    0    0 -0.13071137833E+02  0.34838871211E+02  0.54171891801E+02  0.65720586218E+02  0.00000000000E+00 0. -1.
         -5    1    5    5    0  502  0.53213580718E+01 -0.49811109935E+02  0.20167551465E+03  0.20785708248E+03  0.47000000000E+01 0.  1.
         11    1    6    6    0    0 -0.97051729083E+01  0.39655749771E+02  0.34490531198E+03  0.34731317727E+03  0.00000000000E+00 0. -1.
        -12    1    6    6    0    0  0.87194934390E+02  0.37061213481E+02  0.61924402513E+03  0.62645004014E+03  0.00000000000E+00 0.  1.
</event>
<event>
12    1  0.8562501E-002  0.2443245E+03  0.7818608E-02  0.1117360E+00
         21   -1    0    0  503  502  0.00000000000E+00  0.00000000000E+00  0.11516907770E+03  0.11516907770E+03  0.00000000000E+00 0. -1.
         21   -1    0    0  501  503 -0.00000000000E+00 -0.00000000000E+00 -0.65213587675E+03  0.65213587675E+03  0.00000000000E+00 0.  1.
          6    2    1    2  501    0 -0.12445778559E+03  0.11496217054E+03 -0.44682477828E+03  0.50926107967E+03  0.17603529116E+03 0.  0.
         24    2    3    3    0    0 -0.36671181376E+02  0.12596000772E+03 -0.25881842195E+03  0.30142479718E+03  0.81604128084E+02 0.  0.
         -6    2    1    2    0  502  0.12445778559E+03 -0.11496217054E+03 -0.90142020775E+02  0.25804387478E+03  0.17249642418E+03 0.  0.
        -24    2    5    5    0    0  0.38822395936E+01 -0.27294441674E+02 -0.46911507009E+02  0.10275362944E+03  0.87163986504E+02 0.  0.
          5    1    3    3  501    0 -0.87786604217E+02 -0.10997837184E+02 -0.18800635633E+03  0.20783628250E+03  0.47000000000E+01 0. -1.
        -11    1    4    4    0    0 -0.37206386377E+02  0.10402781197E+03 -0.25660061280E+03  0.27937425676E+03  0.00000000000E+00 0.  1.
         12    1    4    4    0    0  0.53520500073E+00  0.21932195756E+02 -0.22178091498E+01  0.22050540413E+02  0.00000000000E+00 0. -1.
         -5    1    5    5    0  502  0.12057554600E+03 -0.87667728865E+02 -0.43230513766E+02  0.15529024534E+03  0.47000000000E+01 0.  1.
         13    1    6    6    0    0  0.43163419216E+02 -0.39987094953E+01 -0.11179195822E+02  0.44766559565E+02  0.00000000000E+00 0. -1.
        -14    1    6    6    0    0 -0.39281179623E+02 -0.23295732178E+02 -0.35732311186E+02  0.57987069877E+02  0.00000000000E+00 0.  1.
</event>
<event>
12    1  0.8562501E-002  0.2574069E+03  0.7818608E-02  0.1109188E+00
         21   -1    0    0  503  502  0.00000000000E+00  0.00000000000E+00  0.11272498331E+03  0.11272498331E+03  0.00000000000E+00 0.  1.
         21   -1    0    0  501  503 -0.00000000000E+00 -0.00000000000E+00 -0.71747212298E+03  0.71747212298E+03  0.00000000000E+00 0. -1.
          6    2    1    2  501    0  0.17750968816E+03 -0.69736812820E+02 -0.11965526991E+03  0.28104099043E+03  0.16820743810E+03 0.  0.
         24    2    3    3    0    0  0.14232043161E+03 -0.10944257239E+03 -0.70738134229E+02  0.20872358393E+03  0.79554188766E+02 0.  0.
         -6    2    1    2    0  502 -0.17750968816E+03  0.69736812820E+02 -0.48509186976E+03  0.54915611586E+03  0.17287395705E+03 0.  0.
        -24    2    5    5    0    0 -0.91587537488E+02  0.10059491579E+03 -0.36769059057E+03  0.40036099212E+03  0.81147640176E+02 0.  0.
          5    1    3    3  501    0  0.35189256556E+02  0.39705759573E+02 -0.48917135679E+02  0.72317406502E+02  0.47000000000E+01 0. -1.
        -13    1    4    4    0    0  0.10320229035E+03 -0.11323395315E+03 -0.72258307434E+02  0.16939275035E+03  0.00000000000E+00 0.  1.
         14    1    4    4    0    0  0.39118141257E+02  0.37913807542E+01  0.15201732052E+01  0.39330833579E+02  0.00000000000E+00 0. -1.
         -5    1    5    5    0  502 -0.85922150675E+02 -0.30858102972E+02 -0.11740127918E+03  0.14879512374E+03  0.47000000000E+01 0.  1.
         13    1    6    6    0    0 -0.89720976558E+02  0.45818378031E+02 -0.19998831567E+03  0.22392968496E+03  0.00000000000E+00 0. -1.
        -14    1    6    6    0    0 -0.18665609303E+01  0.54776537761E+02 -0.16770227490E+03  0.17643130716E+03  0.00000000000E+00 0.  1.
</event>
<event>
12    1  0.8562501E-002  0.2009160E+03  0.7818608E-02  0.1149574E+00
         21   -1    0    0  501  502  0.00000000000E+00  0.00000000000E+00  0.11107048999E+04  0.11107048999E+04  0.00000000000E+00 0.  1.
         21   -1    0    0  502  503 -0.00000000000E+00 -0.00000000000E+00 -0.46237505565E+02  0.46237505565E+02  0.00000000000E+00 0.  1.
         -6    2    1    2    0  503 -0.70982794706E+02 -0.71819352008E+02  0.26071619013E+03  0.32915071019E+03  0.17369709772E+03 0.  0.
        -24    2    3    3    0    0 -0.99360492672E+02 -0.74920771937E+01  0.12769982045E+03  0.17862251805E+03  0.75300206421E+02 0.  0.
          6    2    1    2  501    0  0.70982794706E+02  0.71819352008E+02  0.80375120418E+03  0.82779169524E+03  0.17037169962E+03 0.  0.
         24    2    5    5    0    0  0.93702563425E+02  0.99227515598E+02  0.57107956561E+03  0.59236532307E+03  0.78348806462E+02 0.  0.
          5    1    5    5  501    0 -0.22719768719E+02 -0.27408163590E+02  0.23267163856E+03  0.23542637217E+03  0.47000000000E+01 0.  1.
        -13    1    6    6    0    0  0.38148065199E+02  0.65665326852E+02  0.17168246907E+03  0.18772874105E+03  0.00000000000E+00 0.  1.
         14    1    6    6    0    0  0.55554498226E+02  0.33562188746E+02  0.39939709654E+03  0.40463658203E+03  0.00000000000E+00 0. -1.
         -5    1    3    3    0  503  0.28377697965E+02 -0.64327274815E+02  0.13301636968E+03  0.15052819214E+03  0.47000000000E+01 0.  1.
         11    1    4    4    0    0 -0.52595261518E+02 -0.17959470776E+02  0.11698689417E+03  0.12951732522E+03  0.00000000000E+00 0. -1.
        -12    1    4    4    0    0 -0.46765231154E+02  0.10467393583E+02  0.10712926279E+02  0.49105192829E+02  0.00000000000E+00 0.  1.
</event>
<event>
12    1  0.8562501E-002  0.2037229E+03  0.7818608E-02  0.1147007E+00
         21   -1    0    0  503  502  0.00000000000E+00  0.00000000000E+00  0.41634557186E+02  0.41634557186E+02  0.00000000000E+00 0. -1.
         21   -1    0    0  501  503 -0.00000000000E+00 -0.00000000000E+00 -0.13082455143E+04  0.13082455143E+04  0.00000000000E+00 0.  1.
          6    2    1    2  501    0  0.65284144043E+01  0.10538600162E+03 -0.96931972432E+03  0.99049671953E+03  0.17422455026E+03 0.  0.
         24    2    3    3    0    0  0.39313910091E+02  0.67549234352E+02 -0.36895271136E+03  0.38802750876E+03  0.91273006642E+02 0.  0.
         -6    2    1    2    0  502 -0.65284144043E+01 -0.10538600162E+03 -0.29729123278E+03  0.35938335194E+03  0.17212055959E+03 0.  0.
        -24    2    5    5    0    0 -0.65561782552E+00 -0.12079402452E+03 -0.13679909696E+03  0.19797792276E+03  0.76743982019E+02 0.  0.
          5    1    3    3  501    0 -0.32785495686E+02  0.37836767266E+02 -0.60036701296E+03  0.60246921077E+03  0.47000000000E+01 0. -1.
        -11    1    4    4    0    0 -0.18229399356E+02 -0.92321136524E+01 -0.10973364668E+03  0.11161996299E+03  0.00000000000E+00 0.  1.
         12    1    4    4    0    0  0.57543309447E+02  0.76781348005E+02 -0.25921906468E+03  0.27640754577E+03  0.00000000000E+00 0. -1.
         -5    1    5    5    0  502 -0.58727965788E+01  0.15408022906E+02 -0.16049213582E+03  0.16140542918E+03  0.47000000000E+01 0.  1.
         13    1    6    6    0    0  0.31296031553E+02 -0.89823706398E+02 -0.71664970694E+02  0.11909495307E+03  0.00000000000E+00 0. -1.
        -14    1    6    6    0    0 -0.31951649378E+02 -0.30970318126E+02 -0.65134126270E+02  0.78882969695E+02  0.00000000000E+00 0.  1.
</event>
<event>
12    1  0.8562501E-002  0.2347734E+03  0.7818608E-02  0.1123529E+00
         21   -1    0    0  501  502  0.00000000000E+00  0.00000000000E+00  0.17641497899E+04  0.17641497899E+04  0.00000000000E+00 0.  1.
         21   -1    0    0  502  503 -0.00000000000E+00 -0.00000000000E+00 -0.41716864046E+02  0.41716864046E+02  0.00000000000E+00 0. -1.
         -6    2    1    2    0  503  0.11403355620E+03 -0.10915285324E+03  0.40376495010E+03  0.46646238715E+03  0.17217150284E+03 0.  0.
        -24    2    3    3    0    0  0.61269115792E+02 -0.13736536754E+03  0.33324140584E+03  0.37385735257E+03  0.78079041743E+02 0.  0.
          6    2    1    2  501    0 -0.11403355620E+03  0.10915285324E+03  0.13186679758E+04  0.13394042668E+04  0.17378308983E+03 0.  0.
         24    2    5    5    0    0 -0.71285870628E+02  0.44253991593E+02  0.11234939439E+04  0.11292752123E+04  0.77354843617E+02 0.  0.
          5    1    5    5  501    0 -0.42747685568E+02  0.64898861651E+02  0.19517403186E+03  0.21012905458E+03  0.47000000000E+01 0. -1.
        -11    1    6    6    0    0 -0.17176529289E+02 -0.20540469553E+02  0.17558998720E+03  0.17761978396E+03  0.00000000000E+00 0.  1.
         12    1    6    6    0    0 -0.54109341339E+02  0.64794461146E+02  0.94790395674E+03  0.95165542830E+03  0.00000000000E+00 0. -1.
         -5    1    3    3    0  503  0.52764440404E+02  0.28212514298E+02  0.70523544262E+02  0.92605034579E+02  0.47000000000E+01 0.  1.
         11    1    4    4    0    0  0.47006125103E+02 -0.74830756753E+02  0.10739080478E+03  0.13907552950E+03  0.00000000000E+00 0. -1.
        -12    1    4    4    0    0  0.14262990689E+02 -0.62534610789E+02  0.22585060105E+03  0.23478182307E+03  0.00000000000E+00 0.  1.
</event>
<event>
12    1  0.8562501E-002  0.1884286E+03  0.7818608E-02  0.1159915E+00
         21   -1    0    0  503  502  0.00000000000E+00  0.00000000000E+00  0.21656491815E+03  0.21656491815E+03  0.00000000000E+00 0. -1.
         21   -1    0    0  501  503 -0.00000000000E+00 -0.00000000000E+00 -0.19927749533E+03  0.19927749533E+03  0.00000000000E+00 0. -1.
          6    2    1    2  501    0  0.42033081286E+02 -0.63393466348E+02 -0.79037314616E+02  0.20433361416E+03  0.17239436556E+03 0.  0.
         24    2    3    3    0    0 -0.22059836373E+01 -0.32340389615E+02 -0.11203634617E+03  0.14083231871E+03  0.78935619130E+02 0.  0.
         -6    2    1    2    0  502 -0.42033081286E+02  0.63393466348E+02  0.96324737438E+02  0.21150879932E+03  0.17225564040E+03 0.  0.
        -24    2    5    5    0    0 -0.11077678995E+02  0.36426172465E+02 -0.17522509633E+02  0.90394153072E+02  0.80090471053E+02 0.  0.
          5    1    3    3  501    0  0.44239064923E+02 -0.31053076733E+02  0.32999031551E+02  0.63501295445E+02  0.47000000000E+01 0. -1.
        -11    1    4    4    0    0 -0.63857038858E+01  0.97178369873E+01  0.76389842892E+01  0.13912859189E+02  0.00000000000E+00 0.  1.
         12    1    4    4    0    0  0.41797202485E+01 -0.42058226602E+02 -0.11967533046E+03  0.12691945953E+03  0.00000000000E+00 0. -1.
         -5    1    5    5    0  502 -0.30955402291E+02  0.26967293883E+02  0.11384724707E+03  0.12111464625E+03  0.47000000000E+01 0.  1.
         11    1    6    6    0    0 -0.16925948008E+02  0.16798703589E+02  0.30189730032E+02  0.38472119225E+02  0.00000000000E+00 0. -1.
        -12    1    6    6    0    0  0.58482690130E+01  0.19627468875E+02 -0.47712239666E+02  0.51922033847E+02  0.00000000000E+00 0.  1.
</event>
<event>
12    1  0.8562501E-002  0.2094073E+03  0.7818608E-02  0.1142178E+00
         21   -1    0    0  501  502  0.00000000000E+00  0.00000000000E+00  0.26530893965E+03  0.26530893965E+03  0.00000000000E+00 0. -1.
         21   -1    0    0  502  503 -0.00000000000E+00 -0.00000000000E+00 -0.25913648514E+03  0.25913648514E+03  0.00000000000E+00 0. -1.
         -6    2    1    2    0  503 -0.15002521811E+02  0.11776441340E+03  0.16137021172E+03  0.26437050199E+03  0.17250473723E+03 0.  0.
        -24    2    3    3    0    0 -0.40800740758E+02  0.12811597747E+03  0.77552917247E+02  0.17593899271E+03  0.82835198164E+02 0.  0.
          6    2    1    2  501    0  0.15002521811E+02 -0.11776441340E+03 -0.15519775722E+03  0.26007492280E+03  0.17163650224E+03 0.  0.
         24    2    5    5    0    0 -0.40832732445E+02 -0.12109342782E+03 -0.13202100278E+03  0.19934675882E+03  0.77321761322E+02 0.  0.
          5    1    5    5  501    0  0.55835254256E+02  0.33290144193E+01 -0.23176754430E+02  0.60728163983E+02  0.47000000000E+01 0. -1.
        -11    1    6    6    0    0  0.59839187674E+01 -0.88640813033E+02 -0.58639477673E+02  0.10644993828E+03  0.00000000000E+00 0.  1.
         12    1    6    6    0    0 -0.46816651213E+02 -0.32452614790E+02 -0.73381525112E+02  0.92896820534E+02  0.00000000000E+00 0. -1.
         -5    1    3    3    0  503  0.25798218947E+02 -0.10351564062E+02  0.83817294477E+02  0.88431509276E+02  0.47000000000E+01 0.  1.
         11    1    4    4    0    0 -0.21685069109E+02  0.13499973731E+03  0.73456265483E+02  0.15521273864E+03  0.00000000000E+00 0. -1.
        -12    1    4    4    0    0 -0.19115671650E+02 -0.68837598481E+01  0.40966517642E+01  0.20726254074E+02  0.00000000000E+00 0.  1.
</event>
<event>
12    1  0.8562501E-002  0.2040185E+03  0.7818608E-02  0.1146813E+00
         21   -1    0    0  501  502  0.00000000000E+00  0.00000000000E+00  0.87100739521E+03  0.87100739521E+03  0.00000000000E+00 0.  1.
         21   -1    0    0  502  503 -0.00000000000E+00 -0.00000000000E+00 -0.60437314825E+02  0.60437314825E+02  0.00000000000E+00 0.  1.
         -6    2    1    2    0  503 -0.67086213897E+02  0.82378976000E+02  0.18984304305E+03  0.27868248142E+03  0.17417430543E+03 0.  0.
        -24    2    3    3    0    0 -0.31091452659E+02  0.91512183525E+02  0.51613312447E+02  0.13547428773E+03  0.79675532334E+02 0.  0.
          6    2    1    2  501    0  0.67086213897E+02 -0.82378976000E+02  0.62072703734E+03  0.65276222862E+03  0.17178363266E+03 0.  0.
         24    2    5    5    0    0  0.10200325657E+03 -0.66075444967E+02  0.57517815545E+03  0.59291412394E+03  0.77114324741E+02 0.  0.
          5    1    5    5  501    0 -0.34917042669E+02 -0.16303531033E+02  0.45548881888E+02  0.59848104683E+02  0.47000000000E+01 0. -1.
        -13    1    6    6    0    0  0.15648779575E+02 -0.41620771543E+01  0.25604815209E+03  0.25655966826E+03  0.00000000000E+00 0.  1.
         14    1    6    6    0    0  0.86354476990E+02 -0.61913367813E+02  0.31913000335E+03  0.33635445567E+03  0.00000000000E+00 0. -1.
         -5    1    3    3    0  503 -0.35994761238E+02 -0.91332075251E+01  0.13822973060E+03  0.14320819369E+03  0.47000000000E+01 0.  1.
         11    1    4    4    0    0  0.14318361694E+01  0.60239971838E+01  0.43178704028E+02  0.43620398651E+02  0.00000000000E+00 0. -1.
        -12    1    4    4    0    0 -0.32523288828E+02  0.85488186341E+02  0.84346084192E+01  0.91853889081E+02  0.00000000000E+00 0.  1.
</event>
<event>
12    1  0.8562501E-002  0.2400719E+03  0.7818608E-02  0.1120060E+00
         21   -1    0    0  501  502  0.00000000000E+00  0.00000000000E+00  0.64133757485E+03  0.64133757485E+03  0.00000000000E+00 0.  1.
         21   -1    0    0  502  503 -0.00000000000E+00 -0.00000000000E+00 -0.11845172704E+03  0.11845172704E+03  0.00000000000E+00 0.  1.
         -6    2    1    2    0  503  0.14586990071E+03 -0.81191228273E+02  0.71761155995E+02  0.24876290189E+03  0.16989194908E+03 0.  0.
        -24    2    3    3    0    0  0.63381515107E+02 -0.88137406638E+02  0.92132496273E+02  0.16338336887E+03  0.80126833505E+02 0.  0.
          6    2    1    2  501    0 -0.14586990071E+03  0.81191228273E+02  0.45112469181E+03  0.51102640001E+03  0.17252376781E+03 0.  0.
         24    2    5    5    0    0 -0.24595091647E+02 -0.62780769476E+01  0.11730409976E+03  0.14521670037E+03  0.81751486000E+02 0.  0.
          5    1    5    5  501    0 -0.12127480906E+03  0.87469305221E+02  0.33382059205E+03  0.36580969964E+03  0.47000000000E+01 0. -1.
        -13    1    6    6    0    0 -0.46425644337E+02  0.19275097478E+02  0.55610768721E+02  0.74962840345E+02  0.00000000000E+00 0.  1.
         14    1    6    6    0    0  0.21830552690E+02 -0.25553174425E+02  0.61693331039E+02  0.70253860027E+02  0.00000000000E+00 0. -1.
         -5    1    3    3    0  503  0.82488385605E+02  0.69461783653E+01 -0.20371340278E+02  0.85379533017E+02  0.47000000000E+01 0.  1.
         11    1    4    4    0    0  0.85801169808E+01  0.97947648605E+01  0.35228960584E+02  0.37558427682E+02  0.00000000000E+00 0. -1.
        -12    1    4    4    0    0  0.54801398126E+02 -0.97932171499E+02  0.56903535688E+02  0.12582494119E+03  0.00000000000E+00 0.  1.
</event>
<event>
12    1  0.8562501E-002  0.2093419E+03  0.7818608E-02  0.1142318E+00
         21   -1    0    0  501  502  0.00000000000E+00  0.00000000000E+00  0.10479438352E+03  0.10479438352E+03  0.00000000000E+00 0.  1.
         21   -1    0    0  502  503 -0.00000000000E+00 -0.00000000000E+00 -0.67869750833E+03  0.67869750833E+03  0.00000000000E+00 0.  1.
         -6    2    1    2    0  503  0.10195545552E+03 -0.55926345021E+02 -0.53023661409E+03  0.56964432940E+03  0.17268793853E+03 0.  0.
        -24    2    3    3    0    0  0.70327305714E+01 -0.74389847931E+02 -0.24653020930E+03  0.26987335220E+03  0.80443603563E+02 0.  0.
          6    2    1    2  501    0 -0.10195545552E+03  0.55926345021E+02 -0.43666510717E+02  0.21384756245E+03  0.17407281474E+03 0.  0.
         24    2    5    5    0    0 -0.56298391659E+02  0.98162071732E+02 -0.56122196853E+00  0.13802817173E+03  0.79032651425E+02 0.  0.
          5    1    5    5  501    0 -0.45657063856E+02 -0.42235726711E+02 -0.43105288749E+02  0.75819390718E+02  0.47000000000E+01 0. -1.
        -13    1    6    6    0    0 -0.37169292610E+02  0.14246440667E+01  0.10882319018E+02  0.38755783969E+02  0.00000000000E+00 0.  1.
         14    1    6    6    0    0 -0.19129099049E+02  0.96737427665E+02 -0.11443540986E+02  0.99272387762E+02  0.00000000000E+00 0. -1.
         -5    1    3    3    0  503  0.94922724944E+02  0.18463502910E+02 -0.28370640479E+03  0.29977097720E+03  0.47000000000E+01 0.  1.
         13    1    4    4    0    0 -0.23713682673E+02 -0.47532771586E+02 -0.65678417566E+02  0.84471046251E+02  0.00000000000E+00 0. -1.
        -14    1    4    4    0    0  0.30746413245E+02 -0.26857076345E+02 -0.18085179173E+03  0.18540230595E+03  0.00000000000E+00 0.  1.
</event>
<event>
12    1  0.8562501E-002  0.2468783E+03  0.7818608E-02  0.1115355E+00
         21   -1    0    0  501  502  0.00000000000E+00  0.00000000000E+00  0.13428584252E+04  0.13428584252E+04  0.00000000000E+00 0. -1.
         21   -1    0    0  502  503 -0.00000000000E+00 -0.00000000000E+00 -0.45704628451E+02  0.45704628451E+02  0.00000000000E+00 0.  1.
         -6    2    1    2    0  503  0.13373829599E+03  0.11534799348E+03  0.71195643842E+03  0.75342146448E+03  0.17196174434E+03 0.  0.
        -24    2    3    3    0    0  0.12505488778E+03  0.19172920657E+02  0.43416844365E+03  0.45929002065E+03  0.80241882845E+02 0.  0.
          6    2    1    2  501    0 -0.13373829599E+03 -0.11534799348E+03  0.58519735835E+03  0.63514158919E+03  0.17250448889E+03 0.  0.
         24    2    5    5    0    0 -0.98273484508E+02 -0.12242906246E+03  0.56860731974E+03  0.59507647004E+03  0.78454879034E+02 0.  0.
          5    1    5    5  501    0 -0.35464811483E+02  0.70810689808E+01  0.16590038613E+02  0.40065119151E+02  0.47000000000E+01 0. -1.
        -13    1    6    6    0    0 -0.84850189763E+02 -0.88099489302E+02  0.30038970860E+03  0.32433786666E+03  0.00000000000E+00 0.  1.
         14    1    6    6    0    0 -0.13423294745E+02 -0.34329573161E+02  0.26821761114E+03  0.27073860338E+03  0.00000000000E+00 0. -1.
         -5    1    3    3    0  503  0.86834082097E+01  0.96175072825E+02  0.27778799476E+03  0.29413144382E+03  0.47000000000E+01 0.  1.
         13    1    4    4    0    0  0.17565754264E+02 -0.19328861054E+02  0.16277620132E+03  0.16485827947E+03  0.00000000000E+00 0. -1.
        -14    1    4    4    0    0  0.10748913352E+03  0.38501781711E+02  0.27139224233E+03  0.29443174118E+03  0.00000000000E+00 0.  1.
</event>
<event>
12    1  0.8562501E-002  0.1833265E+03  0.7818608E-02  0.1164644E+00
         21   -1    0    0  501  502  0.00000000000E+00  0.00000000000E+00  0.21841660772E+04  0.21841660772E+04  0.00000000000E+00 0.  1.
         21   -1    0    0  502  503 -0.00000000000E+00 -0.00000000000E+00 -0.83285320142E+02  0.83285320142E+02  0.00000000000E+00 0.  1.
         -6    2    1    2    0  503 -0.61826445417E+02  0.17593804699E+02  0.26679990413E+02  0.18516481521E+03  0.17158710787E+03 0.  0.
        -24    2    3    3    0    0 -0.10284593390E+03  0.29564829192E+02  0.16869665111E+01  0.13543911656E+03  0.83003272186E+02 0.  0.
          6    2    1    2  501    0  0.61826445417E+02 -0.17593804699E+02  0.20742007667E+04  0.20822865822E+04  0.17168732758E+03 0.  0.
         24    2    5    5    0    0  0.42225284315E+02 -0.68787830137E+02  0.17304046351E+04  0.17341157852E+04  0.79640537142E+02 0.  0.
          5    1    5    5  501    0  0.19601161102E+02  0.51194025438E+02  0.34379613158E+03  0.34817079695E+03  0.47000000000E+01 0. -1.
        -11    1    6    6    0    0  0.47715060319E+02 -0.60874876295E+02  0.17077290561E+04  0.17094797473E+04  0.00000000000E+00 0.  1.
         12    1    6    6    0    0 -0.54897760046E+01 -0.79129538423E+01  0.22675579039E+02  0.24636037909E+02  0.00000000000E+00 0. -1.
         -5    1    3    3    0  503  0.41019488483E+02 -0.11971024493E+02  0.24993023902E+02  0.49725698653E+02  0.47000000000E+01 0.  1.
         13    1    4    4    0    0 -0.29804893827E+02 -0.16985209637E+02  0.28682718234E+02  0.44716075048E+02  0.00000000000E+00 0. -1.
        -14    1    4    4    0    0 -0.73041040073E+02  0.46550038829E+02 -0.26995751723E+02  0.90723041511E+02  0.00000000000E+00 0.  1.
</event>
<event>
12    1  0.8562501E-002  0.1817444E+03  0.7818608E-02  0.1166451E+00
         21   -1    0    0  501  502  0.00000000000E+00  0.00000000000E+00  0.12509479644E+03  0.12509479644E+03  0.00000000000E+00 0.  1.
         21   -1    0    0  502  503 -0.00000000000E+00 -0.00000000000E+00 -0.27007010388E+03  0.27007010388E+03  0.00000000000E+00 0.  1.
         -6    2    1    2    0  503 -0.19769544538E+02  0.44480259533E+02 -0.10673437820E+03  0.21076823250E+03  0.17510480280E+03 0.  0.
        -24    2    3    3    0    0  0.24789782355E+02  0.44105776648E+02 -0.13105245717E+03  0.15978654152E+03  0.76138948500E+02 0.  0.
          6    2    1    2  501    0  0.19769544538E+02 -0.44480259533E+02 -0.38240929236E+02  0.18439666782E+03  0.17369638469E+03 0.  0.
         24    2    5    5    0    0 -0.14653488524E+02 -0.81780267891E+02  0.98424837591E+01  0.11432284650E+03  0.77910858055E+02 0.  0.
          5    1    5    5  501    0  0.34423033062E+02  0.37300008358E+02 -0.48083412996E+02  0.70073821317E+02  0.47000000000E+01 0. -1.
        -11    1    6    6    0    0 -0.34257426507E+02 -0.17402588326E+02  0.24337213368E+02  0.45483198061E+02  0.00000000000E+00 0.  1.
         12    1    6    6    0    0  0.19603937983E+02 -0.64377679564E+02 -0.14494729609E+02  0.68839648437E+02  0.00000000000E+00 0. -1.
         -5    1    3    3    0  503 -0.44559326892E+02  0.37448288542E+00  0.24318078967E+02  0.50981690980E+02  0.47000000000E+01 0.  1.
         11    1    4    4    0    0 -0.84767893795E+01  0.27159601555E+02 -0.57322331741E+01  0.29023411446E+02  0.00000000000E+00 0. -1.
        -12    1    4    4    0    0  0.33266571734E+02  0.16946175093E+02 -0.12532022399E+03  0.13076313008E+03  0.00000000000E+00 0.  1.
</event>
<event>
12    1  0.8562501E-002  0.1779050E+03  0.7818608E-02  0.1170528E+00
         21   -1    0    0  501  502  0.00000000000E+00  0.00000000000E+00  0.30451358754E+03  0.30451358754E+03  0.00000000000E+00 0. -1.
         21   -1    0    0  502  503 -0.00000000000E+00 -0.00000000000E+00 -0.29585798511E+03  0.29585798511E+03  0.00000000000E+00 0. -1.
         -6    2    1    2    0  503  0.23877907668E+01  0.36935450923E+02 -0.23846188484E+03  0.29587654110E+03  0.17119850459E+03 0.  0.
        -24    2    3    3    0    0  0.32304081537E+02  0.64223993106E+02 -0.83689984509E+02  0.13582629862E+03  0.79224332840E+02 0.  0.
          6    2    1    2  501    0 -0.23877907668E+01 -0.36935450923E+02  0.24711748726E+03  0.30449503155E+03  0.17401219109E+03 0.  0.
         24    2    5    5    0    0  0.17110008942E+02  0.12373547803E+00  0.24893960079E+03  0.26231734091E+03  0.80911648018E+02 0.  0.
          5    1    5    5  501    0 -0.19497799709E+02 -0.37059186401E+02 -0.18221135264E+01  0.42177690642E+02  0.47000000000E+01 0. -1.
        -13    1    6    6    0    0  0.46338486231E+02  0.14505689418E+02  0.17302066467E+03  0.17970481556E+03  0.00000000000E+00 0.  1.
         14    1    6    6    0    0 -0.29228477289E+02 -0.14381953940E+02  0.75918936113E+02  0.82612525348E+02  0.00000000000E+00 0. -1.
         -5    1    3    3    0  503 -0.29916290770E+02 -0.27288542183E+02 -0.15477190033E+03  0.16005024248E+03  0.47000000000E+01 0.  1.
         13    1    4    4    0    0 -0.21059200185E+02  0.21771561547E+02 -0.53007596602E+02  0.61051585582E+02  0.00000000000E+00 0. -1.
        -14    1    4    4    0    0  0.53363281722E+02  0.42452431560E+02 -0.30682387907E+02  0.74774713033E+02  0.00000000000E+00 0.  1.
</event>
<event>
12    1  0.8562501E-002  0.2414973E+03  0.7818608E-02  0.1120457E+00
         21   -1    0    0  503  502  0.00000000000E+00  0.00000000000E+00  0.23318834948E+03  0.23318834948E+03  0.00000000000E+00 0.  1.
         21   -1    0    0  501  503 -0.00000000000E+00 -0.00000000000E+00 -0.46055212393E+03  0.46055212393E+03  0.00000000000E+00 0.  1.
          6    2    1    2  501    0 -0.14344018470E+03  0.60674146250E+02 -0.35244329769E+03  0.42177388071E+03  0.17152402092E+03 0.  0.
         24    2    3    3    0    0 -0.41058708484E+02  0.73458983557E+02 -0.25373626397E+03  0.27890825418E+03  0.79534161152E+02 0.  0.
         -6    2    1    2    0  502  0.14344018470E+03 -0.60674146250E+02  0.12507952323E+03  0.27196659271E+03  0.18456571135E+03 0.  0.
        -24    2    5    5    0    0  0.16067709339E+03 -0.48268090460E+02  0.48048298431E+02  0.19192334917E+03  0.79868617602E+02 0.  0.
          5    1    3    3  501    0 -0.10238147621E+03 -0.12784837307E+02 -0.98707033721E+02  0.14286562653E+03  0.47000000000E+01 0. -1.
        -11    1    4    4    0    0 -0.41580134351E+02  0.25215990493E+02 -0.20360781058E+03  0.20933440777E+03  0.00000000000E+00 0.  1.
         12    1    4    4    0    0  0.52142586758E+00  0.48242993064E+02 -0.50128453390E+02  0.69573846408E+02  0.00000000000E+00 0. -1.
         -5    1    5    5    0  502 -0.17236908690E+02 -0.12406055790E+02  0.77031224804E+02  0.80043243539E+02  0.47000000000E+01 0.  1.
         11    1    6    6    0    0  0.20666988082E+02  0.21109522410E+02  0.68125334374E+01  0.30317436313E+02  0.00000000000E+00 0. -1.
        -12    1    6    6    0    0  0.14001010531E+03 -0.69377612870E+02  0.41235764994E+02  0.16160591286E+03  0.00000000000E+00 0.  1.
</event>
<event>
12    1  0.8562501E-002  0.1751145E+03  0.7818608E-02  0.1173087E+00
         21   -1    0    0  503  502  0.00000000000E+00  0.00000000000E+00  0.20472157143E+04  0.20472157143E+04  0.00000000000E+00 0. -1.
         21   -1    0    0  501  503 -0.00000000000E+00 -0.00000000000E+00 -0.16475789151E+02  0.16475789151E+02  0.00000000000E+00 0. -1.
          6    2    1    2  501    0 -0.15332540058E+02 -0.13596971054E+02  0.13375939167E+04  0.13487673915E+04  0.17203495507E+03 0.  0.
         24    2    3    3    0    0 -0.47333439154E+02 -0.44510489141E+02  0.11932894040E+04  0.11976860044E+04  0.79312830852E+02 0.  0.
         -6    2    1    2    0  502  0.15332540058E+02  0.13596971054E+02  0.69314600841E+03  0.71492411199E+03  0.17391127774E+03 0.  0.
        -24    2    5    5    0    0  0.61106031337E+02 -0.11209316986E+02  0.59075638322E+03  0.59996198876E+03  0.84271512352E+02 0.  0.
          5    1    3    3  501    0  0.32000899096E+02  0.30913518087E+02  0.14430451271E+03  0.15108138711E+03  0.47000000000E+01 0. -1.
        -11    1    4    4    0    0 -0.66760830672E+00  0.81146112882E+00  0.71414686636E+03  0.71414763943E+03  0.00000000000E+00 0.  1.
         12    1    4    4    0    0 -0.46665830847E+02 -0.45321950269E+02  0.47914253767E+03  0.48353836492E+03  0.00000000000E+00 0. -1.
         -5    1    5    5    0  502 -0.45773491279E+02  0.24806288040E+02  0.10238962520E+03  0.11496212323E+03  0.47000000000E+01 0.  1.
         11    1    6    6    0    0  0.42220898450E+02 -0.69351387665E+01  0.56989714943E+03  0.57150105979E+03  0.00000000000E+00 0. -1.
        -12    1    6    6    0    0  0.18885132887E+02 -0.42741782196E+01  0.20859233787E+02  0.28460928969E+02  0.00000000000E+00 0.  1.
</event>
<event>
12    1  0.8562501E-002  0.3182491E+03  0.7818608E-02  0.1076605E+00
         21   -1    0    0  503  502  0.00000000000E+00  0.00000000000E+00  0.30189919227E+03  0.30189919227E+03  0.00000000000E+00 0.  1.
         21   -1    0    0  501  503 -0.00000000000E+00 -0.00000000000E+00 -0.56016052625E+03  0.56016052625E+03  0.00000000000E+00 0. -1.
          6    2    1    2  501    0 -0.26304485478E+03  0.41913479875E+02 -0.40276708845E+03  0.51253949601E+03  0.17183152220E+03 0.  0.
         24    2    3    3    0    0 -0.19232073984E+03 -0.20472514289E+02 -0.34026457901E+03  0.39930272466E+03  0.79096721663E+02 0.  0.
         -6    2    1    2    0  502  0.26304485478E+03 -0.41913479875E+02  0.14450575447E+03  0.34952022251E+03  0.17416411068E+03 0.  0.
        -24    2    5    5    0    0  0.21440439762E+03 -0.15124031187E+02  0.37349146627E+02  0.22873861283E+03  0.68763451085E+02 0.  0.
          5    1    3    3  501    0 -0.70724114936E+02  0.62385994164E+02 -0.62502509437E+02  0.11323677136E+03  0.47000000000E+01 0. -1.
        -13    1    4    4    0    0 -0.11592129523E+02 -0.25055355189E+02 -0.35792416400E+02  0.45202271650E+02  0.00000000000E+00 0.  1.
         14    1    4    4    0    0 -0.18072861032E+03  0.45828408994E+01 -0.30447216261E+03  0.35410045301E+03  0.00000000000E+00 0. -1.
         -5    1    5    5    0  502  0.48640457153E+02 -0.26789448688E+02  0.10715660784E+03  0.12078160968E+03  0.47000000000E+01 0.  1.
         13    1    6    6    0    0  0.26566706276E+02 -0.17390279010E+02 -0.12915625767E+02  0.34278638762E+02  0.00000000000E+00 0. -1.
        -14    1    6    6    0    0  0.18783769135E+03  0.22662478236E+01  0.50264772394E+02  0.19445997407E+03  0.00000000000E+00 0.  1.
</event>
<event>
12    1  0.8562501E-002  0.1891085E+03  0.7818608E-02  0.1159419E+00
         21   -1    0    0  501  502  0.00000000000E+00  0.00000000000E+00  0.17795513873E+03  0.17795513873E+03  0.00000000000E+00 0. -1.
         21   -1    0    0  502  503 -0.00000000000E+00 -0.00000000000E+00 -0.40847536815E+03  0.40847536815E+03  0.00000000000E+00 0. -1.
         -6    2    1    2    0  503 -0.79531764521E+02 -0.49277990939E+01 -0.32470723180E+03  0.37576164047E+03  0.17150055188E+03 0.  0.
        -24    2    3    3    0    0 -0.81274628283E+02  0.48943751764E+02 -0.16351863824E+03  0.20573507120E+03  0.81163528932E+02 0.  0.
          6    2    1    2  501    0  0.79531764521E+02  0.49277990939E+01  0.94187002381E+02  0.21066886641E+03  0.17076473607E+03 0.  0.
         24    2    5    5    0    0  0.82024005656E+02 -0.44759410329E+02  0.10163893592E+03  0.16014509617E+03  0.81145771397E+02 0.  0.
          5    1    5    5  501    0 -0.24922411354E+01  0.49687209423E+02 -0.74519335347E+01  0.50523770243E+02  0.47000000000E+01 0. -1.
        -11    1    6    6    0    0  0.21965512793E+02  0.87156672834E+01 -0.73068949280E+01  0.24735345600E+02  0.00000000000E+00 0.  1.
         12    1    6    6    0    0  0.60058492863E+02 -0.53475077613E+02  0.10894583084E+03  0.13540975057E+03  0.00000000000E+00 0. -1.
         -5    1    3    3    0  503  0.17428637623E+01 -0.53871550858E+02 -0.16118859356E+03  0.17002656928E+03  0.47000000000E+01 0.  1.
         13    1    4    4    0    0 -0.97846425380E+02  0.43358322641E+02 -0.14554501577E+03  0.18065773915E+03  0.00000000000E+00 0. -1.
        -14    1    4    4    0    0  0.16571797097E+02  0.55854291235E+01 -0.17973622475E+02  0.25077332043E+02  0.00000000000E+00 0.  1.
</event>
<event>
12    1  0.8562501E-002  0.1730513E+03  0.7818608E-02  0.1174805E+00
         21   -1    0    0  503  502  0.00000000000E+00  0.00000000000E+00  0.67912327583E+02  0.67912327583E+02  0.00000000000E+00 0.  1.
         21   -1    0    0  501  503 -0.00000000000E+00 -0.00000000000E+00 -0.45053424306E+03  0.45053424306E+03  0.00000000000E+00 0.  1.
          6    2    1    2  501    0  0.17288091685E+02  0.94941029732E+01 -0.23084461391E+03  0.28826598520E+03  0.17151975498E+03 0.  0.
         24    2    3    3    0    0 -0.45412922347E+02  0.42312179896E+02 -0.11907225684E+03  0.15588927601E+03  0.79187182927E+02 0.  0.
         -6    2    1    2    0  502 -0.17288091685E+02 -0.94941029732E+01 -0.15177730157E+03  0.23018058545E+03  0.17192363578E+03 0.  0.
        -24    2    5    5    0    0 -0.51882524689E+02  0.40052438303E+02 -0.12965200980E+03  0.16565730993E+03  0.79603432758E+02 0.  0.
          5    1    3    3  501    0  0.62701014032E+02 -0.32818076922E+02 -0.11177235706E+03  0.13237670919E+03  0.47000000000E+01 0. -1.
        -11    1    4    4    0    0 -0.52957912039E+01 -0.18339162467E+02 -0.35961784726E+01  0.19424283361E+02  0.00000000000E+00 0.  1.
         12    1    4    4    0    0 -0.40117131143E+02  0.60651342362E+02 -0.11547607837E+03  0.13646499265E+03  0.00000000000E+00 0. -1.
         -5    1    5    5    0  502  0.34594433004E+02 -0.49546541276E+02 -0.22125291774E+02  0.64523275516E+02  0.47000000000E+01 0.  1.
         11    1    6    6    0    0 -0.67323662011E+02  0.20281343802E+02 -0.62877495386E+02  0.94325965667E+02  0.00000000000E+00 0. -1.
        -12    1    6    6    0    0  0.15441137322E+02  0.19771094501E+02 -0.66774514412E+02  0.71331344264E+02  0.00000000000E+00 0.  1.
</event>
<event>
12    1  0.8562501E-002  0.2030555E+03  0.7818608E-02  0.1147533E+00
         21   -1    0    0  501  502  0.00000000000E+00  0.00000000000E+00  0.93713736870E+02  0.93713736870E+02  0.00000000000E+00 0.  1.
         21   -1    0    0  502  503 -0.00000000000E+00 -0.00000000000E+00 -0.46104838216E+03  0.46104838216E+03  0.00000000000E+00 0.  1.
         -6    2    1    2    0  503  0.76760102027E+02  0.75367085108E+02 -0.24855861889E+03  0.32095627239E+03  0.17221855585E+03 0.  0.
        -24    2    3    3    0    0  0.10583989169E+03  0.76266108287E+02 -0.24789924764E+03  0.29147802312E+03  0.80540666951E+02 0.  0.
          6    2    1    2  501    0 -0.76760102027E+02 -0.75367085108E+02 -0.11877602641E+03  0.23380584665E+03  0.17025016504E+03 0.  0.
         24    2    5    5    0    0 -0.51135151621E+02 -0.10383728618E+03 -0.13218712044E+03  0.19295076281E+03  0.79746951820E+02 0.  0.
          5    1    5    5  501    0 -0.25624950407E+02  0.28470201077E+02  0.13411094029E+02  0.40855083842E+02  0.47000000000E+01 0. -1.
        -13    1    6    6    0    0 -0.47165693683E+02 -0.76286889320E+02 -0.13793297119E+03  0.16452901471E+03  0.00000000000E+00 0.  1.
         14    1    6    6    0    0 -0.39694579376E+01 -0.27550396865E+02  0.57458507499E+01  0.28421748091E+02  0.00000000000E+00 0. -1.
         -5    1    3    3    0  503 -0.29079789663E+02 -0.89902317941E+00 -0.65937124596E+00  0.29478249269E+02  0.47000000000E+01 0.  1.
         11    1    4    4    0    0  0.56458262020E+02 -0.62154213897E+01 -0.82299092311E+02  0.99996536983E+02  0.00000000000E+00 0. -1.
        -12    1    4    4    0    0  0.49381629670E+02  0.82481529677E+02 -0.16560015533E+03  0.19148148613E+03  0.00000000000E+00 0.  1.
</event>
<event>
12    1  0.8562501E-002  0.2677880E+03  0.7818608E-02  0.1103751E+00
         21   -1    0    0  501  502  0.00000000000E+00  0.00000000000E+00  0.67566896611E+03  0.67566896611E+03  0.00000000000E+00 0. -1.
         21   -1    0    0  502  503 -0.00000000000E+00 -0.00000000000E+00 -0.11624895674E+03  0.11624895674E+03  0.00000000000E+00 0.  1.
         -6    2    1    2    0  503 -0.18973608779E+03  0.45210106257E+02  0.14185219070E+03  0.29586019167E+03  0.17136940302E+03 0.  0.
        -24    2    3    3    0    0 -0.14942953062E+03  0.87308745628E+02  0.68867605094E+02  0.20234145705E+03  0.79039967914E+02 0.  0.
          6    2    1    2  501    0  0.18973608779E+03 -0.45210106257E+02  0.41756781867E+03  0.49605773117E+03  0.18348474799E+03 0.  0.
         24    2    5    5    0    0  0.10902262378E+03  0.26761425733E+02  0.32816168333E+03  0.35566502578E+03  0.78774448611E+02 0.  0.
          5    1    5    5  501    0  0.80713464014E+02 -0.71971531990E+02  0.89406135342E+02  0.14039270539E+03  0.47000000000E+01 0. -1.
        -13    1    6    6    0    0  0.73630153713E+02 -0.17762996069E+02  0.14105585305E+03  0.16010520680E+03  0.00000000000E+00 0.  1.
         14    1    6    6    0    0  0.35392470066E+02  0.44524421803E+02  0.18710583028E+03  0.19555981898E+03  0.00000000000E+00 0. -1.
         -5    1    3    3    0  503 -0.40306557176E+02 -0.42098639371E+02  0.72984585606E+02  0.93518734617E+02  0.47000000000E+01 0.  1.
         13    1    4    4    0    0 -0.83116812967E+02  0.25350133257E+02  0.69994412087E+02  0.11158069536E+03  0.00000000000E+00 0. -1.
        -14    1    4    4    0    0 -0.66312717651E+02  0.61958612370E+02 -0.11268069930E+01  0.90760761693E+02  0.00000000000E+00 0.  1.
</event>
<event>
12    1  0.8562501E-002  0.2245878E+03  0.7818608E-02  0.1130588E+00
         21   -1    0    0  503  502  0.00000000000E+00  0.00000000000E+00  0.76281084017E+02  0.76281084017E+02  0.00000000000E+00 0.  1.
         21   -1    0    0  501  503 -0.00000000000E+00 -0.00000000000E+00 -0.67178804968E+03  0.67178804968E+03  0.00000000000E+00 0. -1.
          6    2    1    2  501    0  0.12040381822E+03 -0.77617859725E+02 -0.24778331319E+03  0.33412298526E+03  0.17239485896E+03 0.  0.
         24    2    3    3    0    0  0.91990429645E+02  0.18844549360E+02 -0.14370166085E+03  0.18932175126E+03  0.79844861954E+02 0.  0.
         -6    2    1    2    0  502 -0.12040381822E+03  0.77617859725E+02 -0.34772365247E+03  0.41394614843E+03  0.17296838938E+03 0.  0.
        -24    2    5    5    0    0 -0.62668728529E+02 -0.10553443116E+02 -0.92269330782E+02  0.13756503530E+03  0.79823335168E+02 0.  0.
          5    1    3    3  501    0  0.28413388571E+02 -0.96462409085E+02 -0.10408165234E+03  0.14480123401E+03  0.47000000000E+01 0. -1.
        -11    1    4    4    0    0  0.45904992770E+02 -0.37585299877E+01 -0.12739252737E+03  0.13546309807E+03  0.00000000000E+00 0.  1.
         12    1    4    4    0    0  0.46085436875E+02  0.22603079348E+02 -0.16309133477E+02  0.53858653183E+02  0.00000000000E+00 0. -1.
         -5    1    5    5    0  502 -0.57735089687E+02  0.88171302842E+02 -0.25545432169E+03  0.27638111313E+03  0.47000000000E+01 0.  1.
         11    1    6    6    0    0  0.28040692044E+01  0.24360036609E+02 -0.39581608212E+02  0.46561549548E+02  0.00000000000E+00 0. -1.
        -12    1    6    6    0    0 -0.65472797733E+02 -0.34913479725E+02 -0.52687722569E+02  0.91003485752E+02  0.00000000000E+00 0.  1.
</event>
<event>
12    1  0.8562501E-002  0.1967839E+03  0.7818608E-02  0.1152636E+00
         21   -1    0    0  503  502  0.00000000000E+00  0.00000000000E+00  0.76627681741E+03  0.76627681741E+03  0.00000000000E+00 0. -1.
         21   -1    0    0  501  503 -0.00000000000E+00 -0.00000000000E+00 -0.12022172014E+03  0.12022172014E+03  0.00000000000E+00 0.  1.
          6    2    1    2  501    0 -0.64640053353E+02 -0.68398262918E+02 -0.14636944360E+02  0.19732747553E+03  0.17282139217E+03 0.  0.
         24    2    3    3    0    0  0.25811316834E+02 -0.46136303577E+02  0.12195592399E+01  0.10272005558E+03  0.88063272197E+02 0.  0.
         -6    2    1    2    0  502  0.64640053353E+02  0.68398262918E+02  0.66069204163E+03  0.68917106202E+03  0.17200616262E+03 0.  0.
        -24    2    5    5    0    0  0.48618031872E+02  0.11180561857E+03  0.56218898202E+03  0.58024059589E+03  0.75884703657E+02 0.  0.
          5    1    3    3  501    0 -0.90451370187E+02 -0.22261959341E+02 -0.15856503600E+02  0.94607419946E+02  0.47000000000E+01 0. -1.
        -11    1    4    4    0    0 -0.27015322968E+02 -0.18257472663E+02 -0.21230361740E+02  0.38908755348E+02  0.00000000000E+00 0.  1.
         12    1    4    4    0    0  0.52826639801E+02 -0.27878830914E+02  0.22449920980E+02  0.63811300236E+02  0.00000000000E+00 0. -1.
         -5    1    5    5    0  502  0.16022021481E+02 -0.43407355655E+02  0.98503059610E+02  0.10893046612E+03  0.47000000000E+01 0.  1.
         11    1    6    6    0    0  0.46171630669E+02  0.50407115394E+02  0.16936165913E+03  0.18263643761E+03  0.00000000000E+00 0. -1.
        -12    1    6    6    0    0  0.24464012034E+01  0.61398503180E+02  0.39282732289E+03  0.39760415828E+03  0.00000000000E+00 0.  1.
</event>
<event>
12    1  0.8562501E-002  0.1915130E+03  0.7818608E-02  0.1157151E+00
         21   -1    0    0  501  502  0.00000000000E+00  0.00000000000E+00  0.26418223117E+03  0.26418223117E+03  0.00000000000E+00 0.  1.
         21   -1    0    0  502  503 -0.00000000000E+00 -0.00000000000E+00 -0.21116529645E+03  0.21116529645E+03  0.00000000000E+00 0.  1.
         -6    2    1    2    0  503  0.80638656587E+02  0.21720227490E+02 -0.11273070452E+03  0.22222837981E+03  0.17234523445E+03 0.  0.
        -24    2    3    3    0    0  0.10260790474E+03 -0.71003222813E+01 -0.12718663379E+03  0.18293034113E+03  0.81904048731E+02 0.  0.
          6    2    1    2  501    0 -0.80638656587E+02 -0.21720227490E+02  0.16574763923E+03  0.25311914781E+03  0.17211235243E+03 0.  0.
         24    2    5    5    0    0 -0.10552753434E+03 -0.59989386878E+02  0.13024360385E+03  0.19509664076E+03  0.79777915808E+02 0.  0.
          5    1    5    5  501    0  0.24888877749E+02  0.38269159388E+02  0.35504035381E+02  0.58022507048E+02  0.47000000000E+01 0. -1.
        -13    1    6    6    0    0 -0.14152835096E+02 -0.20830949035E+02  0.79678901411E+02  0.83564098206E+02  0.00000000000E+00 0.  1.
         14    1    6    6    0    0 -0.91374699241E+02 -0.39158437843E+02  0.50564702439E+02  0.11153254255E+03  0.00000000000E+00 0. -1.
         -5    1    3    3    0  503 -0.21969248155E+02  0.28820549771E+02  0.14455929271E+02  0.39298038688E+02  0.47000000000E+01 0.  1.
         11    1    4    4    0    0  0.10494322925E+02 -0.25251212714E+02 -0.33818812256E+01  0.27553433140E+02  0.00000000000E+00 0. -1.
        -12    1    4    4    0    0  0.92113581817E+02  0.18150890432E+02 -0.12380475256E+03  0.15537690799E+03  0.00000000000E+00 0.  1.
</event>
<event>
12    1  0.8562501E-002  0.1995225E+03  0.7818608E-02  0.1150369E+00
         21   -1    0    0  501  502  0.00000000000E+00  0.00000000000E+00  0.59330405054E+02  0.59330405054E+02  0.00000000000E+00 0.  1.
         21   -1    0    0  502  503 -0.00000000000E+00 -0.00000000000E+00 -0.66794565533E+03  0.66794565533E+03  0.00000000000E+00 0.  1.
         -6    2    1    2    0  503  0.11926177735E+02 -0.95795082603E+02 -0.29300972377E+03  0.35389141835E+03  0.17339407773E+03 0.  0.
        -24    2    3    3    0    0  0.63051401476E+02 -0.58895375501E+02 -0.11354162146E+03  0.16361197481E+03  0.80206196852E+02 0.  0.
          6    2    1    2  501    0 -0.11926177735E+02  0.95795082603E+02 -0.31560552651E+03  0.37338464204E+03  0.17461475018E+03 0.  0.
         24    2    5    5    0    0  0.11442800391E+01  0.13422970338E+03 -0.22600491830E+03  0.27490410624E+03  0.80468142041E+02 0.  0.
          5    1    5    5  501    0 -0.13070457774E+02 -0.38434620775E+02 -0.89600608208E+02  0.98480535802E+02  0.47000000000E+01 0. -1.
        -13    1    6    6    0    0  0.82052920255E+01  0.21684938740E+02 -0.11265240959E+03  0.11501360255E+03  0.00000000000E+00 0.  1.
         14    1    6    6    0    0 -0.70610119864E+01  0.11254476464E+03 -0.11335250871E+03  0.15989050369E+03  0.00000000000E+00 0. -1.
         -5    1    3    3    0  503 -0.51125223741E+02 -0.36899707102E+02 -0.17946810231E+03  0.19027944354E+03  0.47000000000E+01 0.  1.
         13    1    4    4    0    0  0.47529851626E+02  0.52731769517E+01 -0.27513593188E+02  0.55171469084E+02  0.00000000000E+00 0. -1.
        -14    1    4    4    0    0  0.15521549850E+02 -0.64168552453E+02 -0.86028028269E+02  0.10844050572E+03  0.00000000000E+00 0.  1.
</event>
<event>
12    1  0.8562501E-002  0.2104612E+03  0.7818608E-02  0.1141283E+00
         21   -1    0    0  501  502  0.00000000000E+00  0.00000000000E+00  0.25879596815E+03  0.25879596815E+03  0.00000000000E+00 0.  1.
         21   -1    0    0  502  503 -0.00000000000E+00 -0.00000000000E+00 -0.18090574506E+03  0.18090574506E+03  0.00000000000E+00 0.  1.
         -6    2    1    2    0  503 -0.11499123851E+03  0.38484252903E+02 -0.13010185524E+02  0.21044903404E+03  0.17150949929E+03 0.  0.
        -24    2    3    3    0    0 -0.15045133087E+03  0.29232078697E+02 -0.14694442670E+02  0.17346325839E+03  0.79896545487E+02 0.  0.
          6    2    1    2  501    0  0.11499123851E+03 -0.38484252903E+02  0.90900408611E+02  0.22925267916E+03  0.17201710370E+03 0.  0.
         24    2    5    5    0    0  0.95589020104E+02 -0.40529201036E+01 -0.68791661404E+01  0.12368328021E+03  0.78080368536E+02 0.  0.
          5    1    5    5  501    0  0.19402218402E+02 -0.34431332799E+02  0.97779574752E+02  0.10556939896E+03  0.47000000000E+01 0. -1.
        -13    1    6    6    0    0  0.37753143530E+02  0.13828729752E+02 -0.38255689728E+02  0.55498030682E+02  0.00000000000E+00 0.  1.
         14    1    6    6    0    0  0.57835876574E+02 -0.17881649856E+02  0.31376523588E+02  0.68185249528E+02  0.00000000000E+00 0. -1.
         -5    1    3    3    0  503  0.35460092367E+02  0.92521742054E+01  0.16842571464E+01  0.36985775649E+02  0.47000000000E+01 0.  1.
         13    1    4    4    0    0 -0.26654758065E+02  0.38884402095E+02  0.61872553025E+01  0.47547397216E+02  0.00000000000E+00 0. -1.
        -14    1    4    4    0    0 -0.12379657281E+03 -0.96523233978E+01 -0.20881697973E+02  0.12591586118E+03  0.00000000000E+00 0.  1.
</event>
<event>
12    1  0.8562501E-002  0.2223239E+03  0.7818608E-02  0.1133285E+00
         21   -1    0    0  503  502  0.00000000000E+00  0.00000000000E+00  0.17154532609E+04  0.17154532609E+04  0.00000000000E+00 0. -1.
         21   -1    0    0  501  503 -0.00000000000E+00 -0.00000000000E+00 -0.33742042268E+02  0.33742042268E+02  0.00000000000E+00 0. -1.
          6    2    1    2  501    0  0.12798077343E+03 -0.48109948925E+02  0.47173236207E+03  0.51896087217E+03  0.16761658590E+03 0.  0.
         24    2    3    3    0    0 -0.60406156049E+00 -0.28786231047E+02  0.22717343264E+03  0.24194349758E+03  0.78101699957E+02 0.  0.
         -6    2    1    2    0  502 -0.12798077343E+03  0.48109948925E+02  0.12099788566E+04  0.12302344310E+04  0.17531194007E+03 0.  0.
        -24    2    5    5    0    0 -0.49520007851E+02  0.85095885111E+02  0.53714508344E+03  0.55181610322E+03  0.79263044790E+02 0.  0.
          5    1    3    3  501    0  0.12858483499E+03 -0.19323717878E+02  0.24455892944E+03  0.27701737460E+03  0.47000000000E+01 0. -1.
        -11    1    4    4    0    0  0.13761051725E+02  0.24359122005E+02  0.84854515773E+02  0.89347759997E+02  0.00000000000E+00 0.  1.
         12    1    4    4    0    0 -0.14365113285E+02 -0.53145353052E+02  0.14231891686E+03  0.15259573758E+03  0.00000000000E+00 0. -1.
         -5    1    5    5    0  502 -0.78460765574E+02 -0.36985936186E+02  0.67283377312E+03  0.67841832777E+03  0.47000000000E+01 0.  1.
         11    1    6    6    0    0 -0.68873813706E+02  0.54950966629E+02  0.42687066787E+03  0.43586899183E+03  0.00000000000E+00 0. -1.
        -12    1    6    6    0    0  0.19353805855E+02  0.30144918482E+02  0.11027441557E+03  0.11594711139E+03  0.00000000000E+00 0.  1.
</event>
<event>
12    1  0.8562501E-002  0.2732102E+03  0.7818608E-02  0.1099490E+00
         21   -1    0    0  501  502  0.00000000000E+00  0.00000000000E+00  0.25436740896E+03  0.25436740896E+03  0.00000000000E+00 0. -1.
         21   -1    0    0  502  503 -0.00000000000E+00 -0.00000000000E+00 -0.51739647545E+03  0.51739647545E+03  0.00000000000E+00 0. -1.
         -6    2    1    2    0  503 -0.20055488887E+03 -0.70044706253E+02  0.12247061600E+03  0.29940421537E+03  0.17180019812E+03 0.  0.
        -24    2    3    3    0    0 -0.38554924414E+02 -0.26334414316E+02  0.19221674384E+01  0.92743632398E+02  0.80110567647E+02 0.  0.
          6    2    1    2  501    0  0.20055488887E+03  0.70044706253E+02 -0.38549968249E+03  0.47235966904E+03  0.17142090717E+03 0.  0.
         24    2    5    5    0    0  0.88209322197E+02  0.46285362548E+02 -0.30922823175E+03  0.33442687032E+03  0.79347419472E+02 0.  0.
          5    1    5    5  501    0  0.11234556667E+03  0.23759343705E+02 -0.76271450746E+02  0.13793279872E+03  0.47000000000E+01 0. -1.
        -11    1    6    6    0    0  0.82637886423E+01  0.16857398395E+02 -0.63853670409E+01  0.19830153697E+02  0.00000000000E+00 0.  1.
         12    1    6    6    0    0  0.79945533555E+02  0.29427964153E+02 -0.30284286471E+03  0.31459671663E+03  0.00000000000E+00 0. -1.
         -5    1    3    3    0  503 -0.16199996445E+03 -0.43710291937E+02  0.12054844856E+03  0.20666058297E+03  0.47000000000E+01 0.  1.
         13    1    4    4    0    0 -0.30064444091E+02 -0.25962279220E+02  0.38423787570E+02  0.55265705388E+02  0.00000000000E+00 0. -1.
        -14    1    4    4    0    0 -0.84904803232E+01 -0.37213509631E+00 -0.36501620132E+02  0.37477927009E+02  0.00000000000E+00 0.  1.
</event>
<event>
12    1  0.8562501E-002  0.3165440E+03  0.7818608E-02  0.1077328E+00
         21   -1    0    0  501  502  0.00000000000E+00  0.00000000000E+00  0.18214848321E+04  0.18214848321E+04  0.00000000000E+00 0. -1.
         21   -1    0    0  502  503 -0.00000000000E+00 -0.00000000000E+00 -0.59910274516E+02  0.59910274516E+02  0.00000000000E+00 0. -1.
         -6    2    1    2    0  503 -0.98185686779E+02 -0.24576878118E+03  0.11521039816E+04  0.11946240389E+04  0.17245372452E+03 0.  0.
        -24    2    3    3    0    0 -0.84070038858E+02 -0.26213865206E+03  0.97329124746E+03  0.10144482690E+04  0.77620833043E+02 0.  0.
          6    2    1    2  501    0  0.98185686779E+02  0.24576878118E+03  0.60947057599E+03  0.68677106769E+03  0.17365884233E+03 0.  0.
         24    2    5    5    0    0  0.11940183284E+03  0.15618511576E+03  0.49893783236E+03  0.54284422732E+03  0.84203957747E+02 0.  0.
          5    1    5    5  501    0 -0.21216146058E+02  0.89583665422E+02  0.11053274363E+03  0.14392684037E+03  0.47000000000E+01 0. -1.
        -13    1    6    6    0    0 -0.44621773672E+00  0.28729472684E+01 -0.31966464525E+01  0.43210513557E+01  0.00000000000E+00 0.  1.
         14    1    6    6    0    0  0.11984805057E+03  0.15331216849E+03  0.50213447881E+03  0.53852317596E+03  0.00000000000E+00 0. -1.
         -5    1    3    3    0  503 -0.14115647921E+02  0.16369870881E+02  0.17881273413E+03  0.18017576994E+03  0.47000000000E+01 0.  1.
         13    1    4    4    0    0 -0.53208412685E+02 -0.88095771034E+02  0.46646871909E+03  0.47768720513E+03  0.00000000000E+00 0. -1.
        -14    1    4    4    0    0 -0.30861626173E+02 -0.17404288103E+03  0.50682252837E+03  0.53676106385E+03  0.00000000000E+00 0.  1.
</event>
<event>
12    1  0.8562501E-002  0.4441056E+03  0.7818608E-02  0.1029522E+00
         21   -1    0    0  501  502  0.00000000000E+00  0.00000000000E+00  0.32894308853E+03  0.32894308853E+03  0.00000000000E+00 0. -1.
         21   -1    0    0  502  503 -0.00000000000E+00 -0.00000000000E+00 -0.75784321763E+03  0.75784321763E+03  0.00000000000E+00 0.  1.
         -6    2    1    2    0  503  0.34958124915E+03  0.21383122682E+03 -0.46308558903E+03  0.64136692504E+03  0.17021288566E+03 0.  0.
        -24    2    3    3    0    0  0.30601693162E+03  0.23456869815E+03 -0.39612745244E+03  0.55870269738E+03  0.81011782431E+02 0.  0.
          6    2    1    2  501    0 -0.34958124915E+03 -0.21383122682E+03  0.34185459927E+02  0.44541938112E+03  0.17116931992E+03 0.  0.
         24    2    5    5    0    0 -0.18275298248E+03 -0.18936111526E+03  0.17319790373E+02  0.27589947748E+03  0.81020133026E+02 0.  0.
          5    1    5    5  501    0 -0.16682826667E+03 -0.24470111554E+02  0.16865669554E+02  0.16951990363E+03  0.47000000000E+01 0. -1.
        -11    1    6    6    0    0 -0.78505280002E+02 -0.55352857137E+02 -0.28219255736E+02  0.10011665284E+03  0.00000000000E+00 0.  1.
         12    1    6    6    0    0 -0.10424770248E+03 -0.13400825813E+03  0.45539046109E+02  0.17578282464E+03  0.00000000000E+00 0. -1.
         -5    1    3    3    0  503  0.43564317527E+02 -0.20737471329E+02 -0.66958136589E+02  0.82664227658E+02  0.47000000000E+01 0.  1.
         11    1    4    4    0    0  0.18120155303E+03  0.18704355146E+03 -0.25944923676E+03  0.36760467818E+03  0.00000000000E+00 0. -1.
        -12    1    4    4    0    0  0.12481537859E+03  0.47525146682E+02 -0.13667821568E+03  0.19109801920E+03  0.00000000000E+00 0.  1.
</event>
<event>
12    1  0.8562501E-002  0.2117367E+03  0.7818608E-02  0.1140493E+00
         21   -1    0    0  503  502  0.00000000000E+00  0.00000000000E+00  0.56229954500E+02  0.56229954500E+02  0.00000000000E+00 0.  1.
         21   -1    0    0  501  503 -0.00000000000E+00 -0.00000000000E+00 -0.87718987801E+03  0.87718987801E+03  0.00000000000E+00 0.  1.
          6    2    1    2  501    0  0.83820338436E+02 -0.89184566858E+02 -0.26606587136E+03  0.34003455348E+03  0.17277937826E+03 0.  0.
         24    2    3    3    0    0  0.10572938778E+02  0.12264579865E+02 -0.72768323393E+02  0.10972358331E+03  0.80509806183E+02 0.  0.
         -6    2    1    2    0  502 -0.83820338436E+02  0.89184566858E+02 -0.55489405215E+03  0.59338527904E+03  0.17093549708E+03 0.  0.
        -24    2    5    5    0    0 -0.63370848325E+02  0.12596117153E+03 -0.37053664692E+03  0.40422808737E+03  0.78872420758E+02 0.  0.
          5    1    3    3  501    0  0.73247399658E+02 -0.10144914672E+03 -0.19329754797E+03  0.23031097016E+03  0.47000000000E+01 0. -1.
        -13    1    4    4    0    0 -0.13479299823E+02  0.58357395334E+01  0.13490665253E+02  0.19943556067E+02  0.00000000000E+00 0.  1.
         14    1    4    4    0    0  0.24052238601E+02  0.64288403313E+01 -0.86258988646E+02  0.89780027244E+02  0.00000000000E+00 0. -1.
         -5    1    5    5    0  502 -0.20449490112E+02 -0.36776604668E+02 -0.18435740523E+03  0.18915719167E+03  0.47000000000E+01 0.  1.
         11    1    6    6    0    0  0.54707191019E+01  0.70027194727E+02 -0.20047805999E+03  0.21242690344E+03  0.00000000000E+00 0. -1.
        -12    1    6    6    0    0 -0.68841567427E+02  0.55933976799E+02 -0.17005858693E+03  0.19180118393E+03  0.00000000000E+00 0.  1.
</event>
<event>
12    1  0.8562501E-002  0.1760653E+03  0.7818608E-02  0.1171976E+00
         21   -1    0    0  503  502  0.00000000000E+00  0.00000000000E+00  0.35564254984E+02  0.35564254984E+02  0.00000000000E+00 0.  1.
         21   -1    0    0  501  503 -0.00000000000E+00 -0.00000000000E+00 -0.86552575085E+03  0.86552575085E+03  0.00000000000E+00 0. -1.
          6    2    1    2  501    0 -0.30587033759E+02 -0.22127204224E+02 -0.41855998548E+03  0.45408309412E+03  0.17197039024E+03 0.  0.
         24    2    3    3    0    0 -0.11183427829E+02 -0.68848272543E+02 -0.16859973760E+03  0.19901139113E+03  0.79463882293E+02 0.  0.
         -6    2    1    2    0  502  0.30587033759E+02  0.22127204224E+02 -0.41140151039E+03  0.44700691172E+03  0.17070089798E+03 0.  0.
        -24    2    5    5    0    0  0.56498816066E+02 -0.58689815226E+01 -0.13199486143E+03  0.16496902000E+03  0.81028223209E+02 0.  0.
          5    1    3    3  501    0 -0.19403605929E+02  0.46721068320E+02 -0.24996024787E+03  0.25507170299E+03  0.47000000000E+01 0. -1.
        -13    1    4    4    0    0  0.33848116806E+01 -0.33330419720E+02 -0.87627731380E+01  0.34628889989E+02  0.00000000000E+00 0.  1.
         14    1    4    4    0    0 -0.14568239510E+02 -0.35517852823E+02 -0.15983696446E+03  0.16438250114E+03  0.00000000000E+00 0. -1.
         -5    1    5    5    0  502 -0.25911782308E+02  0.27996185746E+02 -0.27940664896E+03  0.28203789172E+03  0.47000000000E+01 0.  1.
         11    1    6    6    0    0  0.47078789536E+02 -0.34850172194E+02 -0.11735586830E+03  0.13116152923E+03  0.00000000000E+00 0. -1.
        -12    1    6    6    0    0  0.94200265307E+01  0.28981190671E+02 -0.14638993131E+02  0.33807490774E+02  0.00000000000E+00 0.  1.
</event>
<event>
12    1  0.8562501E-002  0.2464330E+03  0.7818608E-02  0.1115778E+00
         21   -1    0    0  501  502  0.00000000000E+00  0.00000000000E+00  0.11244331670E+03  0.11244331670E+03  0.00000000000E+00 0.  1.
         21   -1    0    0  502  503 -0.00000000000E+00 -0.00000000000E+00 -0.92430486200E+03  0.92430486200E+03  0.00000000000E+00 0. -1.
         -6    2    1    2    0  503  0.15767299363E+03 -0.79481876163E+02 -0.74072104656E+03  0.78025219962E+03  0.17014019108E+03 0.  0.
        -24    2    3    3    0    0  0.50585720046E+02 -0.95806512082E+02 -0.34807068021E+03  0.37290642745E+03  0.78537904111E+02 0.  0.
          6    2    1    2  501    0 -0.15767299363E+03  0.79481876163E+02 -0.71140498731E+02  0.25649597909E+03  0.17190426164E+03 0.  0.
         24    2    5    5    0    0 -0.11114669180E+03  0.19042831515E+02  0.10726645178E+02  0.14450538068E+03  0.89724732366E+02 0.  0.
          5    1    5    5  501    0 -0.46526301831E+02  0.60439044648E+02 -0.81867143908E+02  0.11199059841E+03  0.47000000000E+01 0. -1.
        -11    1    6    6    0    0 -0.83891710994E+02  0.41522973754E+02  0.36817563554E+02  0.10058583155E+03  0.00000000000E+00 0.  1.
         12    1    6    6    0    0 -0.27254980804E+02 -0.22480142238E+02 -0.26090918377E+02  0.43919549126E+02  0.00000000000E+00 0. -1.
         -5    1    3    3    0  503  0.10708727358E+03  0.16324635919E+02 -0.39265036636E+03  0.40734577217E+03  0.47000000000E+01 0.  1.
         11    1    4    4    0    0  0.59100883494E+02 -0.27978301264E+02 -0.17593076089E+03  0.18768945735E+03  0.00000000000E+00 0. -1.
        -12    1    4    4    0    0 -0.85151634481E+01 -0.67828210818E+02 -0.17213991931E+03  0.18521697010E+03  0.00000000000E+00 0.  1.
</event>
<event>
12    1  0.8562501E-002  0.1840851E+03  0.7818608E-02  0.1164283E+00
         21   -1    0    0  503  502  0.00000000000E+00  0.00000000000E+00  0.10025273265E+02  0.10025273265E+02  0.00000000000E+00 0.  1.
         21   -1    0    0  501  503 -0.00000000000E+00 -0.00000000000E+00 -0.36773898293E+04  0.36773898293E+04  0.00000000000E+00 0.  1.
          6    2    1    2  501    0 -0.34104915340E+02 -0.56638841034E+02 -0.23901688268E+04  0.23972472434E+04  0.17180285777E+03 0.  0.
         24    2    3    3    0    0 -0.14984805831E+02  0.36383490977E+02 -0.12370522936E+04  0.12402171825E+04  0.79322000376E+02 0.  0.
         -6    2    1    2    0  502  0.34104915340E+02  0.56638841034E+02 -0.12771957292E+04  0.12901678592E+04  0.17009723812E+03 0.  0.
        -24    2    5    5    0    0  0.86384311497E+02  0.45049710983E+02 -0.85642901414E+03  0.86598138867E+03  0.83434905932E+02 0.  0.
          5    1    3    3  501    0 -0.19120109509E+02 -0.93022332011E+02 -0.11531165331E+04  0.11570300609E+04  0.47000000000E+01 0. -1.
        -11    1    4    4    0    0 -0.46664627206E+02  0.30152425449E+02 -0.85488728650E+03  0.85669074280E+03  0.00000000000E+00 0.  1.
         12    1    4    4    0    0  0.31679821375E+02  0.62310655282E+01 -0.38216500715E+03  0.38352643970E+03  0.00000000000E+00 0. -1.
         -5    1    5    5    0  502 -0.52279396157E+02  0.11589130051E+02 -0.42076671511E+03  0.42418647048E+03  0.47000000000E+01 0.  1.
         11    1    6    6    0    0 -0.16143562070E+02  0.13262090839E+02 -0.13225672095E+03  0.13389674337E+03  0.00000000000E+00 0. -1.
        -12    1    6    6    0    0  0.10252787357E+03  0.31787620144E+02 -0.72417229319E+03  0.73208464530E+03  0.00000000000E+00 0.  1.
</event>
<event>
12    1  0.8562501E-002  0.2010515E+03  0.7818608E-02  0.1149267E+00
         21   -1    0    0  503  502  0.00000000000E+00  0.00000000000E+00  0.44422997005E+03  0.44422997005E+03  0.00000000000E+00 0. -1.
         21   -1    0    0  501  503 -0.00000000000E+00 -0.00000000000E+00 -0.12219539496E+03  0.12219539496E+03  0.00000000000E+00 0. -1.
          6    2    1    2  501    0  0.99256409660E+02 -0.20142902474E+02  0.15314649348E+02  0.19968456185E+03  0.17141124345E+03 0.  0.
         24    2    3    3    0    0  0.89891608571E+02  0.12705308464E+00  0.70040141571E+02  0.14039257170E+03  0.81999605621E+02 0.  0.
         -6    2    1    2    0  502 -0.99256409660E+02  0.20142902474E+02  0.30671992574E+03  0.36674080315E+03  0.17367824409E+03 0.  0.
        -24    2    5    5    0    0 -0.48075893519E+02  0.50636672681E+02  0.90418358044E+02  0.14233542567E+03  0.84903061021E+02 0.  0.
          5    1    3    3  501    0  0.93648010890E+01 -0.20269955559E+02 -0.54725492224E+02  0.59291990158E+02  0.47000000000E+01 0. -1.
        -11    1    4    4    0    0  0.70193932500E+02 -0.29472175420E+02  0.19480023281E+02  0.78582877212E+02  0.00000000000E+00 0.  1.
         12    1    4    4    0    0  0.19697676071E+02  0.29599228505E+02  0.50560118291E+02  0.61809694484E+02  0.00000000000E+00 0. -1.
         -5    1    5    5    0  502 -0.51180516142E+02 -0.30493770207E+02  0.21630156770E+03  0.22440537748E+03  0.47000000000E+01 0.  1.
         11    1    6    6    0    0 -0.16707314105E+01 -0.10260110105E+02  0.58448937556E+02  0.59366147797E+02  0.00000000000E+00 0. -1.
        -12    1    6    6    0    0 -0.46405162108E+02  0.60896782786E+02  0.31969420487E+02  0.82969277870E+02  0.00000000000E+00 0.  1.
</event>
<event>
12    1  0.8562501E-002  0.1739968E+03  0.7818608E-02  0.1173898E+00
         21   -1    0    0  503  502  0.00000000000E+00  0.00000000000E+00  0.10124926252E+04  0.10124926252E+04  0.00000000000E+00 0. -1.
         21   -1    0    0  501  503 -0.00000000000E+00 -0.00000000000E+00 -0.63683925772E+02  0.63683925772E+02  0.00000000000E+00 0. -1.
          6    2    1    2  501    0  0.19902870208E+00  0.21881780120E+02  0.82277534385E+02  0.19246943730E+03  0.17261529399E+03 0.  0.
         24    2    3    3    0    0 -0.26106563237E+02 -0.14952069455E+02  0.10969345790E+03  0.13934280082E+03  0.80490026771E+02 0.  0.
         -6    2    1    2    0  502 -0.19902870208E+00 -0.21881780120E+02  0.86653116506E+03  0.88370711369E+03  0.17199753150E+03 0.  0.
        -24    2    5    5    0    0 -0.54939487944E+02 -0.50874361081E+02  0.46075010530E+03  0.47319834875E+03  0.77585241989E+02 0.  0.
          5    1    3    3  501    0  0.26305591939E+02  0.36833849575E+02 -0.27415923515E+02  0.53126636482E+02  0.47000000000E+01 0. -1.
        -11    1    4    4    0    0 -0.31085010526E+02 -0.38823212556E+02  0.35122170166E+02  0.60885848518E+02  0.00000000000E+00 0.  1.
         12    1    4    4    0    0  0.49784472899E+01  0.23871143101E+02  0.74571287735E+02  0.78456952304E+02  0.00000000000E+00 0. -1.
         -5    1    5    5    0  502  0.54740459242E+02  0.28992580961E+02  0.40578105976E+03  0.41050876493E+03  0.47000000000E+01 0.  1.
         13    1    6    6    0    0 -0.51373019195E+02 -0.37794880370E+02  0.45322981684E+03  0.45769521186E+03  0.00000000000E+00 0. -1.
        -14    1    6    6    0    0 -0.35664687493E+01 -0.13079480711E+02  0.75202884596E+01  0.15503136893E+02  0.00000000000E+00 0.  1.
</event>
<event>
12    1  0.8562501E-002  0.1731859E+03  0.7818608E-02  0.1174650E+00
         21   -1    0    0  503  502  0.00000000000E+00  0.00000000000E+00  0.89514576221E+02  0.89514576221E+02  0.00000000000E+00 0.  1.
         21   -1    0    0  501  503 -0.00000000000E+00 -0.00000000000E+00 -0.34963087740E+03  0.34963087740E+03  0.00000000000E+00 0.  1.
          6    2    1    2  501    0  0.96960198103E+01 -0.19190336316E+02 -0.17596546463E+03  0.24689511401E+03  0.17184606708E+03 0.  0.
         24    2    3    3    0    0 -0.55955907120E+02 -0.35854531011E+02 -0.89664376743E+02  0.13708692367E+03  0.79602218876E+02 0.  0.
         -6    2    1    2    0  502 -0.96960198103E+01  0.19190336316E+02 -0.84150836552E+02  0.19225033961E+03  0.17151253010E+03 0.  0.
        -24    2    5    5    0    0  0.42213173945E+02  0.49000632209E+02 -0.78685170219E+02  0.13195787204E+03  0.83895828083E+02 0.  0.
          5    1    3    3  501    0  0.65651926930E+02  0.16664194695E+02 -0.86301087884E+02  0.10980819033E+03  0.47000000000E+01 0. -1.
        -11    1    4    4    0    0 -0.10941596594E+02 -0.28985260577E+02 -0.85992887088E+02  0.91403722552E+02  0.00000000000E+00 0.  1.
         12    1    4    4    0    0 -0.45014310526E+02 -0.68692704341E+01 -0.36714896557E+01  0.45683201121E+02  0.00000000000E+00 0. -1.
         -5    1    5    5    0  502 -0.51909193756E+02 -0.29810295893E+02 -0.54656663335E+01  0.60292467573E+02  0.47000000000E+01 0.  1.
         13    1    6    6    0    0 -0.19960197504E+02  0.35905167756E+02 -0.41229348802E+02  0.58201802022E+02  0.00000000000E+00 0. -1.
        -14    1    6    6    0    0  0.62173371449E+02  0.13095464453E+02 -0.37455821416E+02  0.73756070018E+02  0.00000000000E+00 0.  1.
</event>
<event>
12    1  0.8562501E-002  0.2094718E+03  0.7818608E-02  0.1142044E+00
         21   -1    0    0  503  502  0.00000000000E+00  0.00000000000E+00  0.18415993236E+04  0.18415993236E+04  0.00000000000E+00 0.  1.
         21   -1    0    0  501  503 -0.00000000000E+00 -0.00000000000E+00 -0.27552443380E+02  0.27552443380E+02  0.00000000000E+00 0. -1.
          6    2    1    2  501    0  0.10359419378E+03 -0.59073959609E+02  0.56233325147E+03  0.60008092808E+03  0.17221191845E+03 0.  0.
         24    2    3    3    0    0  0.11791578804E+03 -0.93424210671E+02  0.47034981414E+03  0.50074266480E+03  0.82958136898E+02 0.  0.
         -6    2    1    2    0  502 -0.10359419378E+03  0.59073959609E+02  0.12517136287E+04  0.12690708389E+04  0.17184963207E+03 0.  0.
        -24    2    5    5    0    0 -0.10214730957E+03  0.94035565409E+02  0.11543534528E+04  0.11655068431E+04  0.81225285552E+02 0.  0.
          5    1    3    3  501    0 -0.14321594262E+02  0.34350251062E+02  0.91983437326E+02  0.99338263285E+02  0.47000000000E+01 0. -1.
        -11    1    4    4    0    0  0.44472746060E+02 -0.21830535198E+02  0.28161563027E+03  0.28594013468E+03  0.00000000000E+00 0.  1.
         12    1    4    4    0    0  0.73443041979E+02 -0.71593675473E+02  0.18873418387E+03  0.21480253012E+03  0.00000000000E+00 0. -1.
         -5    1    5    5    0  502 -0.14468842046E+01 -0.34961605800E+02  0.97360175917E+02  0.10356399572E+03  0.47000000000E+01 0.  1.
         11    1    6    6    0    0 -0.52668917500E-01  0.19919270579E+02  0.47795663974E+02  0.51780359299E+02  0.00000000000E+00 0. -1.
        -12    1    6    6    0    0 -0.10209464065E+03  0.74116294830E+02  0.11065577888E+04  0.11137264838E+04  0.00000000000E+00 0.  1.
</event>
<event>
12    1  0.8562501E-002  0.1765232E+03  0.7818608E-02  0.1171432E+00
         21   -1    0    0  501  502  0.00000000000E+00  0.00000000000E+00  0.40239781861E+03  0.40239781861E+03  0.00000000000E+00 0. -1.
         21   -1    0    0  502  503 -0.00000000000E+00 -0.00000000000E+00 -0.78959521318E+02  0.78959521318E+02  0.00000000000E+00 0. -1.
         -6    2    1    2    0  503 -0.11756622601E+02 -0.34001199852E+02  0.12466788004E+03  0.21610765753E+03  0.17281822694E+03 0.  0.
        -24    2    3    3    0    0  0.33867541596E+02 -0.67149992114E+02  0.42420455634E+02  0.11627211471E+03  0.77868978349E+02 0.  0.
          6    2    1    2  501    0  0.11756622601E+02  0.34001199852E+02  0.19877041725E+03  0.26524968240E+03  0.17191106850E+03 0.  0.
         24    2    5    5    0    0  0.27922086734E+01 -0.43173863937E+02  0.14178042062E+03  0.16878051166E+03  0.80705603822E+02 0.  0.
          5    1    5    5  501    0  0.89644139280E+01  0.77175063789E+02  0.56989996631E+02  0.96469170744E+02  0.47000000000E+01 0. -1.
        -13    1    6    6    0    0 -0.37535155859E+02 -0.32902028625E+02  0.79838172770E+02  0.94157130608E+02  0.00000000000E+00 0.  1.
         14    1    6    6    0    0  0.40327364533E+02 -0.10271835312E+02  0.61942247848E+02  0.74623381050E+02  0.00000000000E+00 0. -1.
         -5    1    3    3    0  503 -0.45624164197E+02  0.33148792262E+02  0.82247424411E+02  0.99835542816E+02  0.47000000000E+01 0.  1.
         13    1    4    4    0    0  0.44170505377E+02 -0.74613670245E+02  0.51309847662E+02  0.10075184266E+03  0.00000000000E+00 0. -1.
        -14    1    4    4    0    0 -0.10302963781E+02  0.74636781309E+01 -0.88893920282E+01  0.15520272052E+02  0.00000000000E+00 0.  1.
</event>
<event>
12    1  0.8562501E-002  0.1749726E+03  0.7818608E-02  0.1174465E+00
         21   -1    0    0  501  502  0.00000000000E+00  0.00000000000E+00  0.47679695158E+03  0.47679695158E+03  0.00000000000E+00 0.  1.
         21   -1    0    0  502  503 -0.00000000000E+00 -0.00000000000E+00 -0.67491387115E+02  0.67491387115E+02  0.00000000000E+00 0.  1.
         -6    2    1    2    0  503  0.45118655533E+01 -0.29460214352E+02  0.28736054263E+03  0.33643943203E+03  0.17241562808E+03 0.  0.
        -24    2    3    3    0    0 -0.60930095179E+02 -0.40128878903E+02  0.18851312835E+03  0.21732028186E+03  0.79800388014E+02 0.  0.
          6    2    1    2  501    0 -0.45118655533E+01  0.29460214352E+02  0.12194502184E+03  0.20784890667E+03  0.16565723193E+03 0.  0.
         24    2    5    5    0    0 -0.21694663231E+02 -0.13769720704E+02  0.13583455495E+03  0.15907304223E+03  0.78695252880E+02 0.  0.
          5    1    5    5  501    0  0.17182797677E+02  0.43229935057E+02 -0.13889533113E+02  0.48775864433E+02  0.47000000000E+01 0. -1.
        -11    1    6    6    0    0 -0.40803012871E+02 -0.17016454403E+02  0.34983383830E+02  0.56376260287E+02  0.00000000000E+00 0.  1.
         12    1    6    6    0    0  0.19108349640E+02  0.32467336982E+01  0.10085117112E+03  0.10269678195E+03  0.00000000000E+00 0. -1.
         -5    1    3    3    0  503  0.65441960732E+02  0.10668664550E+02  0.98847414282E+02  0.11911915017E+03  0.47000000000E+01 0.  1.
         11    1    4    4    0    0 -0.56800158546E+02 -0.15707801534E+02  0.52047619890E+02  0.78625363440E+02  0.00000000000E+00 0. -1.
        -12    1    4    4    0    0 -0.41299366330E+01 -0.24421077368E+02  0.13646550846E+03  0.13869491842E+03  0.00000000000E+00 0.  1.
</event>
<event>
12    1  0.8562501E-002  0.2420110E+03  0.7818608E-02  0.1118721E+00
         21   -1    0    0  503  502  0.00000000000E+00  0.00000000000E+00  0.69227580563E+03  0.69227580563E+03  0.00000000000E+00 0. -1.
         21   -1    0    0  501  503 -0.00000000000E+00 -0.00000000000E+00 -0.95141419579E+02  0.95141419579E+02  0.00000000000E+00 0. -1.
          6    2    1    2  501    0  0.10626016886E+03 -0.13095842138E+03  0.43211080506E+03  0.49449724367E+03  0.17136640432E+03 0.  0.
         24    2    3    3    0    0  0.12015975893E+03 -0.50260851568E+02  0.33388019390E+03  0.36652599946E+03  0.76816687824E+02 0.  0.
         -6    2    1    2    0  502 -0.10626016886E+03  0.13095842138E+03  0.16502358099E+03  0.29291998154E+03  0.17357419649E+03 0.  0.
        -24    2    5    5    0    0 -0.76282018104E+01  0.11609605447E+03  0.83940784863E+02  0.16429002896E+03  0.80054199918E+02 0.  0.
          5    1    3    3  501    0 -0.13899590074E+02 -0.80697569811E+02  0.98230611158E+02  0.12797124422E+03  0.47000000000E+01 0. -1.
        -13    1    4    4    0    0  0.10318596503E+03 -0.13061112532E+02  0.18609385335E+03  0.21318737837E+03  0.00000000000E+00 0.  1.
         14    1    4    4    0    0  0.16973793905E+02 -0.37199739035E+02  0.14778634055E+03  0.15333862109E+03  0.00000000000E+00 0. -1.
         -5    1    5    5    0  502 -0.98631967048E+02  0.14862366908E+02  0.81082796131E+02  0.12862995259E+03  0.47000000000E+01 0.  1.
         13    1    6    6    0    0 -0.15922099629E+02  0.12284286925E+03  0.59101459531E+02  0.13724746374E+03  0.00000000000E+00 0. -1.
        -14    1    6    6    0    0  0.82938978190E+01 -0.67468147833E+01  0.24839325332E+02  0.27042565220E+02  0.00000000000E+00 0.  1.
</event>
<event>
12    1  0.8562501E-002  0.2261930E+03  0.7818608E-02  0.1129667E+00
         21   -1    0    0  501  502  0.00000000000E+00  0.00000000000E+00  0.66666270739E+02  0.66666270739E+02  0.00000000000E+00 0.  1.
         21   -1    0    0  502  503 -0.00000000000E+00 -0.00000000000E+00 -0.90553738803E+03  0.90553738803E+03  0.00000000000E+00 0.  1.
         -6    2    1    2    0  503  0.10461024983E+03  0.99421882305E+02 -0.61470699222E+03  0.65500226350E+03  0.17417021517E+03 0.  0.
        -24    2    3    3    0    0  0.11219465613E+03  0.22083756692E+02 -0.29687129184E+03  0.32777095184E+03  0.78904371100E+02 0.  0.
          6    2    1    2  501    0 -0.10461024983E+03 -0.99421882305E+02 -0.22416412507E+03  0.31720139527E+03  0.17186958761E+03 0.  0.
         24    2    5    5    0    0 -0.84785859126E+02 -0.64865436342E+02 -0.56258044244E+02  0.14456971683E+03  0.79619524875E+02 0.  0.
          5    1    5    5  501    0 -0.19824390700E+02 -0.34556445963E+02 -0.16790608083E+03  0.17263167845E+03  0.47000000000E+01 0. -1.
        -11    1    6    6    0    0 -0.93147611718E+01 -0.10517823728E+02  0.19902377431E+02  0.24361732678E+02  0.00000000000E+00 0.  1.
         12    1    6    6    0    0 -0.75471097954E+02 -0.54347612614E+02 -0.76160421674E+02  0.12020798415E+03  0.00000000000E+00 0. -1.
         -5    1    3    3    0  503 -0.75844063047E+01  0.77338125614E+02 -0.31783570038E+03  0.32723131166E+03  0.47000000000E+01 0.  1.
         11    1    4    4    0    0  0.53743026212E+02  0.13619026192E+02 -0.52468150198E+02  0.76332807665E+02  0.00000000000E+00 0. -1.
        -12    1    4    4    0    0  0.58451629919E+02  0.84647304998E+01 -0.24440314164E+03  0.25143814418E+03  0.00000000000E+00 0.  1.
</event>
<event>
12    1  0.8562501E-002  0.1727364E+03  0.7818608E-02  0.1175292E+00
         21   -1    0    0  503  502  0.00000000000E+00  0.00000000000E+00  0.24227157331E+03  0.24227157331E+03  0.00000000000E+00 0.  1.
         21   -1    0    0  501  503 -0.00000000000E+00 -0.00000000000E+00 -0.21180054327E+03  0.21180054327E+03  0.00000000000E+00 0.  1.
          6    2    1    2  501    0 -0.72598371932E+01 -0.93507041370E+01 -0.13228354580E+03  0.21673921316E+03  0.17127991455E+03 0.  0.
         24    2    3    3    0    0 -0.48495193015E+02 -0.18342701119E+02 -0.14401509577E+03  0.17268322783E+03  0.79943173154E+02 0.  0.
         -6    2    1    2    0  502  0.72598371932E+01  0.93507041370E+01  0.16275457584E+03  0.23733290342E+03  0.17233024744E+03 0.  0.
        -24    2    5    5    0    0 -0.38277154392E+02  0.31377343913E+01  0.16826630513E+03  0.19080669838E+03  0.81355152133E+02 0.  0.
          5    1    3    3  501    0  0.41235355822E+02  0.89919969817E+01  0.11731549964E+02  0.44055985337E+02  0.47000000000E+01 0. -1.
        -11    1    4    4    0    0 -0.62779742271E+02 -0.54289438321E+01 -0.61865625706E+02  0.88306993578E+02  0.00000000000E+00 0.  1.
         12    1    4    4    0    0  0.14284549256E+02 -0.12913757287E+02 -0.82149470060E+02  0.84376234247E+02  0.00000000000E+00 0. -1.
         -5    1    5    5    0  502  0.45536991585E+02  0.62129697457E+01 -0.55117292830E+01  0.46526205039E+02  0.47000000000E+01 0.  1.
         11    1    6    6    0    0 -0.39034533075E+02 -0.22875821323E+02  0.41492116907E+02  0.61388873088E+02  0.00000000000E+00 0. -1.
        -12    1    6    6    0    0  0.75737868317E+00  0.26013555714E+02  0.12677418822E+03  0.12941782529E+03  0.00000000000E+00 0.  1.
</event>
<event>
12    1  0.8562501E-002  0.1797895E+03  0.7818608E-02  0.1168378E+00
         21   -1    0    0  503  502  0.00000000000E+00  0.00000000000E+00  0.62165575631E+03  0.62165575631E+03  0.00000000000E+00 0.  1.
         21   -1    0    0  501  503 -0.00000000000E+00 -0.00000000000E+00 -0.60304912707E+02  0.60304912707E+02  0.00000000000E+00 0.  1.
          6    2    1    2  501    0  0.24664493985E+02 -0.49429333489E+02  0.15183257070E+03  0.23532403706E+03  0.17109259662E+03 0.  0.
         24    2    3    3    0    0  0.39151568209E+02  0.28490812824E+02  0.11706424772E+03  0.14865021861E+03  0.77770673725E+02 0.  0.
         -6    2    1    2    0  502 -0.24664493985E+02  0.49429333489E+02  0.40951827290E+03  0.44663663196E+03  0.16949179594E+03 0.  0.
        -24    2    5    5    0    0 -0.20569680614E+01  0.11580541864E+02  0.81175307325E+02  0.11531379197E+03  0.81052452342E+02 0.  0.
          5    1    3    3  501    0 -0.14487074224E+02 -0.77920146313E+02  0.34768322984E+02  0.86673818446E+02  0.47000000000E+01 0. -1.
        -11    1    4    4    0    0  0.38420112220E+02  0.13894138074E+02  0.12009587898E+02  0.42583826710E+02  0.00000000000E+00 0.  1.
         12    1    4    4    0    0  0.73145598870E+00  0.14596674750E+02  0.10505465982E+03  0.10606639190E+03  0.00000000000E+00 0. -1.
         -5    1    5    5    0  502 -0.22607525923E+02  0.37848791624E+02  0.32834296558E+03  0.33132283999E+03  0.47000000000E+01 0.  1.
         11    1    6    6    0    0  0.20148949968E+02  0.40617762566E+02  0.45619526492E+02  0.64318924261E+02  0.00000000000E+00 0. -1.
        -12    1    6    6    0    0 -0.22205918030E+02 -0.29037220701E+02  0.35555780832E+02  0.50994867704E+02  0.00000000000E+00 0.  1.
</event>
<event>
12    1  0.8562501E-002  0.2060338E+03  0.7818608E-02  0.1144958E+00
         21   -1    0    0  501  502  0.00000000000E+00  0.00000000000E+00  0.13727439469E+03  0.13727439469E+03  0.00000000000E+00 0. -1.
         21   -1    0    0  502  503 -0.00000000000E+00 -0.00000000000E+00 -0.31154667180E+03  0.31154667180E+03  0.00000000000E+00 0. -1.
         -6    2    1    2    0  503  0.77533051109E+02  0.82819399378E+02 -0.61894830227E+02  0.21413269191E+03  0.17073784820E+03 0.  0.
        -24    2    3    3    0    0  0.10483354888E+03  0.73805769448E+02 -0.63287181137E+01  0.15139318666E+03  0.80265059142E+02 0.  0.
          6    2    1    2  501    0 -0.77533051109E+02 -0.82819399378E+02 -0.11237744689E+03  0.23468837459E+03  0.17198696367E+03 0.  0.
         24    2    5    5    0    0 -0.97065095360E+02 -0.23994974538E+02 -0.11537299314E+03  0.17245593122E+03  0.80204296177E+02 0.  0.
          5    1    5    5  501    0  0.19532044251E+02 -0.58824424840E+02  0.29955462578E+01  0.62232443370E+02  0.47000000000E+01 0. -1.
        -13    1    6    6    0    0 -0.88281892421E+02  0.75808242542E+01 -0.56537956765E+02  0.10510804908E+03  0.00000000000E+00 0.  1.
         14    1    6    6    0    0 -0.87832029392E+01 -0.31575798792E+02 -0.58835036378E+02  0.67347882141E+02  0.00000000000E+00 0. -1.
         -5    1    3    3    0  503 -0.27300497774E+02  0.90136299296E+01 -0.55566112113E+02  0.62739505247E+02  0.47000000000E+01 0.  1.
         11    1    4    4    0    0  0.97779070008E+01  0.66794426101E+01  0.27722376524E+02  0.30145523366E+02  0.00000000000E+00 0. -1.
        -12    1    4    4    0    0  0.95055641881E+02  0.67126326838E+02 -0.34051094638E+02  0.12124766329E+03  0.00000000000E+00 0.  1.
</event>
<event>
12    1  0.8562501E-002  0.1762429E+03  0.7818608E-02  0.1172284E+00
         21   -1    0    0  501  502  0.00000000000E+00  0.00000000000E+00  0.75307356440E+03  0.75307356440E+03  0.00000000000E+00 0. -1.
         21   -1    0    0  502  503 -0.00000000000E+00 -0.00000000000E+00 -0.92664142495E+02  0.92664142495E+02  0.00000000000E+00 0. -1.
         -6    2    1    2    0  503 -0.18589917462E+02  0.14899973187E+01  0.11658567298E+02  0.17347346063E+03  0.17207357213E+03 0.  0.
        -24    2    3    3    0    0  0.43853597595E+02  0.34983876447E+02  0.24688074851E+02  0.10127311036E+03  0.80620916694E+02 0.  0.
          6    2    1    2  501    0  0.18589917462E+02 -0.14899973187E+01  0.64875085461E+03  0.67226424627E+03  0.17525336041E+03 0.  0.
         24    2    5    5    0    0  0.29918560230E+02 -0.53058581969E+02  0.55092080496E+03  0.56099670525E+03  0.86563483060E+02 0.  0.
          5    1    5    5  501    0 -0.11328642768E+02  0.51568584650E+02  0.97830049645E+02  0.11126754101E+03  0.47000000000E+01 0. -1.
        -13    1    6    6    0    0  0.42344550468E+02 -0.36511923090E+02  0.15925930355E+03  0.16878894291E+03  0.00000000000E+00 0.  1.
         14    1    6    6    0    0 -0.12425990237E+02 -0.16546658878E+02  0.39166150141E+03  0.39220776234E+03  0.00000000000E+00 0. -1.
         -5    1    3    3    0  503 -0.62443515057E+02 -0.33493879129E+02 -0.13029507553E+02  0.72200350268E+02  0.47000000000E+01 0.  1.
         13    1    4    4    0    0  0.42267372263E+02  0.32374386211E+02  0.51626887018E+02  0.74161763084E+02  0.00000000000E+00 0. -1.
        -14    1    4    4    0    0  0.15862253316E+01  0.26094902364E+01 -0.26938812167E+02  0.27111347275E+02  0.00000000000E+00 0.  1.
</event>
<event>
12    1  0.8562501E-002  0.1975842E+03  0.7818608E-02  0.1153424E+00
         21   -1    0    0  503  502  0.00000000000E+00  0.00000000000E+00  0.31253752705E+03  0.31253752705E+03  0.00000000000E+00 0. -1.
         21   -1    0    0  501  503 -0.00000000000E+00 -0.00000000000E+00 -0.12026114539E+03  0.12026114539E+03  0.00000000000E+00 0. -1.
          6    2    1    2  501    0  0.45237279708E+02  0.73132888943E+02  0.10057299211E+03  0.22170802838E+03  0.17788955052E+03 0.  0.
         24    2    3    3    0    0 -0.28137151109E+02  0.88632702268E+02  0.57373652784E+02  0.13503436323E+03  0.79341590835E+02 0.  0.
         -6    2    1    2    0  502 -0.45237279708E+02 -0.73132888943E+02  0.91703389549E+02  0.21109064406E+03  0.16957274969E+03 0.  0.
        -24    2    5    5    0    0  0.15684614438E+02 -0.89665869995E+02  0.81472605082E+02  0.14696907515E+03  0.81707700373E+02 0.  0.
          5    1    3    3  501    0  0.73374430817E+02 -0.15499813326E+02  0.43199339330E+02  0.86673665143E+02  0.47000000000E+01 0. -1.
        -13    1    4    4    0    0  0.21364694953E+02  0.46822154418E+01  0.22879044391E+02  0.31651603500E+02  0.00000000000E+00 0.  1.
         14    1    4    4    0    0 -0.49501846062E+02  0.83950486827E+02  0.34494608393E+02  0.10338275973E+03  0.00000000000E+00 0. -1.
         -5    1    5    5    0  502 -0.60921894146E+02  0.16532981052E+02  0.10230784467E+02  0.64121568911E+02  0.47000000000E+01 0.  1.
         13    1    6    6    0    0 -0.19764965804E+02 -0.53456877764E+02  0.77417353549E+02  0.96133960097E+02  0.00000000000E+00 0. -1.
        -14    1    6    6    0    0  0.35449580242E+02 -0.36208992231E+02  0.40552515334E+01  0.50835115055E+02  0.00000000000E+00 0.  1.
</event>
<event>
12    1  0.8562501E-002  0.2207568E+03  0.7818608E-02  0.1133569E+00
         21   -1    0    0  501  502  0.00000000000E+00  0.00000000000E+00  0.38437316934E+03  0.38437316934E+03  0.00000000000E+00 0. -1.
         21   -1    0    0  502  503 -0.00000000000E+00 -0.00000000000E+00 -0.16150224573E+03  0.16150224573E+03  0.00000000000E+00 0.  1.
         -6    2    1    2    0  503  0.13688832023E+03 -0.66487970785E+01 -0.16760432159E+02  0.22005837662E+03  0.17135389788E+03 0.  0.
        -24    2    3    3    0    0  0.27534857666E+02  0.32855270073E+02  0.62497653692E+00  0.10240170010E+03  0.92995055938E+02 0.  0.
          6    2    1    2  501    0 -0.13688832023E+03  0.66487970785E+01  0.23963135576E+03  0.32581703844E+03  0.17306339058E+03 0.  0.
         24    2    5    5    0    0 -0.15225845100E+03 -0.26643387167E+02  0.14987857360E+03  0.22874869985E+03  0.77264965376E+02 0.  0.
          5    1    5    5  501    0  0.15370130778E+02  0.33292184246E+02  0.89752782163E+02  0.97068338597E+02  0.47000000000E+01 0. -1.
        -11    1    6    6    0    0 -0.10701216170E+03 -0.29845311604E+01  0.53492883768E+02  0.11967455365E+03  0.00000000000E+00 0.  1.
         12    1    6    6    0    0 -0.45246289304E+02 -0.23658856007E+02  0.96385689833E+02  0.10907414619E+03  0.00000000000E+00 0. -1.
         -5    1    3    3    0  503  0.10935346256E+03 -0.39504067151E+02 -0.17385408696E+02  0.11765667653E+03  0.47000000000E+01 0.  1.
         11    1    4    4    0    0 -0.26862505506E+02 -0.11286642339E+02 -0.11465328324E+02  0.31311918672E+02  0.00000000000E+00 0. -1.
        -12    1    4    4    0    0  0.54397363172E+02  0.44141912412E+02  0.12090304861E+02  0.71089781425E+02  0.00000000000E+00 0.  1.
</event>
<event>
12    1  0.8562501E-002  0.1984001E+03  0.7818608E-02  0.1153162E+00
         21   -1    0    0  501  502  0.00000000000E+00  0.00000000000E+00  0.58734431215E+02  0.58734431215E+02  0.00000000000E+00 0.  1.
         21   -1    0    0  502  503 -0.00000000000E+00 -0.00000000000E+00 -0.80477362635E+03  0.80477362635E+03  0.00000000000E+00 0.  1.
         -6    2    1    2    0  503 -0.76441184799E+02  0.22502743326E+02 -0.57635165796E+03  0.60954396249E+03  0.18169474504E+03 0.  0.
        -24    2    3    3    0    0 -0.11024983401E+03 -0.22587113933E+02 -0.46496047932E+03  0.48461916643E+03  0.77474418562E+02 0.  0.
          6    2    1    2  501    0  0.76441184799E+02 -0.22502743326E+02 -0.16968753717E+03  0.25396409508E+03  0.17133088784E+03 0.  0.
         24    2    5    5    0    0 -0.19073984763E+02  0.20145641756E+02 -0.86639045003E+02  0.12031839026E+03  0.78743426000E+02 0.  0.
          5    1    5    5  501    0  0.95515169562E+02 -0.42648385082E+02 -0.83048492171E+02  0.13364570483E+03  0.47000000000E+01 0. -1.
        -13    1    6    6    0    0 -0.34159207412E+02 -0.15666491120E+02 -0.18523243653E+02  0.41897505301E+02  0.00000000000E+00 0.  1.
         14    1    6    6    0    0  0.15085222649E+02  0.35812132877E+02 -0.68115801350E+02  0.78420884955E+02  0.00000000000E+00 0. -1.
         -5    1    3    3    0  503  0.33808649209E+02  0.45089857259E+02 -0.11139117865E+03  0.12492479605E+03  0.47000000000E+01 0.  1.
         11    1    4    4    0    0 -0.67347090641E+02  0.19080268495E+02 -0.32436932785E+03  0.33183602594E+03  0.00000000000E+00 0. -1.
        -12    1    4    4    0    0 -0.42902743367E+02 -0.41667382428E+02 -0.14059115147E+03  0.15278314049E+03  0.00000000000E+00 0.  1.
</event>
<event>
12    1  0.8562501E-002  0.2170109E+03  0.7818608E-02  0.1136176E+00
         21   -1    0    0  501  502  0.00000000000E+00  0.00000000000E+00  0.31600116712E+03  0.31600116712E+03  0.00000000000E+00 0. -1.
         21   -1    0    0  502  503 -0.00000000000E+00 -0.00000000000E+00 -0.17348373324E+03  0.17348373324E+03  0.00000000000E+00 0.  1.
         -6    2    1    2    0  503 -0.12876258233E+03  0.30537820167E+02 -0.20896328898E+02  0.21801460772E+03  0.17199230085E+03 0.  0.
        -24    2    3    3    0    0 -0.12610154150E+03 -0.24564815805E+02 -0.45590583743E+02  0.15739053782E+03  0.78665437933E+02 0.  0.
          6    2    1    2  501    0  0.12876258233E+03 -0.30537820167E+02  0.16341376277E+03  0.27147029264E+03  0.17169653710E+03 0.  0.
         24    2    5    5    0    0  0.83694942560E+02 -0.85242404908E+02  0.95057910166E+02  0.17288887283E+03  0.81138431450E+02 0.  0.
          5    1    5    5  501    0  0.45067639769E+02  0.54704584741E+02  0.68355852605E+02  0.98581419808E+02  0.47000000000E+01 0. -1.
        -13    1    6    6    0    0  0.32675479584E+02 -0.68123889441E+02  0.91914380251E+02  0.11898237086E+03  0.00000000000E+00 0.  1.
         14    1    6    6    0    0  0.51019462976E+02 -0.17118515467E+02  0.31435299152E+01  0.53906501968E+02  0.00000000000E+00 0. -1.
         -5    1    3    3    0  503 -0.26610408308E+01  0.55102635972E+02  0.24694254845E+02  0.60624069904E+02  0.47000000000E+01 0.  1.
         13    1    4    4    0    0 -0.11086200185E+01 -0.21294244327E+01  0.16051407992E+02  0.16229947175E+02  0.00000000000E+00 0. -1.
        -14    1    4    4    0    0 -0.12499292148E+03 -0.22435391372E+02 -0.61641991735E+02  0.14116059064E+03  0.00000000000E+00 0.  1.
</event>
<event>
12    1  0.8562501E-002  0.1746235E+03  0.7818608E-02  0.1174111E+00
         21   -1    0    0  503  502  0.00000000000E+00  0.00000000000E+00  0.31480553336E+03  0.31480553336E+03  0.00000000000E+00 0.  1.
         21   -1    0    0  501  503 -0.00000000000E+00 -0.00000000000E+00 -0.97407936922E+02  0.97407936922E+02  0.00000000000E+00 0.  1.
          6    2    1    2  501    0  0.10595465371E+01  0.33284524646E+02  0.75524510956E+02  0.19025597395E+03  0.17141879024E+03 0.  0.
         24    2    3    3    0    0  0.21117300215E+02  0.26119028028E+02 -0.22759085304E+02  0.89581185058E+02  0.79866568469E+02 0.  0.
         -6    2    1    2    0  502 -0.10595465371E+01 -0.33284524646E+02  0.14187308548E+03  0.22195749633E+03  0.16741617477E+03 0.  0.
        -24    2    5    5    0    0 -0.20180403303E+02 -0.64301508814E+02  0.15252424556E+03  0.18370572929E+03  0.77085775463E+02 0.  0.
          5    1    3    3  501    0 -0.20057753678E+02  0.71654966181E+01  0.98283596260E+02  0.10067478889E+03  0.47000000000E+01 0. -1.
        -13    1    4    4    0    0  0.32922197279E+02  0.48885459950E+02 -0.24609979387E+02  0.63869479046E+02  0.00000000000E+00 0.  1.
         14    1    4    4    0    0 -0.11804897064E+02 -0.22766431922E+02  0.18508940829E+01  0.25711706012E+02  0.00000000000E+00 0. -1.
         -5    1    5    5    0  502  0.19120856766E+02  0.31016984168E+02 -0.10651160081E+02  0.38251767037E+02  0.47000000000E+01 0.  1.
         11    1    6    6    0    0 -0.15730407381E+02 -0.22934850002E+02  0.23903116935E+01  0.27913556760E+02  0.00000000000E+00 0. -1.
        -12    1    6    6    0    0 -0.44499959221E+01 -0.41366658812E+02  0.15013393387E+03  0.15579217253E+03  0.00000000000E+00 0.  1.
</event>
<event>
12    1  0.8562501E-002  0.2548887E+03  0.7818608E-02  0.1110377E+00
         21   -1    0    0  503  502  0.00000000000E+00  0.00000000000E+00  0.15624719025E+04  0.15624719025E+04  0.00000000000E+00 0. -1.
         21   -1    0    0  501  503 -0.00000000000E+00 -0.00000000000E+00 -0.51659852699E+02  0.51659852699E+02  0.00000000000E+00 0.  1.
          6    2    1    2  501    0 -0.70829835648E+02  0.17332630084E+03  0.39756991893E+03  0.47226064079E+03  0.17294334397E+03 0.  0.
         24    2    3    3    0    0 -0.23886213823E+02  0.11987753646E+02  0.17491629450E+03  0.19327935663E+03  0.77762086973E+02 0.  0.
         -6    2    1    2    0  502  0.70829835648E+02 -0.17332630084E+03  0.11132421309E+04  0.11418711144E+04  0.17176358109E+03 0.  0.
        -24    2    5    5    0    0  0.50882729020E+02 -0.19646641500E+03  0.10357376134E+04  0.10584301642E+04  0.79585829760E+02 0.  0.
          5    1    3    3  501    0 -0.46943621826E+02  0.16133854719E+03  0.22265362443E+03  0.27898128416E+03  0.47000000000E+01 0. -1.
        -11    1    4    4    0    0 -0.37489313768E+02  0.54851033472E+01  0.32068106275E+02  0.49637671638E+02  0.00000000000E+00 0.  1.
         12    1    4    4    0    0  0.13603099946E+02  0.65026502983E+01  0.14284818822E+03  0.14364168499E+03  0.00000000000E+00 0. -1.
         -5    1    5    5    0  502  0.19947106628E+02  0.23140114161E+02  0.77504517470E+02  0.83440950225E+02  0.47000000000E+01 0.  1.
         13    1    6    6    0    0  0.36943756009E+02 -0.28815171807E+02  0.30500601769E+03  0.30858358035E+03  0.00000000000E+00 0. -1.
        -14    1    6    6    0    0  0.13938973011E+02 -0.16765124319E+03  0.73073159571E+03  0.74984658383E+03  0.00000000000E+00 0.  1.
</event>
<event>
12    1  0.8562501E-002  0.1912907E+03  0.7818608E-02  0.1157582E+00
         21   -1    0    0  501  502  0.00000000000E+00  0.00000000000E+00  0.82664148089E+03  0.82664148089E+03  0.00000000000E+00 0. -1.
         21   -1    0    0  502  503 -0.00000000000E+00 -0.00000000000E+00 -0.73760883252E+02  0.73760883252E+02  0.00000000000E+00 0.  1.
         -6    2    1    2    0  503 -0.39129558496E+01 -0.81521673482E+02  0.89636873122E+02  0.21012388650E+03  0.17162804020E+03 0.  0.
        -24    2    3    3    0    0 -0.42105982648E+02 -0.10475042331E+03  0.42820564543E+02  0.14522289372E+03  0.80687812923E+02 0.  0.
          6    2    1    2  501    0  0.39129558496E+01  0.81521673482E+02  0.66324372451E+03  0.69027847764E+03  0.17300590775E+03 0.  0.
         24    2    5    5    0    0 -0.12837681717E+01  0.16340460958E+02  0.67235613469E+02  0.90675813506E+02  0.58590244166E+02 0.  0.
          5    1    5    5  501    0  0.51967240212E+01  0.65181212524E+02  0.59600811105E+03  0.59960266414E+03  0.47000000000E+01 0. -1.
        -13    1    6    6    0    0  0.15403921196E+02  0.33468967226E+02  0.43058194922E+02  0.56669751237E+02  0.00000000000E+00 0.  1.
         14    1    6    6    0    0 -0.16687689368E+02 -0.17128506268E+02  0.24177418548E+02  0.34006062269E+02  0.00000000000E+00 0. -1.
         -5    1    3    3    0  503  0.38193026799E+02  0.23228749828E+02  0.46816308578E+02  0.64900992777E+02  0.47000000000E+01 0.  1.
         13    1    4    4    0    0 -0.32408359660E+02 -0.22164341937E+02  0.47875053888E+02  0.61915915677E+02  0.00000000000E+00 0. -1.
        -14    1    4    4    0    0 -0.96976229882E+01 -0.82586081374E+02 -0.50544893446E+01  0.83306978044E+02  0.00000000000E+00 0.  1.
</event>
<event>
12    1  0.8562501E-002  0.1855245E+03  0.7818608E-02  0.1163143E+00
         21   -1    0    0  503  502  0.00000000000E+00  0.00000000000E+00  0.12972015458E+03  0.12972015458E+03  0.00000000000E+00 0.  1.
         21   -1    0    0  501  503 -0.00000000000E+00 -0.00000000000E+00 -0.30887876754E+03  0.30887876754E+03  0.00000000000E+00 0.  1.
          6    2    1    2  501    0 -0.15608113941E+02 -0.59014913276E+02 -0.17468576568E+03  0.25302055491E+03  0.17256277485E+03 0.  0.
         24    2    3    3    0    0 -0.48957995229E+02 -0.96444214580E+02 -0.12310049959E+03  0.18093521065E+03  0.76716658119E+02 0.  0.
         -6    2    1    2    0  502  0.15608113941E+02  0.59014913276E+02 -0.44728472756E+01  0.18557836721E+03  0.17519403758E+03 0.  0.
        -24    2    5    5    0    0 -0.25362940232E+02  0.23991648500E+02 -0.61697072296E+02  0.10682585433E+03  0.79914682554E+02 0.  0.
          5    1    3    3  501    0  0.33349881289E+02  0.37429301303E+02 -0.51585266097E+02  0.72085344255E+02  0.47000000000E+01 0. -1.
        -13    1    4    4    0    0 -0.56272955157E+02 -0.52649017705E+02 -0.40258927141E+02  0.86944498169E+02  0.00000000000E+00 0.  1.
         14    1    4    4    0    0  0.73149599272E+01 -0.43795196874E+02 -0.82841572445E+02  0.93990712484E+02  0.00000000000E+00 0. -1.
         -5    1    5    5    0  502  0.40971054172E+02  0.35023264776E+02  0.57224225021E+02  0.78752512879E+02  0.47000000000E+01 0.  1.
         11    1    6    6    0    0  0.23295861123E+02  0.13166112584E+02 -0.48285912435E+02  0.55204827739E+02  0.00000000000E+00 0. -1.
        -12    1    6    6    0    0 -0.48658801354E+02  0.10825535916E+02 -0.13411159862E+02  0.51621026588E+02  0.00000000000E+00 0.  1.
</event>
<event>
12    1  0.8562501E-002  0.1924791E+03  0.7818608E-02  0.1156756E+00
         21   -1    0    0  503  502  0.00000000000E+00  0.00000000000E+00  0.16831356125E+03  0.16831356125E+03  0.00000000000E+00 0. -1.
         21   -1    0    0  501  503 -0.00000000000E+00 -0.00000000000E+00 -0.34015088684E+03  0.34015088684E+03  0.00000000000E+00 0.  1.
          6    2    1    2  501    0  0.70893369070E+02 -0.47026250019E+02 -0.23890867336E+03  0.30679891036E+03  0.17265827297E+03 0.  0.
         24    2    3    3    0    0  0.11182849288E+03 -0.58776180340E+02 -0.18146928999E+03  0.23513917281E+03  0.79994225957E+02 0.  0.
         -6    2    1    2    0  502 -0.70893369070E+02  0.47026250019E+02  0.67071347773E+02  0.20166553773E+03  0.17009728230E+03 0.  0.
        -24    2    5    5    0    0 -0.14388520634E+02  0.86758762158E+02  0.33576224521E+02  0.12475335599E+03  0.81865283493E+02 0.  0.
          5    1    3    3  501    0 -0.40935123810E+02  0.11749930321E+02 -0.57439383363E+02  0.71659737545E+02  0.47000000000E+01 0. -1.
        -11    1    4    4    0    0  0.14527084630E+01 -0.18399734710E+02 -0.72685954432E+02  0.74992723453E+02  0.00000000000E+00 0.  1.
         12    1    4    4    0    0  0.11037578442E+03 -0.40376445630E+02 -0.10878333556E+03  0.16014644936E+03  0.00000000000E+00 0. -1.
         -5    1    5    5    0  502 -0.56504848436E+02 -0.39732512139E+02  0.33495123252E+02  0.76912181736E+02  0.47000000000E+01 0.  1.
         13    1    6    6    0    0  0.32413715578E+02  0.49851310312E+02  0.84097654681E+01  0.60054360813E+02  0.00000000000E+00 0. -1.
        -14    1    6    6    0    0 -0.46802236212E+02  0.36907451846E+02  0.25166459053E+02  0.64698995181E+02  0.00000000000E+00 0.  1.
</event>
<event>
12    1  0.8562501E-002  0.2130029E+03  0.7818608E-02  0.1139290E+00
         21   -1    0    0  503  502  0.00000000000E+00  0.00000000000E+00  0.28415407102E+04  0.28415407102E+04  0.00000000000E+00 0.  1.
         21   -1    0    0  501  503 -0.00000000000E+00 -0.00000000000E+00 -0.22946317556E+02  0.22946317556E+02  0.00000000000E+00 0. -1.
          6    2    1    2  501    0  0.98925133574E+02  0.79171413593E+02  0.61670815087E+03  0.65232219028E+03  0.17070735722E+03 0.  0.
         24    2    3    3    0    0  0.11512320121E+03  0.10720496611E+03  0.46221064559E+03  0.49439870692E+03  0.77750525983E+02 0.  0.
         -6    2    1    2    0  502 -0.98925133574E+02 -0.79171413593E+02  0.22018862417E+04  0.22121648374E+04  0.17121901657E+03 0.  0.
        -24    2    5    5    0    0 -0.73498904952E+02 -0.11884155838E+03  0.14670264798E+04  0.14757809883E+04  0.78977389676E+02 0.  0.
          5    1    3    3  501    0 -0.16198067631E+02 -0.28033552518E+02  0.15449750527E+03  0.15792348336E+03  0.47000000000E+01 0. -1.
        -11    1    4    4    0    0  0.83014419403E+02  0.83458392211E+02  0.42044405659E+03  0.43661184338E+03  0.00000000000E+00 0.  1.
         12    1    4    4    0    0  0.32108781802E+02  0.23746573900E+02  0.41766589006E+02  0.57786863542E+02  0.00000000000E+00 0. -1.
         -5    1    5    5    0  502 -0.25426228622E+02  0.39670144791E+02  0.73485976199E+03  0.73638384914E+03  0.47000000000E+01 0.  1.
         13    1    6    6    0    0 -0.74918799764E+02 -0.47752710647E+02  0.75300573349E+03  0.75822871391E+03  0.00000000000E+00 0. -1.
        -14    1    6    6    0    0  0.14198948124E+01 -0.71088847737E+02  0.71402074626E+03  0.71755227438E+03  0.00000000000E+00 0.  1.
</event>
<event>
12    1  0.8562501E-002  0.2299366E+03  0.7818608E-02  0.1126792E+00
         21   -1    0    0  503  502  0.00000000000E+00  0.00000000000E+00  0.71955899199E+02  0.71955899199E+02  0.00000000000E+00 0. -1.
         21   -1    0    0  501  503 -0.00000000000E+00 -0.00000000000E+00 -0.10875497483E+04  0.10875497483E+04  0.00000000000E+00 0. -1.
          6    2    1    2  501    0  0.12581298865E+03 -0.85642420831E+02 -0.83935391068E+03  0.87027916440E+03  0.17235806992E+03 0.  0.
         24    2    3    3    0    0  0.28399561805E+01  0.25209037419E+01 -0.23181593285E+03  0.24416446005E+03  0.76571773639E+02 0.  0.
         -6    2    1    2    0  502 -0.12581298865E+03  0.85642420831E+02 -0.17623993841E+03  0.28922648308E+03  0.17154565067E+03 0.  0.
        -24    2    5    5    0    0 -0.14005870351E+03  0.30980703607E+02 -0.91082352136E+02  0.18692913110E+03  0.77911878157E+02 0.  0.
          5    1    3    3  501    0  0.12297303247E+03 -0.88163324573E+02 -0.60753797782E+03  0.62611470436E+03  0.47000000000E+01 0. -1.
        -13    1    4    4    0    0  0.17482408849E+01  0.23531757035E+02 -0.21736117715E+03  0.21863824292E+03  0.00000000000E+00 0.  1.
         14    1    4    4    0    0  0.10917152957E+01 -0.21010853293E+02 -0.14454755708E+02  0.25526217130E+02  0.00000000000E+00 0. -1.
         -5    1    5    5    0  502  0.14245714863E+02  0.54661717225E+02 -0.85157586270E+02  0.10229735198E+03  0.47000000000E+01 0.  1.
         11    1    6    6    0    0 -0.73143628740E+02 -0.20291013763E+02 -0.25336137298E+02  0.80022718762E+02  0.00000000000E+00 0. -1.
        -12    1    6    6    0    0 -0.66915074773E+02  0.51271717369E+02 -0.65746214838E+02  0.10690641234E+03  0.00000000000E+00 0.  1.
</event>
<event>
12    1  0.8562501E-002  0.2379931E+03  0.7818608E-02  0.1121344E+00
         21   -1    0    0  503  502  0.00000000000E+00  0.00000000000E+00  0.10348938499E+03  0.10348938499E+03  0.00000000000E+00 0.  1.
         21   -1    0    0  501  503 -0.00000000000E+00 -0.00000000000E+00 -0.68331449397E+03  0.68331449397E+03  0.00000000000E+00 0. -1.
          6    2    1    2  501    0 -0.15718831549E+03 -0.42651662235E+02 -0.46782243734E+03  0.52487955655E+03  0.17353208690E+03 0.  0.
         24    2    3    3    0    0 -0.73249972541E+02 -0.16111692964E+02 -0.11555074318E+03  0.16174397320E+03  0.84758441996E+02 0.  0.
         -6    2    1    2    0  502  0.15718831549E+03  0.42651662235E+02 -0.11200267164E+03  0.26192432240E+03  0.17184999678E+03 0.  0.
        -24    2    5    5    0    0  0.43772450578E+02  0.48015105401E+02 -0.10462339646E+03  0.14804513801E+03  0.82157349183E+02 0.  0.
          5    1    3    3  501    0 -0.83938342952E+02 -0.26539969271E+02 -0.35227169416E+03  0.36313558335E+03  0.47000000000E+01 0. -1.
        -11    1    4    4    0    0  0.13427115602E+02  0.15708403691E+02 -0.24768535557E+02  0.32257119114E+02  0.00000000000E+00 0.  1.
         12    1    4    4    0    0 -0.86677088143E+02 -0.31820096655E+02 -0.90782207625E+02  0.12948685409E+03  0.00000000000E+00 0. -1.
         -5    1    5    5    0  502  0.11341586491E+03 -0.53634431667E+01 -0.73792751810E+01  0.11387918440E+03  0.47000000000E+01 0.  1.
         13    1    6    6    0    0  0.64691804996E+02  0.33334290743E+02 -0.97213542098E+02  0.12143589807E+03  0.00000000000E+00 0. -1.
        -14    1    6    6    0    0 -0.20919354418E+02  0.14680814658E+02 -0.74098543578E+01  0.26609239935E+02  0.00000000000E+00 0.  1.
</event>
<event>
12    1  0.8562501E-002  0.1772466E+03  0.7818608E-02  0.1170513E+00
         21   -1    0    0  503  502  0.00000000000E+00  0.00000000000E+00  0.15617538670E+03  0.15617538670E+03  0.00000000000E+00 0. -1.
         21   -1    0    0  501  503 -0.00000000000E+00 -0.00000000000E+00 -0.33000314837E+03  0.33000314837E+03  0.00000000000E+00 0. -1.
          6    2    1    2  501    0  0.41720971355E+02  0.51011509029E+00 -0.23886529588E+03  0.29744407587E+03  0.17226563507E+03 0.  0.
         24    2    3    3    0    0  0.27648586111E+02  0.33658047003E+02 -0.24427953175E+03  0.26072594184E+03  0.80051350257E+02 0.  0.
         -6    2    1    2    0  502 -0.41720971355E+02 -0.51011509029E+00  0.65037534210E+02  0.18873445920E+03  0.17219150840E+03 0.  0.
        -24    2    5    5    0    0  0.14761154109E+01 -0.56411466894E+01  0.10285128298E+03  0.13090466250E+03  0.80769070822E+02 0.  0.
          5    1    3    3  501    0  0.14072385243E+02 -0.33147931913E+02  0.54142358643E+01  0.36718134029E+02  0.47000000000E+01 0. -1.
        -11    1    4    4    0    0  0.38869793044E+02  0.69951004432E+01 -0.47240889308E+02  0.61575107504E+02  0.00000000000E+00 0.  1.
         12    1    4    4    0    0 -0.11221206933E+02  0.26662946560E+02 -0.19703864244E+03  0.19915083434E+03  0.00000000000E+00 0. -1.
         -5    1    5    5    0  502 -0.43197086765E+02  0.51310315992E+01 -0.37813748769E+02  0.57829796699E+02  0.47000000000E+01 0.  1.
         11    1    6    6    0    0  0.23238333486E+02  0.17512828208E+02  0.70069084820E+01  0.29930186460E+02  0.00000000000E+00 0. -1.
        -12    1    6    6    0    0 -0.21762218075E+02 -0.23153974897E+02  0.95844374497E+02  0.10097447604E+03  0.00000000000E+00 0.  1.
</event>
<event>
12    1  0.8562501E-002  0.1728803E+03  0.7818608E-02  0.1174918E+00
         21   -1    0    0  503  502  0.00000000000E+00  0.00000000000E+00  0.13256738284E+03  0.13256738284E+03  0.00000000000E+00 0.  1.
         21   -1    0    0  501  503 -0.00000000000E+00 -0.00000000000E+00 -0.64468357225E+03  0.64468357225E+03  0.00000000000E+00 0.  1.
          6    2    1    2  501    0 -0.17114058702E+02  0.75773349062E+01 -0.56956709809E+03  0.59522623950E+03  0.17186416133E+03 0.  0.
         24    2    3    3    0    0 -0.76618111628E+02 -0.72021549576E+01 -0.38521045975E+03  0.40088472119E+03  0.79995345629E+02 0.  0.
         -6    2    1    2    0  502  0.17114058702E+02 -0.75773349062E+01  0.57450908688E+02  0.18202471559E+03  0.17170347453E+03 0.  0.
        -24    2    5    5    0    0 -0.28489514763E+02  0.53195890091E+01 -0.24076168137E+02  0.87606651560E+02  0.79090537024E+02 0.  0.
          5    1    3    3  501    0  0.59504052926E+02  0.14779489864E+02 -0.18435663834E+03  0.19434151830E+03  0.47000000000E+01 0. -1.
        -13    1    4    4    0    0 -0.12438884100E+02  0.27619619372E+01 -0.25554718418E+03  0.25586464706E+03  0.00000000000E+00 0.  1.
         14    1    4    4    0    0 -0.64179227528E+02 -0.99641168948E+01 -0.12966327557E+03  0.14502007413E+03  0.00000000000E+00 0. -1.
         -5    1    5    5    0  502  0.45603573465E+02 -0.12896923915E+02  0.81527076824E+02  0.94418064028E+02  0.47000000000E+01 0.  1.
         13    1    6    6    0    0 -0.32175616914E+02 -0.21804481486E+02  0.13475032587E+02  0.41137358203E+02  0.00000000000E+00 0. -1.
        -14    1    6    6    0    0  0.36861021507E+01  0.27124070495E+02 -0.37551200724E+02  0.46469293357E+02  0.00000000000E+00 0.  1.
</event>
<event>
12    1  0.8562501E-002  0.2417186E+03  0.7818608E-02  0.1119227E+00
         21   -1    0    0  501  502  0.00000000000E+00  0.00000000000E+00  0.10217044296E+04  0.10217044296E+04  0.00000000000E+00 0. -1.
         21   -1    0    0  502  503 -0.00000000000E+00 -0.00000000000E+00 -0.68378622219E+02  0.68378622219E+02  0.00000000000E+00 0.  1.
         -6    2    1    2    0  503 -0.19264742191E+02  0.16423833673E+03  0.24545475261E+03  0.34207949655E+03  0.17153712378E+03 0.  0.
        -24    2    3    3    0    0  0.23629495088E+02  0.82743584656E+02  0.20620847962E+03  0.24186138366E+03  0.92575039819E+02 0.  0.
          6    2    1    2  501    0  0.19264742191E+02 -0.16423833673E+03  0.70787105473E+03  0.74800355522E+03  0.17630237368E+03 0.  0.
         24    2    5    5    0    0 -0.56030942405E+02 -0.98334557478E+02  0.39423431506E+03  0.41875768553E+03  0.84428385767E+02 0.  0.
          5    1    5    5  501    0  0.75295684597E+02 -0.65903779255E+02  0.31363673967E+03  0.32924586969E+03  0.47000000000E+01 0. -1.
        -11    1    6    6    0    0 -0.77599013234E+00  0.12985894837E+02  0.15956274385E+02  0.20587333913E+02  0.00000000000E+00 0.  1.
         12    1    6    6    0    0 -0.55254952273E+02 -0.11132045232E+03  0.37827804067E+03  0.39817035162E+03  0.00000000000E+00 0. -1.
         -5    1    3    3    0  503 -0.42894237279E+02  0.81494752077E+02  0.39246272988E+02  0.10021811289E+03  0.47000000000E+01 0.  1.
         11    1    4    4    0    0 -0.13320789859E+01 -0.18014244955E+01  0.11497681444E+03  0.11499864096E+03  0.00000000000E+00 0. -1.
        -12    1    4    4    0    0  0.24961574074E+02  0.84545009151E+02  0.91231665188E+02  0.12686274270E+03  0.00000000000E+00 0.  1.
</event>
<event>
12    1  0.8562501E-002  0.2415954E+03  0.7818608E-02  0.1119433E+00
         21   -1    0    0  503  502  0.00000000000E+00  0.00000000000E+00  0.39983639523E+03  0.39983639523E+03  0.00000000000E+00 0.  1.
         21   -1    0    0  501  503 -0.00000000000E+00 -0.00000000000E+00 -0.14377956699E+03  0.14377956699E+03  0.00000000000E+00 0.  1.
          6    2    1    2  501    0 -0.13657890718E+03  0.91076179563E+02  0.14196031756E+03  0.28021607255E+03  0.17725588054E+03 0.  0.
         24    2    3    3    0    0 -0.13035888655E+03  0.12451975159E+03  0.14618908258E+03  0.24561645377E+03  0.80359110583E+02 0.  0.
         -6    2    1    2    0  502  0.13657890718E+03 -0.91076179563E+02  0.11409651068E+03  0.26339988966E+03  0.17150166109E+03 0.  0.
        -24    2    5    5    0    0  0.30923763533E+02 -0.29643824611E+02 -0.82093044754E+01  0.90432418633E+02  0.79218647876E+02 0.  0.
          5    1    3    3  501    0 -0.62200206234E+01 -0.33443572030E+02 -0.42287650246E+01  0.34599618788E+02  0.47000000000E+01 0. -1.
        -11    1    4    4    0    0 -0.70626586093E+02  0.65693461832E+02  0.12723643243E+03  0.15966482183E+03  0.00000000000E+00 0.  1.
         12    1    4    4    0    0 -0.59732300459E+02  0.58826289762E+02  0.18952650151E+02  0.85951631939E+02  0.00000000000E+00 0. -1.
         -5    1    5    5    0  502  0.10565514364E+03 -0.61432354953E+02  0.12230581516E+03  0.17296747103E+03  0.47000000000E+01 0.  1.
         11    1    6    6    0    0  0.95154878792E+01 -0.61142214686E+01  0.34996543732E+02  0.36778883710E+02  0.00000000000E+00 0. -1.
        -12    1    6    6    0    0  0.21408275654E+02 -0.23529603142E+02 -0.43205848207E+02  0.53653534924E+02  0.00000000000E+00 0.  1.
</event>
<event>
12    1  0.8562501E-002  0.2017890E+03  0.7818608E-02  0.1148656E+00
         21   -1    0    0  503  502  0.00000000000E+00  0.00000000000E+00  0.10561225566E+03  0.10561225566E+03  0.00000000000E+00 0. -1.
         21   -1    0    0  501  503 -0.00000000000E+00 -0.00000000000E+00 -0.38461532941E+03  0.38461532941E+03  0.00000000000E+00 0. -1.
          6    2    1    2  501    0  0.21213725033E+02 -0.10037999141E+03 -0.11767613843E+03  0.23187673257E+03  0.17144381222E+03 0.  0.
         24    2    3    3    0    0  0.67539620602E+02 -0.10222284456E+03 -0.11386133180E+03  0.18512069064E+03  0.79335722858E+02 0.  0.
         -6    2    1    2    0  502 -0.21213725033E+02  0.10037999141E+03 -0.16132693532E+03  0.25835085249E+03  0.17376023169E+03 0.  0.
        -24    2    5    5    0    0 -0.31516044015E+01  0.12643397609E+03 -0.16859234080E+03  0.22548861829E+03  0.80163936302E+02 0.  0.
          5    1    3    3  501    0 -0.46325895569E+02  0.18428531488E+01 -0.38148066267E+01  0.46756041936E+02  0.47000000000E+01 0. -1.
        -11    1    4    4    0    0 -0.56522847853E+01 -0.30245732151E+02 -0.63969825578E+02  0.70985147891E+02  0.00000000000E+00 0.  1.
         12    1    4    4    0    0  0.73191905387E+02 -0.71977112406E+02 -0.49891506227E+02  0.11413554275E+03  0.00000000000E+00 0. -1.
         -5    1    5    5    0  502 -0.18062120632E+02 -0.26053984686E+02  0.72654054759E+01  0.32862234198E+02  0.47000000000E+01 0.  1.
         13    1    6    6    0    0  0.12252744571E+02 -0.72631985835E+01 -0.24364515611E+02  0.28222569411E+02  0.00000000000E+00 0. -1.
        -14    1    6    6    0    0 -0.15404348972E+02  0.13369717468E+03 -0.14422782519E+03  0.19726604888E+03  0.00000000000E+00 0.  1.
</event>
<event>
12    1  0.8562501E-002  0.1822288E+03  0.7818608E-02  0.1166204E+00
         21   -1    0    0  501  502  0.00000000000E+00  0.00000000000E+00  0.96292468368E+02  0.96292468368E+02  0.00000000000E+00 0. -1.
         21   -1    0    0  502  503 -0.00000000000E+00 -0.00000000000E+00 -0.42360709702E+03  0.42360709702E+03  0.00000000000E+00 0. -1.
         -6    2    1    2    0  503  0.57725618301E+02 -0.20658548454E+02 -0.27790270974E+03  0.33109051647E+03  0.16920990334E+03 0.  0.
        -24    2    3    3    0    0  0.31279345347E+02 -0.64629321034E+02 -0.13898804118E+03  0.18292773662E+03  0.94813156527E+02 0.  0.
          6    2    1    2  501    0 -0.57725618301E+02  0.20658548454E+02 -0.49411918913E+02  0.18880904891E+03  0.17160505991E+03 0.  0.
         24    2    5    5    0    0  0.15495507849E+02 -0.28415601070E+02  0.25681891440E+01  0.86370642540E+02  0.80035836658E+02 0.  0.
          5    1    5    5  501    0 -0.73221126150E+02  0.49074149524E+02 -0.51980108057E+02  0.10243840637E+03  0.47000000000E+01 0. -1.
        -13    1    6    6    0    0 -0.31282194726E+02 -0.20658644323E+02 -0.66310695778E+01  0.38070019384E+02  0.00000000000E+00 0.  1.
         14    1    6    6    0    0  0.46777702575E+02 -0.77569567467E+01  0.91992587217E+01  0.48300623156E+02  0.00000000000E+00 0. -1.
         -5    1    3    3    0  503  0.26446272953E+02  0.43970772580E+02 -0.13891466856E+03  0.14816277986E+03  0.47000000000E+01 0.  1.
         13    1    4    4    0    0 -0.31985847776E+02 -0.25685487670E+02 -0.72144275217E+02  0.82991777794E+02  0.00000000000E+00 0. -1.
        -14    1    4    4    0    0  0.63265193124E+02 -0.38943833364E+02 -0.66843765963E+02  0.99935958825E+02  0.00000000000E+00 0.  1.
</event>
<event>
12    1  0.8562501E-002  0.1853728E+03  0.7818608E-02  0.1166074E+00
         21   -1    0    0  501  502  0.00000000000E+00  0.00000000000E+00  0.31313651576E+03  0.31313651576E+03  0.00000000000E+00 0. -1.
         21   -1    0    0  502  503 -0.00000000000E+00 -0.00000000000E+00 -0.21700682554E+03  0.21700682554E+03  0.00000000000E+00 0. -1.
         -6    2    1    2    0  503  0.67343299208E+02  0.83306926715E+01 -0.14423704832E+03  0.23487741674E+03  0.17250667928E+03 0.  0.
        -24    2    3    3    0    0  0.87854860923E+02 -0.36221049993E+02 -0.13538445738E+03  0.18481705013E+03  0.82449679614E+02 0.  0.
          6    2    1    2  501    0 -0.67343299208E+02 -0.83306926715E+01  0.24036673855E+03  0.29526592456E+03  0.15748421133E+03 0.  0.
         24    2    5    5    0    0 -0.91859483806E+02  0.20783733065E+02  0.13895178412E+03  0.18684186784E+03  0.82049722389E+02 0.  0.
          5    1    5    5  501    0  0.24516184599E+02 -0.29114425736E+02  0.10141495443E+03  0.10842405672E+03  0.47000000000E+01 0. -1.
        -11    1    6    6    0    0 -0.26928639043E+02 -0.22058627452E+02  0.99568896335E+01  0.36205998080E+02  0.00000000000E+00 0.  1.
         12    1    6    6    0    0 -0.64930844763E+02  0.42842360517E+02  0.12899489448E+03  0.15063586976E+03  0.00000000000E+00 0. -1.
         -5    1    3    3    0  503 -0.20511561715E+02  0.44551742665E+02 -0.88525909394E+01  0.50060366607E+02  0.47000000000E+01 0.  1.
         11    1    4    4    0    0  0.34167028476E+02 -0.28738812812E+02 -0.66544616218E+01  0.45139639523E+02  0.00000000000E+00 0. -1.
        -12    1    4    4    0    0  0.53687832446E+02 -0.74822371808E+01 -0.12872999576E+03  0.13967741061E+03  0.00000000000E+00 0.  1.
</event>
<event>
12    1  0.8562501E-002  0.2026392E+03  0.7818608E-02  0.1148242E+00
         21   -1    0    0  503  502  0.00000000000E+00  0.00000000000E+00  0.12170212708E+03  0.12170212708E+03  0.00000000000E+00 0.  1.
         21   -1    0    0  501  503 -0.00000000000E+00 -0.00000000000E+00 -0.61230040131E+03  0.61230040131E+03  0.00000000000E+00 0.  1.
          6    2    1    2  501    0 -0.11034987710E+03 -0.26244363153E+01  0.42342479765E+01  0.19928589883E+03  0.16587030347E+03 0.  0.
         24    2    3    3    0    0 -0.34370429737E+02 -0.22932601188E+02 -0.50116072340E+02  0.10357098202E+03  0.80672777139E+02 0.  0.
         -6    2    1    2    0  502  0.11034987710E+03  0.26244363153E+01 -0.49483252220E+03  0.53471662956E+03  0.16993724095E+03 0.  0.
        -24    2    5    5    0    0  0.19704018496E+02 -0.55824402438E+02 -0.25024877569E+03  0.26736622749E+03  0.73182221979E+02 0.  0.
          5    1    3    3  501    0 -0.75979447361E+02  0.20308164872E+02  0.54350320317E+02  0.95714916812E+02  0.47000000000E+01 0. -1.
        -13    1    4    4    0    0 -0.88411268548E+01  0.22051444521E+02 -0.45890063375E+02  0.51675232424E+02  0.00000000000E+00 0.  1.
         14    1    4    4    0    0 -0.25529302882E+02 -0.44984045709E+02 -0.42260089656E+01  0.51895749592E+02  0.00000000000E+00 0. -1.
         -5    1    5    5    0  502  0.90645858602E+02  0.58448838753E+02 -0.24458374651E+03  0.26735040208E+03  0.47000000000E+01 0.  1.
         13    1    6    6    0    0 -0.55876414841E+01 -0.47859096486E+02 -0.68828077273E+02  0.84017968762E+02  0.00000000000E+00 0. -1.
        -14    1    6    6    0    0  0.25291659980E+02 -0.79653059526E+01 -0.18142069842E+03  0.18334825872E+03  0.00000000000E+00 0.  1.
</event>
<event>
12    1  0.8562501E-002  0.2161796E+03  0.7818608E-02  0.1136799E+00
         21   -1    0    0  501  502  0.00000000000E+00  0.00000000000E+00  0.99005702574E+03  0.99005702574E+03  0.00000000000E+00 0.  1.
         21   -1    0    0  502  503 -0.00000000000E+00 -0.00000000000E+00 -0.52056132314E+02  0.52056132314E+02  0.00000000000E+00 0. -1.
         -6    2    1    2    0  503  0.12498635777E+03 -0.38867562587E+02  0.62894605557E+03  0.66506147010E+03  0.17205040293E+03 0.  0.
        -24    2    3    3    0    0  0.12078373728E+03 -0.25067463693E+02  0.28556816260E+03  0.32134854901E+03  0.80614052931E+02 0.  0.
          6    2    1    2  501    0 -0.12498635777E+03  0.38867562587E+02  0.30905483786E+03  0.37705168795E+03  0.17181619695E+03 0.  0.
         24    2    5    5    0    0 -0.14626035461E+02  0.46621832517E+01  0.21165250350E+03  0.22586070458E+03  0.77334460429E+02 0.  0.
          5    1    5    5  501    0 -0.11036032231E+03  0.34205379335E+02  0.97402334359E+02  0.15119098337E+03  0.47000000000E+01 0. -1.
        -11    1    6    6    0    0 -0.11301727187E+02  0.25631450389E+02  0.23643501023E+02  0.36656724172E+02  0.00000000000E+00 0.  1.
         12    1    6    6    0    0 -0.33243082741E+01 -0.20969267137E+02  0.18800900247E+03  0.18920398041E+03  0.00000000000E+00 0. -1.
         -5    1    3    3    0  503  0.42026204883E+01 -0.13800098894E+02  0.34337789296E+03  0.34371292109E+03  0.47000000000E+01 0.  1.
         13    1    4    4    0    0  0.12141701659E+03 -0.40850567198E+02  0.27146279423E+03  0.30017146668E+03  0.00000000000E+00 0. -1.
        -14    1    4    4    0    0 -0.63327931380E+00  0.15783103505E+02  0.14105368376E+02  0.21177082328E+02  0.00000000000E+00 0.  1.
</event>
<event>
12    1  0.8562501E-002  0.1860407E+03  0.7818608E-02  0.1162716E+00
         21   -1    0    0  503  502  0.00000000000E+00  0.00000000000E+00  0.17037135186E+04  0.17037135186E+04  0.00000000000E+00 0.  1.
         21   -1    0    0  501  503 -0.00000000000E+00 -0.00000000000E+00 -0.21288714346E+02  0.21288714346E+02  0.00000000000E+00 0.  1.
          6    2    1    2  501    0 -0.60593055912E+02  0.25488920707E+02  0.62481025672E+03  0.65114951004E+03  0.17113335156E+03 0.  0.
         24    2    3    3    0    0 -0.15816888037E+02  0.14404062768E+02  0.13680558607E+03  0.16094707444E+03  0.82039877017E+02 0.  0.
         -6    2    1    2    0  502  0.60593055912E+02 -0.25488920707E+02  0.10576145476E+04  0.10738527229E+04  0.17404004091E+03 0.  0.
        -24    2    5    5    0    0 -0.28287161667E+02  0.90861573219E+01  0.64556374386E+03  0.65088335770E+03  0.77549185518E+02 0.  0.
          5    1    3    3  501    0 -0.44776167875E+02  0.11084857939E+02  0.48800467065E+03  0.49020243560E+03  0.47000000000E+01 0. -1.
        -11    1    4    4    0    0 -0.46636272168E+02 -0.67888689167E+01  0.82390937711E+02  0.94917317913E+02  0.00000000000E+00 0.  1.
         12    1    4    4    0    0  0.30819384131E+02  0.21192931685E+02  0.54414648359E+02  0.66029756532E+02  0.00000000000E+00 0. -1.
         -5    1    5    5    0  502  0.88880217578E+02 -0.34575078029E+02  0.41205080371E+03  0.42296936525E+03  0.47000000000E+01 0.  1.
         11    1    6    6    0    0 -0.17869922874E+02  0.23171410936E+02  0.61468503051E+03  0.61538113000E+03  0.00000000000E+00 0. -1.
        -12    1    6    6    0    0 -0.10417238792E+02 -0.14085253614E+02  0.30878713347E+02  0.35502227696E+02  0.00000000000E+00 0.  1.
</event>
<event>
12    1  0.8562501E-002  0.1784626E+03  0.7818608E-02  0.1169414E+00
         21   -1    0    0  503  502  0.00000000000E+00  0.00000000000E+00  0.45172114380E+02  0.45172114380E+02  0.00000000000E+00 0.  1.
         21   -1    0    0  501  503 -0.00000000000E+00 -0.00000000000E+00 -0.75920420629E+03  0.75920420629E+03  0.00000000000E+00 0. -1.
          6    2    1    2  501    0 -0.18685205285E+02 -0.44773292573E+02 -0.24822002371E+03  0.30571568964E+03  0.17174142802E+03 0.  0.
         24    2    3    3    0    0 -0.77208023141E+02 -0.20129149213E+02 -0.14211775401E+03  0.18197387922E+03  0.80936859503E+02 0.  0.
         -6    2    1    2    0  502  0.18685205285E+02  0.44773292573E+02 -0.46581206820E+03  0.49866063103E+03  0.17125348882E+03 0.  0.
        -24    2    5    5    0    0  0.27312338439E+02  0.53914506272E+02 -0.47280559919E+03  0.48352825878E+03  0.81250874400E+02 0.  0.
          5    1    3    3  501    0  0.58522817857E+02 -0.24644143360E+02 -0.10610226969E+03  0.12374181042E+03  0.47000000000E+01 0. -1.
        -11    1    4    4    0    0 -0.23559807705E+02  0.26921088246E+02 -0.21237638619E+02  0.41603447280E+02  0.00000000000E+00 0.  1.
         12    1    4    4    0    0 -0.53648215436E+02 -0.47050237460E+02 -0.12088011539E+03  0.14037043194E+03  0.00000000000E+00 0. -1.
         -5    1    5    5    0  502 -0.86271331548E+01 -0.91412136989E+01  0.69935309891E+01  0.15132372255E+02  0.47000000000E+01 0.  1.
         13    1    6    6    0    0 -0.13951521689E+02  0.27321500407E+01 -0.26911852575E+03  0.26949376709E+03  0.00000000000E+00 0. -1.
        -14    1    6    6    0    0  0.41263860128E+02  0.51182356231E+02 -0.20368707345E+03  0.21403449169E+03  0.00000000000E+00 0.  1.
</event>
<event>
12    1  0.8562501E-002  0.2161415E+03  0.7818608E-02  0.1137012E+00
         21   -1    0    0  503  502  0.00000000000E+00  0.00000000000E+00  0.52609826629E+02  0.52609826629E+02  0.00000000000E+00 0.  1.
         21   -1    0    0  501  503 -0.00000000000E+00 -0.00000000000E+00 -0.12168308520E+04  0.12168308520E+04  0.00000000000E+00 0.  1.
          6    2    1    2  501    0  0.10354311348E+03  0.80839921912E+02 -0.25092428536E+03  0.33117993422E+03  0.17164172721E+03 0.  0.
         24    2    3    3    0    0 -0.15069296055E+02  0.39694943375E+02 -0.13169563788E+03  0.15797666250E+03  0.76224094897E+02 0.  0.
         -6    2    1    2    0  502 -0.10354311348E+03 -0.80839921912E+02 -0.91329673997E+03  0.93826074438E+03  0.17019406531E+03 0.  0.
        -24    2    5    5    0    0 -0.28700288673E+02 -0.24905954156E+02 -0.19953989202E+03  0.21839896238E+03  0.80236682008E+02 0.  0.
          5    1    3    3  501    0  0.11861240954E+03  0.41144978537E+02 -0.11922864748E+03  0.17320327172E+03  0.47000000000E+01 0. -1.
        -13    1    4    4    0    0 -0.19341085428E+01  0.29209337430E+02 -0.44307035597E+01  0.29606710438E+02  0.00000000000E+00 0.  1.
         14    1    4    4    0    0 -0.13135187512E+02  0.10485605945E+02 -0.12726493432E+03  0.12836995206E+03  0.00000000000E+00 0. -1.
         -5    1    5    5    0  502 -0.74842824811E+02 -0.55933967756E+02 -0.71375684796E+03  0.71986178200E+03  0.47000000000E+01 0.  1.
         11    1    6    6    0    0  0.24580838233E+02  0.73616262565E+01 -0.72563963455E+02  0.76967135465E+02  0.00000000000E+00 0. -1.
        -12    1    6    6    0    0 -0.53281126906E+02 -0.32267580413E+02 -0.12697592856E+03  0.14143182691E+03  0.00000000000E+00 0.  1.
</event>
<event>
12    1  0.8562501E-002  0.1765671E+03  0.7818608E-02  0.1171173E+00
         21   -1    0    0  501  502  0.00000000000E+00  0.00000000000E+00  0.48630281056E+03  0.48630281056E+03  0.00000000000E+00 0.  1.
         21   -1    0    0  502  503 -0.00000000000E+00 -0.00000000000E+00 -0.17668921148E+03  0.17668921148E+03  0.00000000000E+00 0.  1.
         -6    2    1    2    0  503  0.24359637997E+02 -0.31217357620E+02 -0.10980869414E+03  0.20792757922E+03  0.17206979256E+03 0.  0.
        -24    2    3    3    0    0  0.98500211012E+01 -0.81563508616E+02 -0.10170673459E+03  0.15470168655E+03  0.82696572523E+02 0.  0.
          6    2    1    2  501    0 -0.24359637997E+02  0.31217357620E+02  0.41942229323E+03  0.45506444282E+03  0.17204845737E+03 0.  0.
         24    2    5    5    0    0 -0.80826304327E+01 -0.50607809207E+02  0.20462956817E+03  0.22459035829E+03  0.77078463922E+02 0.  0.
          5    1    5    5  501    0 -0.16277007564E+02  0.81825166827E+02  0.21479272505E+03  0.23047408452E+03  0.47000000000E+01 0. -1.
        -11    1    6    6    0    0  0.56776199053E+01 -0.35411901413E+02  0.24817853336E+02  0.43613804852E+02  0.00000000000E+00 0.  1.
         12    1    6    6    0    0 -0.13760250338E+02 -0.15195907794E+02  0.17981171484E+03  0.18097655344E+03  0.00000000000E+00 0. -1.
         -5    1    3    3    0  503  0.14509616895E+02  0.50346150996E+02 -0.81019595532E+01  0.53225892676E+02  0.47000000000E+01 0.  1.
         11    1    4    4    0    0 -0.33992030889E+02 -0.43989240615E+02 -0.68039299507E+02  0.87862720942E+02  0.00000000000E+00 0. -1.
        -12    1    4    4    0    0  0.43842051990E+02 -0.37574268001E+02 -0.33667435081E+02  0.66838965607E+02  0.00000000000E+00 0.  1.
</event>
<event>
12    1  0.8562501E-002  0.1763818E+03  0.7818608E-02  0.1172468E+00
         21   -1    0    0  503  502  0.00000000000E+00  0.00000000000E+00  0.97919017884E+03  0.97919017884E+03  0.00000000000E+00 0.  1.
         21   -1    0    0  501  503 -0.00000000000E+00 -0.00000000000E+00 -0.12186950374E+03  0.12186950374E+03  0.00000000000E+00 0.  1.
          6    2    1    2  501    0  0.29690910039E+01  0.35443146079E+02 -0.48155712930E+02  0.17856413563E+03  0.16822944374E+03 0.  0.
         24    2    3    3    0    0  0.42562889682E+02 -0.18738697555E+02 -0.60036578296E+02  0.11025172069E+03  0.79926921732E+02 0.  0.
         -6    2    1    2    0  502 -0.29690910039E+01 -0.35443146079E+02  0.90547638803E+03  0.92249554695E+03  0.17275853885E+03 0.  0.
        -24    2    5    5    0    0  0.21187490495E+02 -0.36230323958E+02  0.23797371192E+03  0.25453890711E+03  0.79981382472E+02 0.  0.
          5    1    3    3  501    0 -0.39593798678E+02  0.54181843634E+02  0.11880865365E+02  0.68312414942E+02  0.47000000000E+01 0. -1.
        -13    1    4    4    0    0 -0.28879239764E+01  0.25595206940E+02 -0.50264530551E+01  0.26243474494E+02  0.00000000000E+00 0.  1.
         14    1    4    4    0    0  0.45450813659E+02 -0.44333904495E+02 -0.55010125240E+02  0.84008246196E+02  0.00000000000E+00 0. -1.
         -5    1    5    5    0  502 -0.24156581499E+02  0.78717787913E+00  0.66750267612E+03  0.66795663984E+03  0.47000000000E+01 0.  1.
         13    1    6    6    0    0  0.11027897041E+02  0.13607614805E+02  0.16301212877E+03  0.16395040659E+03  0.00000000000E+00 0. -1.
        -14    1    6    6    0    0  0.10159593454E+02 -0.49837938763E+02  0.74961583146E+02  0.90588500523E+02  0.00000000000E+00 0.  1.
</event>
<event>
12    1  0.8562501E-002  0.2373279E+03  0.7818608E-02  0.1121692E+00
         21   -1    0    0  503  502  0.00000000000E+00  0.00000000000E+00  0.14307877248E+03  0.14307877248E+03  0.00000000000E+00 0. -1.
         21   -1    0    0  501  503 -0.00000000000E+00 -0.00000000000E+00 -0.60345088845E+03  0.60345088845E+03  0.00000000000E+00 0. -1.
          6    2    1    2  501    0  0.46774270063E+02 -0.15627060868E+03 -0.45061579870E+03  0.50900132911E+03  0.17152090111E+03 0.  0.
         24    2    3    3    0    0  0.93282769013E+02 -0.77014248018E+02 -0.26629150184E+03  0.30298640830E+03  0.79099496037E+02 0.  0.
         -6    2    1    2    0  502 -0.46774270063E+02  0.15627060868E+03 -0.97563172631E+01  0.23752833182E+03  0.17238383687E+03 0.  0.
        -24    2    5    5    0    0 -0.69625027765E+02  0.17221014157E+03  0.11575589207E+02  0.20212542135E+03  0.78846143470E+02 0.  0.
          5    1    3    3  501    0 -0.46508498950E+02 -0.79256360662E+02 -0.18432429687E+03  0.20601492081E+03  0.47000000000E+01 0. -1.
        -11    1    4    4    0    0  0.52573271111E+02 -0.26164599935E+02 -0.50088700381E+02  0.77184279688E+02  0.00000000000E+00 0.  1.
         12    1    4    4    0    0  0.40709497902E+02 -0.50849648082E+02 -0.21620280146E+03  0.22580212862E+03  0.00000000000E+00 0. -1.
         -5    1    5    5    0  502  0.22850757702E+02 -0.15939532890E+02 -0.21331906470E+02  0.35402910473E+02  0.47000000000E+01 0.  1.
         11    1    6    6    0    0 -0.32013115021E+02  0.13809010791E+02  0.17912612301E+02  0.39196810990E+02  0.00000000000E+00 0. -1.
        -12    1    6    6    0    0 -0.37611912744E+02  0.15840113078E+03 -0.63370230935E+01  0.16292861036E+03  0.00000000000E+00 0.  1.
</event>
<event>
12    1  0.8562501E-002  0.2607625E+03  0.7818608E-02  0.1106897E+00
         21   -1    0    0  503  502  0.00000000000E+00  0.00000000000E+00  0.29050647188E+03  0.29050647188E+03  0.00000000000E+00 0.  1.
         21   -1    0    0  501  503 -0.00000000000E+00 -0.00000000000E+00 -0.25427559959E+03  0.25427559959E+03  0.00000000000E+00 0.  1.
          6    2    1    2  501    0  0.15151012731E+03  0.12257918980E+03 -0.61085392819E+02  0.26645217563E+03  0.17112673735E+03 0.  0.
         24    2    3    3    0    0  0.27050584027E+02  0.60172075333E+02 -0.73386899355E+02  0.12660138760E+03  0.79308647698E+02 0.  0.
         -6    2    1    2    0  502 -0.15151012731E+03 -0.12257918980E+03  0.97316265109E+02  0.27832989583E+03  0.17325154836E+03 0.  0.
        -24    2    5    5    0    0 -0.91162840521E+01 -0.22686175706E+02  0.18598151906E+02  0.87350179083E+02  0.81770369501E+02 0.  0.
          5    1    3    3  501    0  0.12445954329E+03  0.62407114463E+02  0.12301506536E+02  0.13985078803E+03  0.47000000000E+01 0. -1.
        -13    1    4    4    0    0  0.20482114580E+01  0.39533935008E+02  0.67469994989E+01  0.40157803596E+02  0.00000000000E+00 0.  1.
         14    1    4    4    0    0  0.25002372569E+02  0.20638140324E+02 -0.80133898854E+02  0.86443584005E+02  0.00000000000E+00 0. -1.
         -5    1    5    5    0  502 -0.14239384326E+03 -0.99893014089E+02  0.78718113203E+02  0.19097971675E+03  0.47000000000E+01 0.  1.
         11    1    6    6    0    0 -0.34633369481E+02 -0.34653431272E+02  0.29433962347E+02  0.57154953591E+02  0.00000000000E+00 0. -1.
        -12    1    6    6    0    0  0.25517085429E+02  0.11967255567E+02 -0.10835810441E+02  0.30195225492E+02  0.00000000000E+00 0.  1.
</event>
<event>
12    1  0.8562501E-002  0.2213364E+03  0.7818608E-02  0.1133990E+00
         21   -1    0    0  501  502  0.00000000000E+00  0.00000000000E+00  0.69655679084E+03  0.69655679084E+03  0.00000000000E+00 0. -1.
         21   -1    0    0  502  503 -0.00000000000E+00 -0.00000000000E+00 -0.79255492020E+02  0.79255492020E+02  0.00000000000E+00 0.  1.
         -6    2    1    2    0  503  0.87353488536E+01  0.12793497127E+03  0.16922211862E+03  0.27861427377E+03  0.18040544595E+03 0.  0.
        -24    2    3    3    0    0  0.20963038132E+02  0.16407327037E+03  0.13689325793E+03  0.22838740566E+03  0.77855995147E+02 0.  0.
          6    2    1    2  501    0 -0.87353488536E+01 -0.12793497127E+03  0.44807918021E+03  0.49719800909E+03  0.17316825724E+03 0.  0.
         24    2    5    5    0    0 -0.50424593684E+02 -0.11606332114E+03  0.41891889334E+03  0.44474477714E+03  0.79319250117E+02 0.  0.
          5    1    5    5  501    0  0.41689244830E+02 -0.11871650129E+02  0.29160286871E+02  0.52453231947E+02  0.47000000000E+01 0. -1.
        -13    1    6    6    0    0 -0.51947782071E+02 -0.41061221622E+02  0.12561148500E+03  0.14199591947E+03  0.00000000000E+00 0.  1.
         14    1    6    6    0    0  0.15231883870E+01 -0.75002099514E+02  0.29330740834E+03  0.30274885767E+03  0.00000000000E+00 0. -1.
         -5    1    3    3    0  503 -0.12227689278E+02 -0.36138299104E+02  0.32328860689E+02  0.50226868115E+02  0.47000000000E+01 0.  1.
         11    1    4    4    0    0 -0.17965780403E+02  0.10452537252E+03  0.10867915611E+03  0.15185348774E+03  0.00000000000E+00 0. -1.
        -12    1    4    4    0    0  0.38928818535E+02  0.59547897847E+02  0.28214101818E+02  0.76533917918E+02  0.00000000000E+00 0.  1.
</event>
<event>
12    1  0.8562501E-002  0.2733770E+03  0.7818608E-02  0.1099748E+00
         21   -1    0    0  503  502  0.00000000000E+00  0.00000000000E+00  0.37871235568E+02  0.37871235568E+02  0.00000000000E+00 0.  1.
         21   -1    0    0  501  503 -0.00000000000E+00 -0.00000000000E+00 -0.19820250524E+04  0.19820250524E+04  0.00000000000E+00 0. -1.
          6    2    1    2  501    0 -0.11867674538E+03 -0.17750194585E+03 -0.85631933873E+03  0.89889811304E+03  0.17071583721E+03 0.  0.
         24    2    3    3    0    0 -0.11255353813E+03 -0.18188577257E+03 -0.62050073259E+03  0.66291248508E+03  0.93172262620E+02 0.  0.
         -6    2    1    2    0  502  0.11867674538E+03  0.17750194585E+03 -0.10878344782E+04  0.11209981750E+04  0.16631880761E+03 0.  0.
        -24    2    5    5    0    0  0.15683089835E+02  0.10903301905E+03 -0.41576987182E+03  0.43763252460E+03  0.80768073702E+02 0.  0.
          5    1    3    3  501    0 -0.61232072555E+01  0.43838267141E+01 -0.23581860614E+03  0.23598562796E+03  0.47000000000E+01 0. -1.
        -13    1    4    4    0    0 -0.68893447497E+02 -0.36107124805E+02 -0.15971018826E+03  0.17764395797E+03  0.00000000000E+00 0.  1.
         14    1    4    4    0    0 -0.43660090632E+02 -0.14577864776E+03 -0.46079054433E+03  0.48526852711E+03  0.00000000000E+00 0. -1.
         -5    1    5    5    0  502  0.10299365555E+03  0.68468926807E+02 -0.67206460633E+03  0.68336565037E+03  0.47000000000E+01 0.  1.
         13    1    6    6    0    0 -0.74660716371E+01 -0.11418096105E+02 -0.50995804371E+02  0.52789082279E+02  0.00000000000E+00 0. -1.
        -14    1    6    6    0    0  0.23149161472E+02  0.12045111515E+03 -0.36477406745E+03  0.38484344233E+03  0.00000000000E+00 0.  1.
</event>
<event>
12    1  0.8562501E-002  0.1856042E+03  0.7818608E-02  0.1163156E+00
         21   -1    0    0  501  502  0.00000000000E+00  0.00000000000E+00  0.85095711176E+02  0.85095711176E+02  0.00000000000E+00 0. -1.
         21   -1    0    0  502  503 -0.00000000000E+00 -0.00000000000E+00 -0.44167386383E+03  0.44167386383E+03  0.00000000000E+00 0. -1.
         -6    2    1    2    0  503  0.37784156535E+02  0.54112965968E+02 -0.25927157018E+03  0.31720453155E+03  0.17041453038E+03 0.  0.
        -24    2    3    3    0    0 -0.26862162074E+02  0.73752837711E+02 -0.13673659636E+03  0.17719817142E+03  0.80877922489E+02 0.  0.
          6    2    1    2  501    0 -0.37784156535E+02 -0.54112965968E+02 -0.97306582472E+02  0.20956504345E+03  0.17347357399E+03 0.  0.
         24    2    5    5    0    0 -0.26232281270E+02 -0.10283434787E+03 -0.86088011775E+02  0.15803674826E+03  0.79381561759E+02 0.  0.
          5    1    5    5  501    0 -0.11551875264E+02  0.48721381900E+02 -0.11218570697E+02  0.51528295186E+02  0.47000000000E+01 0. -1.
        -13    1    6    6    0    0 -0.31164719710E+02 -0.44465760045E+02 -0.83247749670E+02  0.99391304429E+02  0.00000000000E+00 0.  1.
         14    1    6    6    0    0  0.49324384393E+01 -0.58368587822E+02 -0.28402621051E+01  0.58645443831E+02  0.00000000000E+00 0. -1.
         -5    1    3    3    0  503  0.64646318608E+02 -0.19639871743E+02 -0.12253497381E+03  0.14000636014E+03  0.47000000000E+01 0.  1.
         13    1    4    4    0    0 -0.44825435569E+02  0.12910361466E+02 -0.39645337825E+02  0.61218868974E+02  0.00000000000E+00 0. -1.
        -14    1    4    4    0    0  0.17963273496E+02  0.60842476245E+02 -0.97091258538E+02  0.11597930244E+03  0.00000000000E+00 0.  1.
</event>
<event>
12    1  0.8562501E-002  0.2028681E+03  0.7818608E-02  0.1147445E+00
         21   -1    0    0  503  502  0.00000000000E+00  0.00000000000E+00  0.48345155858E+03  0.48345155858E+03  0.00000000000E+00 0.  1.
         21   -1    0    0  501  503 -0.00000000000E+00 -0.00000000000E+00 -0.85288767777E+02  0.85288767777E+02  0.00000000000E+00 0.  1.
          6    2    1    2  501    0 -0.20576113453E+02 -0.10378116869E+03  0.18060371706E+03  0.27161220270E+03  0.17309413225E+03 0.  0.
         24    2    3    3    0    0 -0.19460212098E+02 -0.12197569355E+03  0.59885436109E+02  0.14943495717E+03  0.59057355966E+02 0.  0.
         -6    2    1    2    0  502  0.20576113453E+02  0.10378116869E+03  0.21755907375E+03  0.29712812366E+03  0.17250873566E+03 0.  0.
        -24    2    5    5    0    0 -0.48387034796E+02  0.53896349164E+02  0.16351220278E+03  0.19619465400E+03  0.80684448379E+02 0.  0.
          5    1    3    3  501    0 -0.11159013554E+01  0.18194524860E+02  0.12071828095E+03  0.12217724553E+03  0.47000000000E+01 0. -1.
        -13    1    4    4    0    0 -0.26042613773E+02 -0.16241115579E+02  0.17506418562E+02  0.35333642018E+02  0.00000000000E+00 0.  1.
         14    1    4    4    0    0  0.65824016750E+01 -0.10573457797E+03  0.42379017548E+02  0.11410131515E+03  0.00000000000E+00 0. -1.
         -5    1    5    5    0  502  0.68963148249E+02  0.49884819529E+02  0.54046870963E+02  0.10093346966E+03  0.47000000000E+01 0.  1.
         11    1    6    6    0    0 -0.41002127203E+02  0.71381007824E+02  0.97988028907E+02  0.12797685932E+03  0.00000000000E+00 0. -1.
        -12    1    6    6    0    0 -0.73849075925E+01 -0.17484658660E+02  0.65524173876E+02  0.68217794678E+02  0.00000000000E+00 0.  1.
</event>
<event>
12    1  0.8562501E-002  0.1950128E+03  0.7818608E-02  0.1154270E+00
         21   -1    0    0  501  502  0.00000000000E+00  0.00000000000E+00  0.74928597337E+03  0.74928597337E+03  0.00000000000E+00 0. -1.
         21   -1    0    0  502  503 -0.00000000000E+00 -0.00000000000E+00 -0.51599407116E+02  0.51599407116E+02  0.00000000000E+00 0. -1.
         -6    2    1    2    0  503 -0.77520113636E+02  0.53122651542E+02  0.28814996926E+03  0.34728840965E+03  0.16955073155E+03 0.  0.
        -24    2    3    3    0    0 -0.91845900894E+02  0.48404143548E+02  0.11953525591E+03  0.17793521643E+03  0.81201189741E+02 0.  0.
          6    2    1    2  501    0  0.77520113636E+02 -0.53122651542E+02  0.40953659699E+03  0.45359697083E+03  0.17087598880E+03 0.  0.
         24    2    5    5    0    0 -0.23703768808E+02 -0.29488383822E+02  0.17854297164E+03  0.20024938758E+03  0.82406256236E+02 0.  0.
          5    1    5    5  501    0  0.10122388244E+03 -0.23634267721E+02  0.23099362535E+03  0.25334758325E+03  0.47000000000E+01 0. -1.
        -11    1    6    6    0    0 -0.32410874039E+02 -0.16489090490E+01  0.16487153026E+03  0.16803513070E+03  0.00000000000E+00 0.  1.
         12    1    6    6    0    0  0.87071052310E+01 -0.27839474773E+02  0.13671441381E+02  0.32214256884E+02  0.00000000000E+00 0. -1.
         -5    1    3    3    0  503  0.14325787258E+02  0.47185079945E+01  0.16861471335E+03  0.16935319323E+03  0.47000000000E+01 0.  1.
         13    1    4    4    0    0 -0.76725098980E+02  0.51670173576E+02  0.12978664534E+03  0.15937729123E+03  0.00000000000E+00 0. -1.
        -14    1    4    4    0    0 -0.15120801914E+02 -0.32660300283E+01 -0.10251389423E+02  0.18557925202E+02  0.00000000000E+00 0.  1.
</event>
<event>
12    1  0.8562501E-002  0.2587538E+03  0.7818608E-02  0.1108473E+00
         21   -1    0    0  501  502  0.00000000000E+00  0.00000000000E+00  0.53262715613E+03  0.53262715613E+03  0.00000000000E+00 0.  1.
         21   -1    0    0  502  503 -0.00000000000E+00 -0.00000000000E+00 -0.30509996315E+03  0.30509996315E+03  0.00000000000E+00 0.  1.
         -6    2    1    2    0  503 -0.15084618636E+03  0.11119273533E+03 -0.20871886839E+03  0.33244114159E+03  0.17842407424E+03 0.  0.
        -24    2    3    3    0    0 -0.38659641992E+02  0.66743167582E+02 -0.17297889797E+03  0.20650059889E+03  0.82289609670E+02 0.  0.
          6    2    1    2  501    0  0.15084618636E+03 -0.11119273533E+03  0.43624606137E+03  0.50528597769E+03  0.17287248728E+03 0.  0.
         24    2    5    5    0    0  0.12496233826E+03 -0.94705680895E+01  0.22705316612E+03  0.27118956524E+03  0.79280277531E+02 0.  0.
          5    1    5    5  501    0  0.25883848101E+02 -0.10172216724E+03  0.20919289525E+03  0.23409641246E+03  0.47000000000E+01 0. -1.
        -11    1    6    6    0    0 -0.14986908124E+01 -0.21228926128E+02  0.33301927220E+02  0.39521282055E+02  0.00000000000E+00 0.  1.
         12    1    6    6    0    0  0.12646102907E+03  0.11758358038E+02  0.19375123890E+03  0.23166828318E+03  0.00000000000E+00 0. -1.
         -5    1    3    3    0  503 -0.11218654437E+03  0.44449567746E+02 -0.35739970419E+02  0.12594054270E+03  0.47000000000E+01 0.  1.
         13    1    4    4    0    0  0.15640812214E+02  0.25760997033E+02 -0.13315229886E+02  0.32947827269E+02  0.00000000000E+00 0. -1.
        -14    1    4    4    0    0 -0.54300454206E+02  0.40982170550E+02 -0.15966366809E+03  0.17355277162E+03  0.00000000000E+00 0.  1.
</event>
<event>
12    1  0.8562501E-002  0.2893025E+03  0.7818608E-02  0.1090779E+00
         21   -1    0    0  501  502  0.00000000000E+00  0.00000000000E+00  0.17396685921E+04  0.17396685921E+04  0.00000000000E+00 0. -1.
         21   -1    0    0  502  503 -0.00000000000E+00 -0.00000000000E+00 -0.68250709778E+02  0.68250709778E+02  0.00000000000E+00 0.  1.
         -6    2    1    2    0  503  0.22863414914E+03 -0.39095694005E+02  0.34313717703E+03  0.44849825196E+03  0.17206252443E+03 0.  0.
        -24    2    3    3    0    0  0.48208912605E+02  0.22425059280E+02  0.13590985791E+03  0.16688979887E+03  0.80955129254E+02 0.  0.
          6    2    1    2  501    0 -0.22863414914E+03  0.39095694005E+02  0.13282807053E+04  0.13594210499E+04  0.17289855829E+03 0.  0.
         24    2    5    5    0    0 -0.14023026331E+03 -0.16516523726E+02  0.52698472215E+03  0.55133361133E+03  0.79489189859E+02 0.  0.
          5    1    5    5  501    0 -0.88403885825E+02  0.55612217731E+02  0.80129598311E+03  0.80808743854E+03  0.47000000000E+01 0. -1.
        -11    1    6    6    0    0 -0.40511981966E+02  0.12373509819E+02  0.63280747999E+02  0.76149704499E+02  0.00000000000E+00 0.  1.
         12    1    6    6    0    0 -0.99718281346E+02 -0.28890033545E+02  0.46370397415E+03  0.47518390683E+03  0.00000000000E+00 0. -1.
         -5    1    3    3    0  503  0.18042523653E+03 -0.61520753285E+02  0.20722731912E+03  0.28160845309E+03  0.47000000000E+01 0.  1.
         11    1    4    4    0    0  0.41486270454E+02  0.13378893062E+02  0.14562554594E+03  0.15200955577E+03  0.00000000000E+00 0. -1.
        -12    1    4    4    0    0  0.67226421517E+01  0.90461662176E+01 -0.97156880324E+01  0.14880243099E+02  0.00000000000E+00 0.  1.
</event>
<event>
12    1  0.8562501E-002  0.1811743E+03  0.7818608E-02  0.1166728E+00
         21   -1    0    0  501  502  0.00000000000E+00  0.00000000000E+00  0.38227241152E+03  0.38227241152E+03  0.00000000000E+00 0.  1.
         21   -1    0    0  502  503 -0.00000000000E+00 -0.00000000000E+00 -0.17227285938E+03  0.17227285938E+03  0.00000000000E+00 0.  1.
         -6    2    1    2    0  503 -0.75545220044E+01 -0.55704744883E+02 -0.91462763907E+02  0.20295208908E+03  0.17223247045E+03 0.  0.
        -24    2    3    3    0    0 -0.11880263444E+02 -0.84325142056E-01  0.14020487831E+02  0.83532034117E+02  0.81485451919E+02 0.  0.
          6    2    1    2  501    0  0.75545220044E+01  0.55704744883E+02  0.30146231605E+03  0.35159318182E+03  0.17198298783E+03 0.  0.
         24    2    5    5    0    0  0.32654111887E+02  0.49766290351E+02  0.30852413134E+03  0.32444149883E+03  0.80821852646E+02 0.  0.
          5    1    5    5  501    0 -0.25099589882E+02  0.59384545327E+01 -0.70618152893E+01  0.27151682999E+02  0.47000000000E+01 0. -1.
        -13    1    6    6    0    0  0.25331013052E+02 -0.12722297622E+02  0.42551804964E+02  0.51128985759E+02  0.00000000000E+00 0.  1.
         14    1    6    6    0    0  0.73230988348E+01  0.62488587972E+02  0.26597232637E+03  0.27331251307E+03  0.00000000000E+00 0. -1.
         -5    1    3    3    0  503  0.43257414401E+01 -0.55620419741E+02 -0.10548325174E+03  0.11942005497E+03  0.47000000000E+01 0.  1.
         13    1    4    4    0    0  0.11733912842E+02 -0.13964925301E+02  0.41130176075E+02  0.44993279867E+02  0.00000000000E+00 0. -1.
        -14    1    4    4    0    0 -0.23614176286E+02  0.13880600158E+02 -0.27109688244E+02  0.38538754250E+02  0.00000000000E+00 0.  1.
</event>
<event>
12    1  0.8562501E-002  0.2274511E+03  0.7818608E-02  0.1128546E+00
         21   -1    0    0  503  502  0.00000000000E+00  0.00000000000E+00  0.11881765211E+03  0.11881765211E+03  0.00000000000E+00 0. -1.
         21   -1    0    0  501  503 -0.00000000000E+00 -0.00000000000E+00 -0.55502568262E+03  0.55502568262E+03  0.00000000000E+00 0. -1.
          6    2    1    2  501    0  0.10149425707E+03 -0.10833407256E+03 -0.37500041193E+03  0.43830063975E+03  0.17159483197E+03 0.  0.
         24    2    3    3    0    0  0.21343019453E+02 -0.11643488056E+03 -0.20065101166E+03  0.24618180320E+03  0.79574153188E+02 0.  0.
         -6    2    1    2    0  502 -0.10149425707E+03  0.10833407256E+03 -0.61207618574E+02  0.23554269498E+03  0.17232711073E+03 0.  0.
        -24    2    5    5    0    0 -0.89525084348E+02  0.14263795722E+03 -0.32462163878E+02  0.18897651880E+03  0.79359971052E+02 0.  0.
          5    1    3    3  501    0  0.80151237619E+02  0.81008079981E+01 -0.17434940027E+03  0.19211883655E+03  0.47000000000E+01 0. -1.
        -13    1    4    4    0    0  0.32781847851E+02 -0.92973322080E+02 -0.93406748106E+02  0.13580688038E+03  0.00000000000E+00 0.  1.
         14    1    4    4    0    0 -0.11438828398E+02 -0.23461558477E+02 -0.10724426356E+03  0.11037492282E+03  0.00000000000E+00 0. -1.
         -5    1    5    5    0  502 -0.11969172725E+02 -0.34303884663E+02 -0.28745454696E+02  0.46566176184E+02  0.47000000000E+01 0.  1.
         11    1    6    6    0    0 -0.27386160161E+02  0.52283842522E+02  0.26241955958E+02  0.64592895969E+02  0.00000000000E+00 0. -1.
        -12    1    6    6    0    0 -0.62138924187E+02  0.90354114700E+02 -0.58704119835E+02  0.12438362283E+03  0.00000000000E+00 0.  1.
</event>
<event>
12    1  0.8562501E-002  0.2955418E+03  0.7818608E-02  0.1087618E+00
         21   -1    0    0  501  502  0.00000000000E+00  0.00000000000E+00  0.82224340610E+02  0.82224340610E+02  0.00000000000E+00 0.  1.
         21   -1    0    0  502  503 -0.00000000000E+00 -0.00000000000E+00 -0.17008147506E+04  0.17008147506E+04  0.00000000000E+00 0.  1.
         -6    2    1    2    0  503 -0.18842200955E+03  0.14848101697E+03 -0.13562297449E+04  0.13878453448E+04  0.17089796366E+03 0.  0.
        -24    2    3    3    0    0 -0.46673370715E+02  0.64328485913E+02 -0.79213910039E+03  0.80014246889E+03  0.80168937450E+02 0.  0.
          6    2    1    2  501    0  0.18842200955E+03 -0.14848101697E+03 -0.26236066508E+03  0.39519374642E+03  0.17261376697E+03 0.  0.
         24    2    5    5    0    0  0.13966419123E+02 -0.59376506948E+02 -0.10633817795E+03  0.14471525787E+03  0.76902973487E+02 0.  0.
          5    1    5    5  501    0  0.17445559042E+03 -0.89104510022E+02 -0.15602248713E+03  0.25047848855E+03  0.47000000000E+01 0. -1.
        -11    1    6    6    0    0  0.18219383531E+02 -0.65795670710E+02 -0.42510687006E+02  0.80424963351E+02  0.00000000000E+00 0.  1.
         12    1    6    6    0    0 -0.42529644086E+01  0.64191637610E+01 -0.63827490940E+02  0.64290294519E+02  0.00000000000E+00 0. -1.
         -5    1    3    3    0  503 -0.14174863883E+03  0.84152531057E+02 -0.56409064454E+03  0.58770287591E+03  0.47000000000E+01 0.  1.
         13    1    4    4    0    0  0.40932826075E+01 -0.16456715919E+02 -0.14957730291E+03  0.15053553735E+03  0.00000000000E+00 0. -1.
        -14    1    4    4    0    0 -0.50766653322E+02  0.80785201833E+02 -0.64256179748E+03  0.64960693154E+03  0.00000000000E+00 0.  1.
</event>
<event>
12    1  0.8562501E-002  0.1958118E+03  0.7818608E-02  0.1157215E+00
         21   -1    0    0  501  502  0.00000000000E+00  0.00000000000E+00  0.20892828841E+03  0.20892828841E+03  0.00000000000E+00 0.  1.
         21   -1    0    0  502  503 -0.00000000000E+00 -0.00000000000E+00 -0.20679951604E+03  0.20679951604E+03  0.00000000000E+00 0.  1.
         -6    2    1    2    0  503  0.22572157112E+02 -0.71313402996E+02  0.91170434832E+02  0.20062164310E+03  0.16230185387E+03 0.  0.
        -24    2    3    3    0    0  0.46789054144E+02 -0.46973188287E+02  0.17203113029E+00  0.10324760329E+03  0.79147596198E+02 0.  0.
          6    2    1    2  501    0 -0.22572157112E+02  0.71313402996E+02 -0.89041662471E+02  0.21510616135E+03  0.18096170664E+03 0.  0.
         24    2    5    5    0    0  0.14660955680E+01  0.11860403603E+03 -0.66542721583E+02  0.15729151004E+03  0.79016571269E+02 0.  0.
          5    1    5    5  501    0 -0.24038252680E+02 -0.47290633036E+02 -0.22498940888E+02  0.57814651309E+02  0.47000000000E+01 0. -1.
        -13    1    6    6    0    0  0.20942255885E+02  0.17101710549E+02 -0.43786983781E+02  0.51462088316E+02  0.00000000000E+00 0.  1.
         14    1    6    6    0    0 -0.19476160317E+02  0.10150232548E+03 -0.22755737803E+02  0.10582942172E+03  0.00000000000E+00 0. -1.
         -5    1    3    3    0  503 -0.24216897032E+02 -0.24340214709E+02  0.90998403702E+02  0.97374039817E+02  0.47000000000E+01 0.  1.
         11    1    4    4    0    0  0.83395697948E+01  0.22310869131E+02  0.26882340965E+01  0.23969770719E+02  0.00000000000E+00 0. -1.
        -12    1    4    4    0    0  0.38449484349E+02 -0.69284057419E+02 -0.25162029662E+01  0.79277832567E+02  0.00000000000E+00 0.  1.
</event>
<event>
12    1  0.8562501E-002  0.2983468E+03  0.7818608E-02  0.1086165E+00
         21   -1    0    0  503  502  0.00000000000E+00  0.00000000000E+00  0.27473997981E+03  0.27473997981E+03  0.00000000000E+00 0. -1.
         21   -1    0    0  501  503 -0.00000000000E+00 -0.00000000000E+00 -0.40654099573E+03  0.40654099573E+03  0.00000000000E+00 0.  1.
          6    2    1    2  501    0  0.22456890953E+03  0.91386008229E+02 -0.22010284519E+03  0.37014108244E+03  0.17255886191E+03 0.  0.
         24    2    3    3    0    0  0.15453136585E+03  0.12116031347E+03 -0.19550240254E+03  0.29002217983E+03  0.85626577678E+02 0.  0.
         -6    2    1    2    0  502 -0.22456890953E+03 -0.91386008229E+02  0.88301829264E+02  0.31113989311E+03  0.17386265385E+03 0.  0.
        -24    2    5    5    0    0 -0.32560009535E+02 -0.52886410688E+02  0.27939183526E+02  0.10616336838E+03  0.81442839797E+02 0.  0.
          5    1    3    3  501    0  0.70037543675E+02 -0.29774305240E+02 -0.24600442648E+02  0.80118902607E+02  0.47000000000E+01 0. -1.
        -11    1    4    4    0    0 -0.34385912386E+01  0.10746995764E+02 -0.42412439894E+02  0.43887776037E+02  0.00000000000E+00 0.  1.
         12    1    4    4    0    0  0.15796995709E+03  0.11041331771E+03 -0.15308996265E+03  0.24613440380E+03  0.00000000000E+00 0. -1.
         -5    1    5    5    0  502 -0.19200889999E+03 -0.38499597542E+02  0.60362645739E+02  0.20497652472E+03  0.47000000000E+01 0.  1.
         13    1    6    6    0    0 -0.41208232731E+02 -0.67610224388E+02  0.36355349530E+02  0.87126186225E+02  0.00000000000E+00 0. -1.
        -14    1    6    6    0    0  0.86482231955E+01  0.14723813701E+02 -0.84161660044E+01  0.19037182159E+02  0.00000000000E+00 0.  1.
</event>
<event>
12    1  0.8562501E-002  0.1816073E+03  0.7818608E-02  0.1166382E+00
         21   -1    0    0  501  502  0.00000000000E+00  0.00000000000E+00  0.52577769625E+02  0.52577769625E+02  0.00000000000E+00 0. -1.
         21   -1    0    0  502  503 -0.00000000000E+00 -0.00000000000E+00 -0.63058834150E+03  0.63058834150E+03  0.00000000000E+00 0. -1.
         -6    2    1    2    0  503 -0.56261621441E+02  0.13260921637E+02 -0.32017186587E+03  0.36809131929E+03  0.17216263692E+03 0.  0.
        -24    2    3    3    0    0 -0.15298448631E+02  0.47024859546E+02 -0.91896176175E+02  0.13367744270E+03  0.83542633103E+02 0.  0.
          6    2    1    2  501    0  0.56261621441E+02 -0.13260921637E+02 -0.25783870600E+03  0.31507479184E+03  0.17161032617E+03 0.  0.
         24    2    5    5    0    0  0.94054831248E+02 -0.11129407332E+00 -0.12639880866E+03  0.17759833557E+03  0.81964542949E+02 0.  0.
          5    1    5    5  501    0 -0.37793209806E+02 -0.13149627564E+02 -0.13143989734E+03  0.13747645626E+03  0.47000000000E+01 0. -1.
        -13    1    6    6    0    0 -0.14432694432E+00  0.16989267253E+02 -0.56660196656E+02  0.59152632377E+02  0.00000000000E+00 0.  1.
         14    1    6    6    0    0  0.94199158192E+02 -0.17100561326E+02 -0.69738612004E+02  0.11844570320E+03  0.00000000000E+00 0. -1.
         -5    1    3    3    0  503 -0.40963172810E+02 -0.33763937909E+02 -0.22827568970E+03  0.23441387659E+03  0.47000000000E+01 0.  1.
         13    1    4    4    0    0 -0.47637948630E+02  0.13460627504E+02 -0.56719916203E+02  0.75284205093E+02  0.00000000000E+00 0. -1.
        -14    1    4    4    0    0  0.32339499999E+02  0.33564232042E+02 -0.35176259971E+02  0.58393237608E+02  0.00000000000E+00 0.  1.
</event>
<event>
12    1  0.8562501E-002  0.2213111E+03  0.7818608E-02  0.1132918E+00
         21   -1    0    0  501  502  0.00000000000E+00  0.00000000000E+00  0.27502763235E+03  0.27502763235E+03  0.00000000000E+00 0.  1.
         21   -1    0    0  502  503 -0.00000000000E+00 -0.00000000000E+00 -0.23901229909E+03  0.23901229909E+03  0.00000000000E+00 0. -1.
         -6    2    1    2    0  503  0.67889551344E+02  0.12525533438E+03 -0.11179997648E+03  0.24790469178E+03  0.16929149859E+03 0.  0.
        -24    2    3    3    0    0  0.56506060757E+02  0.80219815121E+02 -0.30182491282E+00  0.12702578686E+03  0.80667873334E+02 0.  0.
          6    2    1    2  501    0 -0.67889551344E+02 -0.12525533438E+03  0.14781530974E+03  0.26613523966E+03  0.16935380133E+03 0.  0.
         24    2    5    5    0    0 -0.25845127241E+02 -0.12188311550E+03  0.46630907085E+02  0.15641068089E+03  0.82258100838E+02 0.  0.
          5    1    5    5  501    0 -0.42044424103E+02 -0.33722188789E+01  0.10118440265E+03  0.10972455877E+03  0.47000000000E+01 0. -1.
        -11    1    6    6    0    0 -0.51235200926E+02 -0.10951069164E+03  0.35020345227E+02  0.12587319801E+03  0.00000000000E+00 0.  1.
         12    1    6    6    0    0  0.25390073685E+02 -0.12372423866E+02  0.11610561858E+02  0.30537482881E+02  0.00000000000E+00 0. -1.
         -5    1    3    3    0  503  0.11383490588E+02  0.45035519261E+02 -0.11149815156E+03  0.12087890492E+03  0.47000000000E+01 0.  1.
         13    1    4    4    0    0  0.76298191843E+02  0.54514791180E+02  0.60518964903E+01  0.93967558163E+02  0.00000000000E+00 0. -1.
        -14    1    4    4    0    0 -0.19792131087E+02  0.25705023941E+02 -0.63537214031E+01  0.33058228695E+02  0.00000000000E+00 0.  1.
</event>
<event>
12    1  0.8562501E-002  0.4347201E+03  0.7818608E-02  0.1032380E+00
         21   -1    0    0  501  502  0.00000000000E+00  0.00000000000E+00  0.43478580618E+03  0.43478580618E+03  0.00000000000E+00 0. -1.
         21   -1    0    0  502  503 -0.00000000000E+00 -0.00000000000E+00 -0.72671062698E+03  0.72671062698E+03  0.00000000000E+00 0.  1.
         -6    2    1    2    0  503  0.37180509951E+03 -0.14598471612E+03 -0.51413189170E+03  0.67327771068E+03  0.17152464628E+03 0.  0.
        -24    2    3    3    0    0  0.11365352302E+03 -0.50892696469E+02 -0.26536490597E+03  0.30234398097E+03  0.74068614571E+02 0.  0.
          6    2    1    2  501    0 -0.37180509951E+03  0.14598471612E+03  0.22220707090E+03  0.48821872247E+03  0.17155456642E+03 0.  0.
         24    2    5    5    0    0 -0.17142025640E+03  0.34983097602E+01  0.82174831553E+02  0.20522123238E+03  0.77239295723E+02 0.  0.
          5    1    5    5  501    0 -0.20038484311E+03  0.14248640636E+03  0.14003223934E+03  0.28299749009E+03  0.47000000000E+01 0. -1.
        -11    1    6    6    0    0 -0.25753638750E+02 -0.86145272832E+01  0.47938502152E+02  0.55095916163E+02  0.00000000000E+00 0.  1.
         12    1    6    6    0    0 -0.14566661765E+03  0.12112837043E+02  0.34236329401E+02  0.15012531622E+03  0.00000000000E+00 0. -1.
         -5    1    3    3    0  503  0.25815157649E+03 -0.95092019648E+02 -0.24876698573E+03  0.37093372971E+03  0.47000000000E+01 0.  1.
         11    1    4    4    0    0  0.30965001132E+02  0.19234997778E+02 -0.68740346641E+02  0.77807786827E+02  0.00000000000E+00 0. -1.
        -12    1    4    4    0    0  0.82688521886E+02 -0.70127694247E+02 -0.19662455933E+03  0.22453619415E+03  0.00000000000E+00 0.  1.
</event>
<event>
12    1  0.8562501E-002  0.2009391E+03  0.7818608E-02  0.1149845E+00
         21   -1    0    0  501  502  0.00000000000E+00  0.00000000000E+00  0.40868942438E+03  0.40868942438E+03  0.00000000000E+00 0.  1.
         21   -1    0    0  502  503 -0.00000000000E+00 -0.00000000000E+00 -0.12882056513E+03  0.12882056513E+03  0.00000000000E+00 0.  1.
         -6    2    1    2    0  503 -0.34703303722E+02  0.89101926676E+02  0.27295204528E+03  0.33645185832E+03  0.17191149267E+03 0.  0.
        -24    2    3    3    0    0 -0.36284464349E+02  0.14315203073E+02  0.23795229048E+03  0.25373168585E+03  0.78974606482E+02 0.  0.
          6    2    1    2  501    0  0.34703303722E+02 -0.89101926676E+02  0.69168139699E+01  0.20105813119E+03  0.17672876725E+03 0.  0.
         24    2    5    5    0    0 -0.33847814086E+02 -0.87250576036E+02  0.31776503861E+02  0.12796382612E+03  0.81281345099E+02 0.  0.
          5    1    5    5  501    0  0.68551117807E+02 -0.18513506400E+01 -0.24859689891E+02  0.73094305067E+02  0.47000000000E+01 0. -1.
        -13    1    6    6    0    0 -0.14949104025E+02 -0.95528749846E+02  0.88118068609E+01  0.97092047555E+02  0.00000000000E+00 0.  1.
         14    1    6    6    0    0 -0.18898710060E+02  0.82781738099E+01  0.22964697000E+02  0.30871778567E+02  0.00000000000E+00 0. -1.
         -5    1    3    3    0  503  0.15811606269E+01  0.74786723603E+02  0.34999754808E+02  0.82720172466E+02  0.47000000000E+01 0.  1.
         11    1    4    4    0    0  0.10937748441E+02 -0.75012817627E+01  0.36943599779E+01  0.13767783579E+02  0.00000000000E+00 0. -1.
        -12    1    4    4    0    0 -0.47222212789E+02  0.21816484836E+02  0.23425793050E+03  0.23996390227E+03  0.00000000000E+00 0.  1.
</event>
<event>
12    1  0.8562501E-002  0.1757392E+03  0.7818608E-02  0.1172642E+00
         21   -1    0    0  501  502  0.00000000000E+00  0.00000000000E+00  0.32082161601E+02  0.32082161601E+02  0.00000000000E+00 0. -1.
         21   -1    0    0  502  503 -0.00000000000E+00 -0.00000000000E+00 -0.14737634937E+04  0.14737634937E+04  0.00000000000E+00 0. -1.
         -6    2    1    2    0  503  0.26497279780E+02 -0.25674717827E+02 -0.11668692215E+04  0.11796463785E+04  0.16917594768E+03 0.  0.
        -24    2    3    3    0    0  0.66976132169E+02  0.15073062948E+02 -0.62848582237E+03  0.63818752172E+03  0.87039556868E+02 0.  0.
          6    2    1    2  501    0 -0.26497279780E+02  0.25674717827E+02 -0.27481211055E+03  0.32619927674E+03  0.17182251038E+03 0.  0.
         24    2    5    5    0    0 -0.68776361065E+02  0.55178255152E+02 -0.15785672756E+03  0.19829841263E+03  0.81416744810E+02 0.  0.
          5    1    5    5  501    0  0.42279081285E+02 -0.29503537324E+02 -0.11695538299E+03  0.12790086411E+03  0.47000000000E+01 0. -1.
        -11    1    6    6    0    0 -0.32940031465E+02  0.34899392642E+01 -0.12088389619E+03  0.12534010414E+03  0.00000000000E+00 0.  1.
         12    1    6    6    0    0 -0.35836329600E+02  0.51688315888E+02 -0.36972831369E+02  0.72958308492E+02  0.00000000000E+00 0. -1.
         -5    1    3    3    0  503 -0.40478852389E+02 -0.40747780776E+02 -0.53838339915E+03  0.54145885681E+03  0.47000000000E+01 0.  1.
         13    1    4    4    0    0  0.15759313231E+02  0.40507497658E+02 -0.41163833299E+03  0.41392672118E+03  0.00000000000E+00 0. -1.
        -14    1    4    4    0    0  0.51216818938E+02 -0.25434434709E+02 -0.21684748937E+03  0.22426080054E+03  0.00000000000E+00 0.  1.
</event>
<event>
12    1  0.8562501E-002  0.1738395E+03  0.7818608E-02  0.1174165E+00
         21   -1    0    0  503  502  0.00000000000E+00  0.00000000000E+00  0.26726927546E+03  0.26726927546E+03  0.00000000000E+00 0. -1.
         21   -1    0    0  501  503 -0.00000000000E+00 -0.00000000000E+00 -0.18916421301E+03  0.18916421301E+03  0.00000000000E+00 0. -1.
          6    2    1    2  501    0 -0.18816915278E+02 -0.18199646147E+02 -0.10639932155E+03  0.20293393006E+03  0.17081001412E+03 0.  0.
         24    2    3    3    0    0 -0.32609316528E+02  0.43476281651E+02 -0.17460990374E+02  0.93726479976E+02  0.74338497922E+02 0.  0.
         -6    2    1    2    0  502  0.18816915278E+02  0.18199646147E+02  0.18450438400E+03  0.25349955840E+03  0.17185707717E+03 0.  0.
        -24    2    5    5    0    0  0.69760519638E+02 -0.18709935112E+02  0.13669202442E+03  0.17434351162E+03  0.80587584223E+02 0.  0.
          5    1    3    3  501    0  0.13792401250E+02 -0.61675927798E+02 -0.88938331175E+02  0.10920745009E+03  0.47000000000E+01 0. -1.
        -11    1    4    4    0    0  0.13668869122E+01  0.35473334773E+02 -0.38978318985E+02  0.52721297505E+02  0.00000000000E+00 0.  1.
         12    1    4    4    0    0 -0.33976203440E+02  0.80029468783E+01  0.21517328611E+02  0.41005182471E+02  0.00000000000E+00 0. -1.
         -5    1    5    5    0  502 -0.50943604361E+02  0.36909581258E+02  0.47812359579E+02  0.79156046784E+02  0.47000000000E+01 0.  1.
         13    1    6    6    0    0  0.19299857413E+02  0.10867941237E+02  0.10600021460E+03  0.10828962156E+03  0.00000000000E+00 0. -1.
        -14    1    6    6    0    0  0.50460662225E+02 -0.29577876349E+02  0.30691809823E+02  0.66053890057E+02  0.00000000000E+00 0.  1.
</event>
<event>
12    1  0.8562501E-002  0.1749574E+03  0.7818608E-02  0.1173237E+00
         21   -1    0    0  503  502  0.00000000000E+00  0.00000000000E+00  0.26287783253E+02  0.26287783253E+02  0.00000000000E+00 0. -1.
         21   -1    0    0  501  503 -0.00000000000E+00 -0.00000000000E+00 -0.12238406795E+04  0.12238406795E+04  0.00000000000E+00 0. -1.
          6    2    1    2  501    0 -0.20796825379E+02 -0.18282875508E+00 -0.75291556476E+03  0.77297602482E+03  0.17371685558E+03 0.  0.
         24    2    3    3    0    0 -0.49025322283E+02 -0.51293502795E+02 -0.60381717503E+03  0.61278373768E+03  0.76643477549E+02 0.  0.
         -6    2    1    2    0  502  0.20796825379E+02  0.18282875508E+00 -0.44463733153E+03  0.47715243798E+03  0.17187073953E+03 0.  0.
        -24    2    5    5    0    0 -0.41954760395E+01 -0.57498275134E+01 -0.77948126936E+02  0.10953460067E+03  0.76624119674E+02 0.  0.
          5    1    3    3  501    0  0.28228496904E+02  0.51110674040E+02 -0.14909838973E+03  0.16019228714E+03  0.47000000000E+01 0. -1.
        -11    1    4    4    0    0 -0.58192214539E+02 -0.34630568578E+02 -0.26780632806E+03  0.27623511627E+03  0.00000000000E+00 0.  1.
         12    1    4    4    0    0  0.91668922560E+01 -0.16662934217E+02 -0.33601084697E+03  0.33654862141E+03  0.00000000000E+00 0. -1.
         -5    1    5    5    0  502  0.24992301418E+02  0.59326562684E+01 -0.36668920459E+03  0.36761783731E+03  0.47000000000E+01 0.  1.
         11    1    6    6    0    0 -0.99929890600E+01  0.34688234867E+02 -0.36044036225E+02  0.51012802471E+02  0.00000000000E+00 0. -1.
        -12    1    6    6    0    0  0.57975130205E+01 -0.40438062380E+02 -0.41904090711E+02  0.58521798201E+02  0.00000000000E+00 0.  1.
</event>
<event>
12    1  0.8562501E-002  0.1904917E+03  0.7818608E-02  0.1158764E+00
         21   -1    0    0  501  502  0.00000000000E+00  0.00000000000E+00  0.39590063000E+03  0.39590063000E+03  0.00000000000E+00 0. -1.
         21   -1    0    0  502  503 -0.00000000000E+00 -0.00000000000E+00 -0.22162832351E+03  0.22162832351E+03  0.00000000000E+00 0.  1.
         -6    2    1    2    0  503  0.39285935916E+02  0.68090935401E+02 -0.15104620151E+03  0.24054194168E+03  0.16989911852E+03 0.  0.
        -24    2    3    3    0    0  0.87726835691E+02  0.24454583850E+02 -0.85180084006E+02  0.14774599682E+03  0.79241456910E+02 0.  0.
          6    2    1    2  501    0 -0.39285935916E+02 -0.68090935401E+02  0.32531850801E+03  0.37698701183E+03  0.17351459649E+03 0.  0.
         24    2    5    5    0    0 -0.22758110808E+02  0.20456303454E+02  0.23089547702E+03  0.24640530832E+03  0.80414319011E+02 0.  0.
          5    1    5    5  501    0 -0.16527825108E+02 -0.88547238855E+02  0.94423030989E+02  0.13058170351E+03  0.47000000000E+01 0. -1.
        -13    1    6    6    0    0 -0.52124250274E+02  0.14278405070E+02  0.17222666533E+03  0.18050715932E+03  0.00000000000E+00 0.  1.
         14    1    6    6    0    0  0.29366139466E+02  0.61778983836E+01  0.58668811691E+02  0.65898148994E+02  0.00000000000E+00 0. -1.
         -5    1    3    3    0  503 -0.48440899775E+02  0.43636351551E+02 -0.65866117501E+02  0.92795944859E+02  0.47000000000E+01 0.  1.
         13    1    4    4    0    0  0.49696220363E+02  0.48029831478E+02 -0.26652693798E+02  0.74073916576E+02  0.00000000000E+00 0. -1.
        -14    1    4    4    0    0  0.38030615327E+02 -0.23575247627E+02 -0.58527390208E+02  0.73672080243E+02  0.00000000000E+00 0.  1.
</event>
<event>
12    1  0.8562501E-002  0.1885490E+03  0.7818608E-02  0.1159837E+00
         21   -1    0    0  501  502  0.00000000000E+00  0.00000000000E+00  0.15194545563E+03  0.15194545563E+03  0.00000000000E+00 0. -1.
         21   -1    0    0  502  503 -0.00000000000E+00 -0.00000000000E+00 -0.45983295304E+03  0.45983295304E+03  0.00000000000E+00 0.  1.
         -6    2    1    2    0  503 -0.46589537191E+02  0.61264675012E+02 -0.36853730727E+03  0.41396918257E+03  0.17212435007E+03 0.  0.
        -24    2    3    3    0    0 -0.90089026640E+02  0.70206946447E+02 -0.23340097642E+03  0.27164529942E+03  0.79183993646E+02 0.  0.
          6    2    1    2  501    0  0.46589537191E+02 -0.61264675012E+02  0.60649809860E+02  0.19780922610E+03  0.17183173489E+03 0.  0.
         24    2    5    5    0    0  0.46893238784E+02  0.16141675733E+01 -0.66844153793E+01  0.10556049186E+03  0.94322609447E+02 0.  0.
          5    1    5    5  501    0 -0.30370159368E+00 -0.62878842586E+02  0.67334225239E+02  0.92248734236E+02  0.47000000000E+01 0. -1.
        -11    1    6    6    0    0 -0.18990769907E+02 -0.26978801277E+02 -0.70555970161E+01  0.33738501883E+02  0.00000000000E+00 0.  1.
         12    1    6    6    0    0  0.65884008692E+02  0.28592968851E+02  0.37118163682E+00  0.71821989981E+02  0.00000000000E+00 0. -1.
         -5    1    3    3    0  503  0.43499489449E+02 -0.89422714350E+01 -0.13513633085E+03  0.14232388315E+03  0.47000000000E+01 0.  1.
         13    1    4    4    0    0 -0.40110621758E+02  0.30765984151E+02 -0.30613016797E+02  0.59097923450E+02  0.00000000000E+00 0. -1.
        -14    1    4    4    0    0 -0.49978404881E+02  0.39440962296E+02 -0.20278795963E+03  0.21254737597E+03  0.00000000000E+00 0.  1.
</event>
<event>
12    1  0.8562501E-002  0.1917101E+03  0.7818608E-02  0.1157069E+00
         21   -1    0    0  501  502  0.00000000000E+00  0.00000000000E+00  0.20868600033E+03  0.20868600033E+03  0.00000000000E+00 0. -1.
         21   -1    0    0  502  503 -0.00000000000E+00 -0.00000000000E+00 -0.97336295273E+03  0.97336295273E+03  0.00000000000E+00 0. -1.
         -6    2    1    2    0  503  0.27604175062E+02 -0.78950239225E+02 -0.91730940433E+03  0.93699907972E+03  0.17180105169E+03 0.  0.
        -24    2    3    3    0    0 -0.35983516570E+02  0.22977301808E+02 -0.42738255424E+03  0.43253597245E+03  0.51075923249E+02 0.  0.
          6    2    1    2  501    0 -0.27604175062E+02  0.78950239225E+02  0.15263245194E+03  0.24504987334E+03  0.17250404136E+03 0.  0.
         24    2    5    5    0    0 -0.11603394830E+02  0.48349047484E+02  0.48629618908E+01  0.93226390005E+02  0.78709861078E+02 0.  0.
          5    1    5    5  501    0 -0.16000780233E+02  0.30601191741E+02  0.14776949005E+03  0.15182348334E+03  0.47000000000E+01 0. -1.
        -13    1    6    6    0    0 -0.19995988738E+02 -0.20251238375E+01  0.30154197476E+02  0.36238326639E+02  0.00000000000E+00 0.  1.
         14    1    6    6    0    0  0.83925939083E+01  0.50374171322E+02 -0.25291235585E+02  0.56988063367E+02  0.00000000000E+00 0. -1.
         -5    1    3    3    0  503  0.63587691632E+02 -0.10192754103E+03 -0.48992685009E+03  0.50446310726E+03  0.47000000000E+01 0.  1.
         13    1    4    4    0    0 -0.16378647235E+02 -0.10479295297E+02 -0.25975093606E+03  0.26047768523E+03  0.00000000000E+00 0. -1.
        -14    1    4    4    0    0 -0.19604869335E+02  0.33456597105E+02 -0.16763161818E+03  0.17205828723E+03  0.00000000000E+00 0.  1.
</event>
<event>
12    1  0.8562501E-002  0.2173470E+03  0.7818608E-02  0.1137136E+00
         21   -1    0    0  501  502  0.00000000000E+00  0.00000000000E+00  0.12234425644E+04  0.12234425644E+04  0.00000000000E+00 0.  1.
         21   -1    0    0  502  503 -0.00000000000E+00 -0.00000000000E+00 -0.15179579565E+03  0.15179579565E+03  0.00000000000E+00 0.  1.
         -6    2    1    2    0  503  0.98851217225E+02 -0.70977309979E+02 -0.58915536962E+02  0.22519053577E+03  0.18008441139E+03 0.  0.
        -24    2    3    3    0    0 -0.21330945905E+02 -0.97040595032E+01 -0.20684843418E+02  0.84898556359E+02  0.78934935869E+02 0.  0.
          6    2    1    2  501    0 -0.98851217225E+02  0.70977309979E+02  0.11305623058E+04  0.11500478243E+04  0.17213230185E+03 0.  0.
         24    2    5    5    0    0 -0.49298355003E+02 -0.30158385048E+02  0.50798570243E+03  0.51734913460E+03  0.79125199533E+02 0.  0.
          5    1    5    5  501    0 -0.49552862222E+02  0.10113569503E+03  0.62257660332E+03  0.63269868972E+03  0.47000000000E+01 0. -1.
        -13    1    6    6    0    0 -0.44014422714E+02  0.16918678711E+02  0.32154264501E+03  0.32498182050E+03  0.00000000000E+00 0.  1.
         14    1    6    6    0    0 -0.52839322889E+01 -0.47077063759E+02  0.18644305742E+03  0.19236731410E+03  0.00000000000E+00 0. -1.
         -5    1    3    3    0  503  0.12018216313E+03 -0.61273250476E+02 -0.38230693544E+02  0.14029197941E+03  0.47000000000E+01 0.  1.
         13    1    4    4    0    0 -0.17235145597E+02 -0.43981887611E+02 -0.69583999144E+01  0.47748047195E+02  0.00000000000E+00 0. -1.
        -14    1    4    4    0    0 -0.40958003082E+01  0.34277828107E+02 -0.13726443504E+02  0.37150509164E+02  0.00000000000E+00 0.  1.
</event>
<event>
12    1  0.8562501E-002  0.2353185E+03  0.7818608E-02  0.1123735E+00
         21   -1    0    0  501  502  0.00000000000E+00  0.00000000000E+00  0.10940135612E+04  0.10940135612E+04  0.00000000000E+00 0. -1.
         21   -1    0    0  502  503 -0.00000000000E+00 -0.00000000000E+00 -0.49778680948E+02  0.49778680948E+02  0.00000000000E+00 0. -1.
         -6    2    1    2    0  503 -0.14781170690E+02 -0.15612611299E+03  0.49747577705E+03  0.55032438627E+03  0.17544496348E+03 0.  0.
        -24    2    3    3    0    0 -0.61128267770E+02 -0.15062188296E+03  0.32958552885E+03  0.37600406216E+03  0.79553863451E+02 0.  0.
          6    2    1    2  501    0  0.14781170690E+02  0.15612611299E+03  0.54675910321E+03  0.59346785589E+03  0.16930662380E+03 0.  0.
         24    2    5    5    0    0 -0.50240300525E+02  0.91231144087E+02  0.23994524185E+03  0.27316177691E+03  0.78717392160E+02 0.  0.
          5    1    5    5  501    0  0.65021471216E+02  0.64894968899E+02  0.30681386136E+03  0.32030607898E+03  0.47000000000E+01 0. -1.
        -13    1    6    6    0    0 -0.38228523305E+02  0.30017345246E+00  0.82979901337E+02  0.91362870599E+02  0.00000000000E+00 0.  1.
         14    1    6    6    0    0 -0.12011777220E+02  0.90930970634E+02  0.15696534052E+03  0.18179890631E+03  0.00000000000E+00 0. -1.
         -5    1    3    3    0  503  0.46347097080E+02 -0.55042300255E+01  0.16789024821E+03  0.17432032411E+03  0.47000000000E+01 0.  1.
         11    1    4    4    0    0 -0.55413957160E+02 -0.37967491715E+02  0.10434112752E+03  0.12409394815E+03  0.00000000000E+00 0. -1.
        -12    1    4    4    0    0 -0.57143106106E+01 -0.11265439125E+03  0.22524440133E+03  0.25191011401E+03  0.00000000000E+00 0.  1.
</event>
<event>
12    1  0.8562501E-002  0.1886544E+03  0.7818608E-02  0.1159749E+00
         21   -1    0    0  503  502  0.00000000000E+00  0.00000000000E+00  0.11066732077E+03  0.11066732077E+03  0.00000000000E+00 0.  1.
         21   -1    0    0  501  503 -0.00000000000E+00 -0.00000000000E+00 -0.32116041707E+03  0.32116041707E+03  0.00000000000E+00 0.  1.
          6    2    1    2  501    0  0.38628920401E+02 -0.67196104376E+02 -0.10190176096E+03  0.21415236301E+03  0.17166757342E+03 0.  0.
         24    2    3    3    0    0 -0.43418318814E+02 -0.27256553461E+02 -0.33195361517E+02  0.99830114462E+02  0.78968662216E+02 0.  0.
         -6    2    1    2    0  502 -0.38628920401E+02  0.67196104376E+02 -0.10859133535E+03  0.21767537482E+03  0.17199703706E+03 0.  0.
        -24    2    5    5    0    0  0.26517024454E+02 -0.11245638265E+01 -0.18494317237E+02  0.87094861316E+02  0.80864441307E+02 0.  0.
          5    1    3    3  501    0  0.82047239215E+02 -0.39939550915E+02 -0.68706399440E+02  0.11432224855E+03  0.47000000000E+01 0. -1.
        -11    1    4    4    0    0 -0.60123648465E+02 -0.57143284379E+01 -0.39087858923E+02  0.71940026198E+02  0.00000000000E+00 0.  1.
         12    1    4    4    0    0  0.16705329651E+02 -0.21542225023E+02  0.58924974061E+01  0.27890088264E+02  0.00000000000E+00 0. -1.
         -5    1    5    5    0  502 -0.65145944855E+02  0.68320668202E+02 -0.90097018109E+02  0.13058051350E+03  0.47000000000E+01 0.  1.
         13    1    6    6    0    0 -0.19486306386E+02 -0.18471263448E+02 -0.25982148028E+02  0.37362758545E+02  0.00000000000E+00 0. -1.
        -14    1    6    6    0    0  0.46003330840E+02  0.17346699621E+02  0.74878307912E+01  0.49732102772E+02  0.00000000000E+00 0.  1.
</event>
<event>
12    1  0.8562501E-002  0.2188615E+03  0.7818608E-02  0.1134842E+00
         21   -1    0    0  501  502  0.00000000000E+00  0.00000000000E+00  0.35342984698E+02  0.35342984698E+02  0.00000000000E+00 0.  1.
         21   -1    0    0  502  503 -0.00000000000E+00 -0.00000000000E+00 -0.17560968963E+04  0.17560968963E+04  0.00000000000E+00 0.  1.
         -6    2    1    2    0  503 -0.21874370006E+02 -0.13327160391E+03 -0.12910538790E+04  0.13094733552E+04  0.17222235909E+03 0.  0.
        -24    2    3    3    0    0  0.40125404190E+02 -0.36548377218E+02 -0.45261603874E+03  0.46318767258E+03  0.82071368772E+02 0.  0.
          6    2    1    2  501    0  0.21874370006E+02  0.13327160391E+03 -0.42970003257E+03  0.48196652579E+03  0.17149287308E+03 0.  0.
         24    2    5    5    0    0 -0.52484257864E+02  0.76833292042E+02 -0.18241535448E+03  0.21760637258E+03  0.73615349952E+02 0.  0.
          5    1    5    5  501    0  0.74358627871E+02  0.56438311863E+02 -0.24728467809E+03  0.26436015321E+03  0.47000000000E+01 0. -1.
        -13    1    6    6    0    0 -0.38025623073E+02  0.83230701759E+02 -0.10810801545E+03  0.14163559133E+03  0.00000000000E+00 0.  1.
         14    1    6    6    0    0 -0.14458634791E+02 -0.63974097167E+01 -0.74307339031E+02  0.75970781258E+02  0.00000000000E+00 0. -1.
         -5    1    3    3    0  503 -0.61999774197E+02 -0.96723226687E+02 -0.83843784025E+03  0.84628568258E+03  0.47000000000E+01 0.  1.
         13    1    4    4    0    0  0.45625571675E+02 -0.44217420122E+02 -0.18882549033E+03  0.19922835850E+03  0.00000000000E+00 0. -1.
        -14    1    4    4    0    0 -0.55001674843E+01  0.76690429040E+01 -0.26379054841E+03  0.26395931408E+03  0.00000000000E+00 0.  1.
</event>
<event>
12    1  0.8562501E-002  0.1772325E+03  0.7818608E-02  0.1170739E+00
         21   -1    0    0  503  502  0.00000000000E+00  0.00000000000E+00  0.11332360752E+03  0.11332360752E+03  0.00000000000E+00 0.  1.
         21   -1    0    0  501  503 -0.00000000000E+00 -0.00000000000E+00 -0.44004589165E+03  0.44004589165E+03  0.00000000000E+00 0.  1.
          6    2    1    2  501    0 -0.38206870545E+02 -0.12553959153E+02 -0.33270497680E+03  0.37696680338E+03  0.17260939260E+03 0.  0.
         24    2    3    3    0    0  0.29902143818E+02  0.17434629391E+02 -0.99665339673E+02  0.13228800219E+03  0.79804956510E+02 0.  0.
         -6    2    1    2    0  502  0.38206870545E+02  0.12553959153E+02  0.59826926793E+01  0.17640269579E+03  0.17165299771E+03 0.  0.
        -24    2    5    5    0    0  0.63438790196E+02  0.12270304478E+02 -0.50456363807E+02  0.11440118511E+03  0.79791892018E+02 0.  0.
          5    1    3    3  501    0 -0.68109014363E+02 -0.29988588544E+02 -0.23303963713E+03  0.24467880119E+03  0.47000000000E+01 0. -1.
        -11    1    4    4    0    0 -0.19239944519E+02 -0.13880013673E+02 -0.51447275106E+02  0.56653793876E+02  0.00000000000E+00 0.  1.
         12    1    4    4    0    0  0.49142088337E+02  0.31314643064E+02 -0.48218064567E+02  0.75634208312E+02  0.00000000000E+00 0. -1.
         -5    1    5    5    0  502 -0.25231919651E+02  0.28365467556E+00  0.56439056486E+02  0.62001510678E+02  0.47000000000E+01 0.  1.
         13    1    6    6    0    0  0.50181097727E+02  0.24663602785E+02  0.49163726057E+01  0.56130264484E+02  0.00000000000E+00 0. -1.
        -14    1    6    6    0    0  0.13257692469E+02 -0.12393298307E+02 -0.55372736413E+02  0.58270920624E+02  0.00000000000E+00 0.  1.
</event>
<event>
12    1  0.8562501E-002  0.2009635E+03  0.7818608E-02  0.1149079E+00
         21   -1    0    0  501  502  0.00000000000E+00  0.00000000000E+00  0.80326791284E+03  0.80326791284E+03  0.00000000000E+00 0.  1.
         21   -1    0    0  502  503 -0.00000000000E+00 -0.00000000000E+00 -0.21740799934E+03  0.21740799934E+03  0.00000000000E+00 0.  1.
         -6    2    1    2    0  503 -0.27914362282E+02 -0.98633499737E+02 -0.15464221187E+03  0.25357549597E+03  0.17285409909E+03 0.  0.
        -24    2    3    3    0    0  0.11478640804E+01 -0.11619776499E+03 -0.16584285946E+03  0.21751081905E+03  0.79396877703E+02 0.  0.
          6    2    1    2  501    0  0.27914362282E+02  0.98633499737E+02  0.74050212537E+03  0.76710041620E+03  0.17202288211E+03 0.  0.
         24    2    5    5    0    0  0.40692383601E+00  0.99273048301E+00  0.49029313918E+03  0.49706892589E+03  0.81786329286E+02 0.  0.
          5    1    5    5  501    0  0.27507438446E+02  0.97640769254E+02  0.25020898619E+03  0.27003149031E+03  0.47000000000E+01 0. -1.
        -11    1    6    6    0    0 -0.33693884983E+02  0.10842366111E+02  0.36886526069E+03  0.37055959754E+03  0.00000000000E+00 0.  1.
         12    1    6    6    0    0  0.34100808819E+02 -0.98496356279E+01  0.12142787849E+03  0.12650932835E+03  0.00000000000E+00 0. -1.
         -5    1    3    3    0  503 -0.29062226363E+02  0.17564265256E+02  0.11200647589E+02  0.36064676923E+02  0.47000000000E+01 0.  1.
         11    1    4    4    0    0 -0.23838215055E+02 -0.25199135124E+02 -0.11387388849E+02  0.36509307482E+02  0.00000000000E+00 0. -1.
        -12    1    4    4    0    0  0.24986079135E+02 -0.90998629870E+02 -0.15445547061E+03  0.18100151157E+03  0.00000000000E+00 0.  1.
</event>
<event>
12    1  0.8562501E-002  0.2065884E+03  0.7818608E-02  0.1144553E+00
         21   -1    0    0  501  502  0.00000000000E+00  0.00000000000E+00  0.13444045655E+03  0.13444045655E+03  0.00000000000E+00 0. -1.
         21   -1    0    0  502  503 -0.00000000000E+00 -0.00000000000E+00 -0.35691871934E+03  0.35691871934E+03  0.00000000000E+00 0. -1.
         -6    2    1    2    0  503  0.49232419521E+02 -0.10310380007E+03 -0.19521336209E+03  0.28423057404E+03  0.17211780198E+03 0.  0.
        -24    2    3    3    0    0  0.55064286522E+01 -0.10141429161E+02 -0.23462868001E+02  0.84044942932E+02  0.79874131706E+02 0.  0.
          6    2    1    2  501    0 -0.49232419521E+02  0.10310380007E+03 -0.27264900705E+02  0.20712860186E+03  0.17060087390E+03 0.  0.
         24    2    5    5    0    0  0.17587892475E+02  0.58602153050E+02 -0.64270153384E+02  0.11860273327E+03  0.78691863746E+02 0.  0.
          5    1    5    5  501    0 -0.66820311995E+02  0.44501647018E+02  0.37005252679E+02  0.88525868583E+02  0.47000000000E+01 0. -1.
        -13    1    6    6    0    0 -0.13066132893E+02  0.31895865251E+02 -0.69533296788E+02  0.77607663353E+02  0.00000000000E+00 0.  1.
         14    1    6    6    0    0  0.30654025368E+02  0.26706287799E+02  0.52631434034E+01  0.40995069920E+02  0.00000000000E+00 0. -1.
         -5    1    3    3    0  503  0.43725990869E+02 -0.92962370907E+02 -0.17175049409E+03  0.20018563111E+03  0.47000000000E+01 0.  1.
         13    1    4    4    0    0  0.36031429165E+02  0.11594428922E+02 -0.26868129582E+02  0.46417572717E+02  0.00000000000E+00 0. -1.
        -14    1    4    4    0    0 -0.30525000512E+02 -0.21735858083E+02  0.34052615812E+01  0.37627370216E+02  0.00000000000E+00 0.  1.
</event>
<event>
12    1  0.8562501E-002  0.1934691E+03  0.7818608E-02  0.1155774E+00
         21   -1    0    0  501  502  0.00000000000E+00  0.00000000000E+00  0.18044862458E+03  0.18044862458E+03  0.00000000000E+00 0.  1.
         21   -1    0    0  502  503 -0.00000000000E+00 -0.00000000000E+00 -0.28204659909E+03  0.28204659909E+03  0.00000000000E+00 0. -1.
         -6    2    1    2    0  503 -0.13911448578E+02  0.82085142144E+02 -0.17111264655E+03  0.25691656594E+03  0.17261252876E+03 0.  0.
        -24    2    3    3    0    0  0.52930154079E+02  0.15035814090E+02 -0.97044925965E+02  0.13661889568E+03  0.78862716697E+02 0.  0.
          6    2    1    2  501    0  0.13911448578E+02 -0.82085142144E+02  0.69514672048E+02  0.20557865773E+03  0.17463904466E+03 0.  0.
         24    2    5    5    0    0 -0.23817269245E+02  0.15641088621E+02  0.49335872860E+02  0.98793142490E+02  0.80710288592E+02 0.  0.
          5    1    5    5  501    0  0.37728717823E+02 -0.97726230765E+02  0.20178799188E+02  0.10678551524E+03  0.47000000000E+01 0. -1.
        -11    1    6    6    0    0 -0.29176807528E+02  0.16475828433E+02 -0.13206514919E+02  0.36015983346E+02  0.00000000000E+00 0.  1.
         12    1    6    6    0    0  0.53595382825E+01 -0.83473981163E+00  0.62542387779E+02  0.62777159145E+02  0.00000000000E+00 0. -1.
         -5    1    3    3    0  503 -0.66841602657E+02  0.67049328054E+02 -0.74067720587E+02  0.12029767026E+03  0.47000000000E+01 0.  1.
         11    1    4    4    0    0  0.26798757823E+01 -0.25193159163E+01 -0.80917215494E+02  0.81000768207E+02  0.00000000000E+00 0. -1.
        -12    1    4    4    0    0  0.50250278297E+02  0.17555130006E+02 -0.16127710471E+02  0.55618127472E+02  0.00000000000E+00 0.  1.
</event>
<event>
12    1  0.8562501E-002  0.3263636E+03  0.7818608E-02  0.1073176E+00
         21   -1    0    0  503  502  0.00000000000E+00  0.00000000000E+00  0.57065923779E+03  0.57065923779E+03  0.00000000000E+00 0. -1.
         21   -1    0    0  501  503 -0.00000000000E+00 -0.00000000000E+00 -0.24792846515E+03  0.24792846515E+03  0.00000000000E+00 0.  1.
          6    2    1    2  501    0 -0.78136522368E+02  0.26170215360E+03 -0.44911940756E+02  0.32943932570E+03  0.17866128167E+03 0.  0.
         24    2    3    3    0    0 -0.90846689601E+02  0.98048960090E+02 -0.54092112585E+02  0.16496962742E+03  0.80139264664E+02 0.  0.
         -6    2    1    2    0  502  0.78136522368E+02 -0.26170215360E+03  0.36764271339E+03  0.48914837725E+03  0.17178951343E+03 0.  0.
        -24    2    5    5    0    0 -0.23229271185E+02 -0.15066634723E+03  0.21197497301E+03  0.27268011215E+03  0.78620017497E+02 0.  0.
          5    1    3    3  501    0  0.12710167233E+02  0.16365319351E+03  0.91801718291E+01  0.16446969828E+03  0.47000000000E+01 0. -1.
        -13    1    4    4    0    0 -0.40485765224E+02  0.13844485544E+02 -0.51317524894E+02  0.66815083080E+02  0.00000000000E+00 0.  1.
         14    1    4    4    0    0 -0.50360924377E+02  0.84204474546E+02 -0.27745876915E+01  0.98154544339E+02  0.00000000000E+00 0. -1.
         -5    1    5    5    0  502  0.10136579355E+03 -0.11103580637E+03  0.15566774038E+03  0.21646826509E+03  0.47000000000E+01 0.  1.
         13    1    6    6    0    0 -0.32815820931E+02 -0.15568888566E+03  0.20608296124E+03  0.26035762738E+03  0.00000000000E+00 0. -1.
        -14    1    6    6    0    0  0.95865497454E+01  0.50225384258E+01  0.58920117735E+01  0.12322484774E+02  0.00000000000E+00 0.  1.
</event>
<event>
12    1  0.8562501E-002  0.2130022E+03  0.7818608E-02  0.1139307E+00
         21   -1    0    0  503  502  0.00000000000E+00  0.00000000000E+00  0.82320790022E+03  0.82320790022E+03  0.00000000000E+00 0. -1.
         21   -1    0    0  501  503 -0.00000000000E+00 -0.00000000000E+00 -0.62267114012E+02  0.62267114012E+02  0.00000000000E+00 0. -1.
          6    2    1    2  501    0  0.52740660802E+01 -0.12534006554E+03  0.22866984852E+03  0.31216682229E+03  0.17152340223E+03 0.  0.
         24    2    3    3    0    0  0.63124340006E+02 -0.64928288926E+02  0.17268620885E+03  0.21140723288E+03  0.81683085041E+02 0.  0.
         -6    2    1    2    0  502 -0.52740660802E+01  0.12534006554E+03  0.53227093769E+03  0.57330819195E+03  0.17213943198E+03 0.  0.
        -24    2    5    5    0    0 -0.64042399623E+02  0.75192848724E+02  0.40194595858E+03  0.42173263138E+03  0.80885507368E+02 0.  0.
          5    1    3    3  501    0 -0.57850273926E+02 -0.60411776615E+02  0.55983639668E+02  0.10075958941E+03  0.47000000000E+01 0. -1.
        -11    1    4    4    0    0  0.20021605869E+02 -0.64718345758E+01  0.11962140650E+03  0.12145793609E+03  0.00000000000E+00 0.  1.
         12    1    4    4    0    0  0.43102734138E+02 -0.58456454350E+02  0.53064802349E+02  0.89949296794E+02  0.00000000000E+00 0. -1.
         -5    1    5    5    0  502  0.58768333542E+02  0.50147216817E+02  0.13032497911E+03  0.15157556057E+03  0.47000000000E+01 0.  1.
         13    1    6    6    0    0 -0.45056931634E+02  0.91794607653E+02  0.31298937597E+03  0.32926999036E+03  0.00000000000E+00 0. -1.
        -14    1    6    6    0    0 -0.18985467989E+02 -0.16601758929E+02  0.88956582611E+02  0.92462641019E+02  0.00000000000E+00 0.  1.
</event>
<event>
12    1  0.8562501E-002  0.1855619E+03  0.7818608E-02  0.1163191E+00
         21   -1    0    0  503  502  0.00000000000E+00  0.00000000000E+00  0.50779229154E+03  0.50779229154E+03  0.00000000000E+00 0.  1.
         21   -1    0    0  501  503 -0.00000000000E+00 -0.00000000000E+00 -0.17637688464E+03  0.17637688464E+03  0.00000000000E+00 0.  1.
          6    2    1    2  501    0  0.17205731528E+02  0.59400071614E+02 -0.10443315004E+03  0.21046338488E+03  0.17194228056E+03 0.  0.
         24    2    3    3    0    0 -0.18749849277E+02  0.51487347363E+02 -0.13257763973E+03  0.16388423400E+03  0.79238297638E+02 0.  0.
         -6    2    1    2    0  502 -0.17205731528E+02 -0.59400071614E+02  0.43584855694E+03  0.47370579130E+03  0.17495372651E+03 0.  0.
        -24    2    5    5    0    0 -0.69554582272E+02 -0.64404625292E+02  0.36901238038E+03  0.38853177984E+03  0.76164370896E+02 0.  0.
          5    1    3    3  501    0  0.35955580805E+02  0.79127242501E+01  0.28144489694E+02  0.46579150875E+02  0.47000000000E+01 0. -1.
        -13    1    4    4    0    0  0.31257483792E+02  0.17168871269E+02 -0.50943997864E+02  0.62185941756E+02  0.00000000000E+00 0.  1.
         14    1    4    4    0    0 -0.50007333069E+02  0.34318476094E+02 -0.81633641866E+02  0.10169829225E+03  0.00000000000E+00 0. -1.
         -5    1    5    5    0  502  0.52348850744E+02  0.50045536783E+01  0.66836176557E+02  0.85174011462E+02  0.47000000000E+01 0.  1.
         11    1    6    6    0    0 -0.68911961953E+02 -0.24344523056E+02  0.16264702639E+03  0.17831312206E+03  0.00000000000E+00 0. -1.
        -12    1    6    6    0    0 -0.64262031951E+00 -0.40060102236E+02  0.20636535399E+03  0.21021865778E+03  0.00000000000E+00 0.  1.
</event>
<event>
12    1  0.8562501E-002  0.1870087E+03  0.7818608E-02  0.1163278E+00
         21   -1    0    0  503  502  0.00000000000E+00  0.00000000000E+00  0.71918456790E+02  0.71918456790E+02  0.00000000000E+00 0. -1.
         21   -1    0    0  501  503 -0.00000000000E+00 -0.00000000000E+00 -0.14434652931E+04  0.14434652931E+04  0.00000000000E+00 0. -1.
          6    2    1    2  501    0  0.48224451132E+02  0.68261206414E+01 -0.13153410370E+04  0.13285685108E+04  0.18055484065E+03 0.  0.
         24    2    3    3    0    0  0.81642520352E+02  0.90685900667E+01 -0.51996342759E+03  0.53247214247E+03  0.80105405644E+02 0.  0.
         -6    2    1    2    0  502 -0.48224451132E+02 -0.68261206414E+01 -0.56205799278E+02  0.18681523913E+03  0.17137283357E+03 0.  0.
        -24    2    5    5    0    0 -0.55562197150E+02  0.50883898922E+02 -0.89591289146E+01  0.11172444918E+03  0.82010716565E+02 0.  0.
          5    1    3    3  501    0 -0.33418069220E+02 -0.22424694253E+01 -0.79537760946E+03  0.79609636831E+03  0.47000000000E+01 0. -1.
        -13    1    4    4    0    0  0.25343602205E+02 -0.95338857634E+01 -0.36822743159E+02  0.45706756221E+02  0.00000000000E+00 0.  1.
         14    1    4    4    0    0  0.56298918146E+02  0.18602475830E+02 -0.48314068443E+03  0.48676538625E+03  0.00000000000E+00 0. -1.
         -5    1    5    5    0  502  0.73377460178E+01 -0.57710019563E+02 -0.47246670363E+02  0.75090789948E+02  0.47000000000E+01 0.  1.
         11    1    6    6    0    0 -0.52345970666E+02  0.45779917869E+02  0.27491792111E+02  0.74777671524E+02  0.00000000000E+00 0. -1.
        -12    1    6    6    0    0 -0.32162264837E+01  0.51039810523E+01 -0.36450921026E+02  0.36946777654E+02  0.00000000000E+00 0.  1.
</event>
<event>
12    1  0.8562501E-002  0.2042204E+03  0.7818608E-02  0.1146337E+00
         21   -1    0    0  503  502  0.00000000000E+00  0.00000000000E+00  0.28703881452E+03  0.28703881452E+03  0.00000000000E+00 0.  1.
         21   -1    0    0  501  503 -0.00000000000E+00 -0.00000000000E+00 -0.24767294695E+03  0.24767294695E+03  0.00000000000E+00 0. -1.
          6    2    1    2  501    0 -0.20072167920E+02  0.10953507006E+03 -0.15251285858E+03  0.25488458008E+03  0.17118748095E+03 0.  0.
         24    2    3    3    0    0  0.42258772853E+02  0.97797018410E+02 -0.67166317894E+02  0.14844656976E+03  0.78581226266E+02 0.  0.
         -6    2    1    2    0  502  0.20072167920E+02 -0.10953507006E+03  0.19187872615E+03  0.27982718139E+03  0.17054319803E+03 0.  0.
        -24    2    5    5    0    0  0.73880290950E+02 -0.55202452037E+02  0.14690156047E+03  0.19098809698E+03  0.79942333074E+02 0.  0.
          5    1    3    3  501    0 -0.62330940773E+02  0.11738051652E+02 -0.85346540687E+02  0.10643801032E+03  0.47000000000E+01 0. -1.
        -11    1    4    4    0    0 -0.20098902864E+02  0.35339014185E+02 -0.37575652525E+02  0.55360107321E+02  0.00000000000E+00 0.  1.
         12    1    4    4    0    0  0.62357675717E+02  0.62458004225E+02 -0.29590665370E+02  0.93086462440E+02  0.00000000000E+00 0. -1.
         -5    1    5    5    0  502 -0.53808123030E+02 -0.54332618025E+02  0.44977165682E+02  0.88839084407E+02  0.47000000000E+01 0.  1.
         11    1    6    6    0    0  0.14591973389E+02  0.72945309813E+01 -0.43865225817E+01  0.16893118421E+02  0.00000000000E+00 0. -1.
        -12    1    6    6    0    0  0.59288317561E+02 -0.62496983018E+02  0.15128808305E+03  0.17409497856E+03  0.00000000000E+00 0.  1.
</event>
<event>
12    1  0.8562501E-002  0.1770656E+03  0.7818608E-02  0.1170802E+00
         21   -1    0    0  501  502  0.00000000000E+00  0.00000000000E+00  0.15563450444E+02  0.15563450444E+02  0.00000000000E+00 0.  1.
         21   -1    0    0  502  503 -0.00000000000E+00 -0.00000000000E+00 -0.20200047097E+04  0.20200047097E+04  0.00000000000E+00 0.  1.
         -6    2    1    2    0  503 -0.20011378813E+02  0.34730859332E+02 -0.10772526985E+04  0.10916238446E+04  0.17193764508E+03 0.  0.
        -24    2    3    3    0    0 -0.45892268760E+02 -0.31114674116E+02 -0.44478358214E+03  0.45519260095E+03  0.79332501176E+02 0.  0.
          6    2    1    2  501    0  0.20011378813E+02 -0.34730859332E+02 -0.92718856084E+03  0.94394431563E+03  0.17246899949E+03 0.  0.
         24    2    5    5    0    0 -0.51472238426E+02  0.37174798031E+01 -0.47740285047E+03  0.48686942289E+03  0.80406108771E+02 0.  0.
          5    1    5    5  501    0  0.71483617240E+02 -0.38448339135E+02 -0.44978571037E+03  0.45707489274E+03  0.47000000000E+01 0. -1.
        -13    1    6    6    0    0 -0.55318832073E+02  0.83211180430E+01 -0.16158359069E+03  0.17099318983E+03  0.00000000000E+00 0.  1.
         14    1    6    6    0    0  0.38465936469E+01 -0.46036382398E+01 -0.31581925978E+03  0.31587623307E+03  0.00000000000E+00 0. -1.
         -5    1    3    3    0  503  0.25880889947E+02  0.65845533448E+02 -0.63246911632E+03  0.63643124360E+03  0.47000000000E+01 0.  1.
         11    1    4    4    0    0 -0.48038066317E+02  0.10193963647E+02 -0.15841438958E+03  0.16585141403E+03  0.00000000000E+00 0. -1.
        -12    1    4    4    0    0  0.21457975567E+01 -0.41308637763E+02 -0.28636919256E+03  0.28934118692E+03  0.00000000000E+00 0.  1.
</event>
<event>
12    1  0.8562501E-002  0.2087418E+03  0.7818608E-02  0.1142717E+00
         21   -1    0    0  503  502  0.00000000000E+00  0.00000000000E+00  0.15160795683E+03  0.15160795683E+03  0.00000000000E+00 0.  1.
         21   -1    0    0  501  503 -0.00000000000E+00 -0.00000000000E+00 -0.28877844866E+03  0.28877844866E+03  0.00000000000E+00 0.  1.
          6    2    1    2  501    0  0.89336015297E+01  0.11736256519E+03 -0.88581157345E+02  0.22606406857E+03  0.17147758079E+03 0.  0.
         24    2    3    3    0    0 -0.47651447046E+02  0.25805758929E+02 -0.61578739323E+02  0.11499770519E+03  0.80597353938E+02 0.  0.
         -6    2    1    2    0  502 -0.89336015297E+01 -0.11736256519E+03 -0.48589334487E+02  0.21432233692E+03  0.17239303853E+03 0.  0.
        -24    2    5    5    0    0  0.23782968651E+01 -0.13718195555E+03 -0.77505410365E+02  0.17718749178E+03  0.81017117854E+02 0.  0.
          5    1    3    3  501    0  0.56585048575E+02  0.91556806264E+02 -0.27002418022E+02  0.11106636338E+03  0.47000000000E+01 0. -1.
        -13    1    4    4    0    0 -0.17277185967E+02  0.53326201886E+02 -0.33277775328E+02  0.65188920020E+02  0.00000000000E+00 0.  1.
         14    1    4    4    0    0 -0.30374261079E+02 -0.27520442957E+02 -0.28300963995E+02  0.49808785166E+02  0.00000000000E+00 0. -1.
         -5    1    5    5    0  502 -0.11311898395E+02  0.19819390352E+02  0.28916075878E+02  0.37134845138E+02  0.47000000000E+01 0.  1.
         11    1    6    6    0    0  0.36428044802E+02 -0.38205361595E+02 -0.13458248887E+02  0.54477303217E+02  0.00000000000E+00 0. -1.
        -12    1    6    6    0    0 -0.34049747937E+02 -0.98976593950E+02 -0.64047161477E+02  0.12271018857E+03  0.00000000000E+00 0.  1.
</event>
<event>
12    1  0.8562501E-002  0.2545199E+03  0.7818608E-02  0.1110915E+00
         21   -1    0    0  501  502  0.00000000000E+00  0.00000000000E+00  0.11976139336E+04  0.11976139336E+04  0.00000000000E+00 0. -1.
         21   -1    0    0  502  503 -0.00000000000E+00 -0.00000000000E+00 -0.68922060211E+02  0.68922060211E+02  0.00000000000E+00 0. -1.
         -6    2    1    2    0  503 -0.13455420419E+03  0.12482555106E+03  0.26236650983E+03  0.36359634017E+03  0.17227844044E+03 0.  0.
        -24    2    3    3    0    0 -0.53235676662E+02  0.13876467704E+03  0.18136131579E+03  0.24787713859E+03  0.80383307372E+02 0.  0.
          6    2    1    2  501    0  0.13455420419E+03 -0.12482555106E+03  0.86632536359E+03  0.90293965368E+03  0.17633527870E+03 0.  0.
         24    2    5    5    0    0  0.12219113391E+03 -0.47870830615E+02  0.72857396926E+03  0.74459695209E+03  0.79889315605E+02 0.  0.
          5    1    5    5  501    0  0.12363070288E+02 -0.76954720443E+02  0.13775139434E+03  0.15834270159E+03  0.47000000000E+01 0. -1.
        -11    1    6    6    0    0  0.49552453718E+02  0.20732987168E+02  0.25850324626E+03  0.26402505706E+03  0.00000000000E+00 0.  1.
         12    1    6    6    0    0  0.72638680189E+02 -0.68603817784E+02  0.47007072300E+03  0.48057189503E+03  0.00000000000E+00 0. -1.
         -5    1    3    3    0  503 -0.81318527533E+02 -0.13939125984E+02  0.81005194036E+02  0.11571920158E+03  0.47000000000E+01 0.  1.
         13    1    4    4    0    0 -0.68123023091E+02  0.94792989986E+02  0.97803167305E+02  0.15228892527E+03  0.00000000000E+00 0. -1.
        -14    1    4    4    0    0  0.14887346429E+02  0.43971687056E+02  0.83558148486E+02  0.95588213315E+02  0.00000000000E+00 0.  1.
</event>
<event>
12    1  0.8562501E-002  0.2769358E+03  0.7818608E-02  0.1097406E+00
         21   -1    0    0  503  502  0.00000000000E+00  0.00000000000E+00  0.39903002463E+03  0.39903002463E+03  0.00000000000E+00 0. -1.
         21   -1    0    0  501  503 -0.00000000000E+00 -0.00000000000E+00 -0.36425697690E+03  0.36425697690E+03  0.00000000000E+00 0. -1.
          6    2    1    2  501    0 -0.80650339709E+01  0.21597508601E+03 -0.24502718564E+03  0.36977260305E+03  0.17315650064E+03 0.  0.
         24    2    3    3    0    0  0.62113977508E+02  0.10983749259E+03 -0.14309890259E+03  0.20667218222E+03  0.79458630756E+02 0.  0.
         -6    2    1    2    0  502  0.80650339709E+01 -0.21597508601E+03  0.27980023338E+03  0.39351439848E+03  0.17278636713E+03 0.  0.
        -24    2    5    5    0    0  0.26801499414E+01 -0.37599020148E+02  0.71982069479E+02  0.11954816499E+03  0.87689656784E+02 0.  0.
          5    1    3    3  501    0 -0.70179011479E+02  0.10613759342E+03 -0.10192828305E+03  0.16310042083E+03  0.47000000000E+01 0. -1.
        -13    1    4    4    0    0  0.27714866354E+02  0.18626650476E+02 -0.89280217312E+02  0.95320633277E+02  0.00000000000E+00 0.  1.
         14    1    4    4    0    0  0.34399111154E+02  0.91210842115E+02 -0.53818685277E+02  0.11135154894E+03  0.00000000000E+00 0. -1.
         -5    1    5    5    0  502  0.53848840295E+01 -0.17837606586E+03  0.20781816390E+03  0.27396623349E+03  0.47000000000E+01 0.  1.
         11    1    6    6    0    0 -0.40441752558E+02 -0.20171452737E+02  0.18937032045E+02  0.49000347327E+02  0.00000000000E+00 0. -1.
        -12    1    6    6    0    0  0.43121902499E+02 -0.17427567410E+02  0.53045037434E+02  0.70547817666E+02  0.00000000000E+00 0.  1.
</event>
<event>
12    1  0.8562501E-002  0.2068016E+03  0.7818608E-02  0.1144446E+00
         21   -1    0    0  501  502  0.00000000000E+00  0.00000000000E+00  0.14267700893E+04  0.14267700893E+04  0.00000000000E+00 0. -1.
         21   -1    0    0  502  503 -0.00000000000E+00 -0.00000000000E+00 -0.30438027313E+02  0.30438027313E+02  0.00000000000E+00 0. -1.
         -6    2    1    2    0  503 -0.10095755259E+03  0.52795839237E+02  0.59085735545E+03  0.62600265862E+03  0.17258935670E+03 0.  0.
        -24    2    3    3    0    0 -0.12509880029E+03  0.22170193948E+02  0.32841873989E+03  0.36064093017E+03  0.77857462507E+02 0.  0.
          6    2    1    2  501    0  0.10095755259E+03 -0.52795839237E+02  0.80547470652E+03  0.83120545798E+03  0.17068445290E+03 0.  0.
         24    2    5    5    0    0  0.13691363731E+03 -0.26762127963E+02  0.63674162837E+03  0.65666739389E+03  0.79439343712E+02 0.  0.
          5    1    5    5  501    0 -0.35956084725E+02 -0.26033711275E+02  0.16873307815E+03  0.17453806408E+03  0.47000000000E+01 0. -1.
        -13    1    6    6    0    0  0.19242073771E+02 -0.36322282566E+02  0.12944993115E+03  0.13581918233E+03  0.00000000000E+00 0.  1.
         14    1    6    6    0    0  0.11767156354E+03  0.95601546034E+01  0.50729169722E+03  0.52084821156E+03  0.00000000000E+00 0. -1.
         -5    1    3    3    0  503  0.24141247702E+02  0.30625645289E+02  0.26243861556E+03  0.26536172846E+03  0.47000000000E+01 0.  1.
         13    1    4    4    0    0 -0.58324491409E+02 -0.53830623331E+01  0.23698370701E+03  0.24411472927E+03  0.00000000000E+00 0. -1.
        -14    1    4    4    0    0 -0.66774308879E+02  0.27553256281E+02  0.91435032881E+02  0.11652620090E+03  0.00000000000E+00 0.  1.
</event>
<event>
12    1  0.8562501E-002  0.2933314E+03  0.7818608E-02  0.1088650E+00
         21   -1    0    0  503  502  0.00000000000E+00  0.00000000000E+00  0.27276200001E+03  0.27276200001E+03  0.00000000000E+00 0.  1.
         21   -1    0    0  501  503 -0.00000000000E+00 -0.00000000000E+00 -0.51475374584E+03  0.51475374584E+03  0.00000000000E+00 0.  1.
          6    2    1    2  501    0 -0.12784076177E+03 -0.19873274448E+03 -0.36611976283E+03  0.46900185497E+03  0.17343902423E+03 0.  0.
         24    2    3    3    0    0 -0.32298806854E+02 -0.17323461796E+03 -0.26146260705E+03  0.32494065317E+03  0.78551177041E+02 0.  0.
         -6    2    1    2    0  502  0.12784076177E+03  0.19873274448E+03  0.12412801701E+03  0.31851389088E+03  0.17379692165E+03 0.  0.
        -24    2    5    5    0    0  0.16487584587E+02  0.92527391276E+02  0.10766843415E+03  0.16368458168E+03  0.79793433222E+02 0.  0.
          5    1    3    3  501    0 -0.95541954919E+02 -0.25498126525E+02 -0.10465715579E+03  0.14406120180E+03  0.47000000000E+01 0. -1.
        -13    1    4    4    0    0 -0.37554040480E+02 -0.13365299168E+03 -0.14033461538E+03  0.19740119659E+03  0.00000000000E+00 0.  1.
         14    1    4    4    0    0  0.52552336263E+01 -0.39581626284E+02 -0.12112799167E+03  0.12753945658E+03  0.00000000000E+00 0. -1.
         -5    1    5    5    0  502  0.11135317719E+03  0.10620535321E+03  0.16459582857E+02  0.15482930920E+03  0.47000000000E+01 0.  1.
         13    1    6    6    0    0  0.40165206187E+02  0.42168368354E+02  0.86223878124E+02  0.10404793240E+03  0.00000000000E+00 0. -1.
        -14    1    6    6    0    0 -0.23677621600E+02  0.50359022922E+02  0.21444556027E+02  0.59636649281E+02  0.00000000000E+00 0.  1.
</event>
<event>
12    1  0.8562501E-002  0.2306653E+03  0.7818608E-02  0.1126413E+00
         21   -1    0    0  501  502  0.00000000000E+00  0.00000000000E+00  0.17328959498E+03  0.17328959498E+03  0.00000000000E+00 0. -1.
         21   -1    0    0  502  503 -0.00000000000E+00 -0.00000000000E+00 -0.61358411860E+03  0.61358411860E+03  0.00000000000E+00 0.  1.
         -6    2    1    2    0  503  0.14727998923E+03 -0.40538075014E+02 -0.49873517588E+03  0.54892034063E+03  0.17100302320E+03 0.  0.
        -24    2    3    3    0    0  0.13551164579E+03  0.13092637757E+02 -0.26148074538E+03  0.30535001803E+03  0.79571540116E+02 0.  0.
          6    2    1    2  501    0 -0.14727998923E+03  0.40538075014E+02  0.58440652266E+02  0.23795337294E+03  0.17283450785E+03 0.  0.
         24    2    5    5    0    0 -0.25958812945E+02  0.54521622049E+02  0.65370291941E+01  0.10517369268E+03  0.85862131587E+02 0.  0.
          5    1    5    5  501    0 -0.12132117629E+03 -0.13983547035E+02  0.51903623072E+02  0.13277968026E+03  0.47000000000E+01 0. -1.
        -11    1    6    6    0    0  0.27154540820E+02  0.20845399229E+00  0.10473287410E+02  0.29105021721E+02  0.00000000000E+00 0.  1.
         12    1    6    6    0    0 -0.53113353765E+02  0.54313168057E+02 -0.39362582161E+01  0.76068670958E+02  0.00000000000E+00 0. -1.
         -5    1    3    3    0  503  0.11768343438E+02 -0.53630712771E+02 -0.23725443050E+03  0.24357032260E+03  0.47000000000E+01 0.  1.
         13    1    4    4    0    0  0.10802653817E+02 -0.12061640228E+01  0.40850656020E+01  0.11612059339E+02  0.00000000000E+00 0. -1.
        -14    1    4    4    0    0  0.12470899198E+03  0.14298801780E+02 -0.26556581098E+03  0.29373795869E+03  0.00000000000E+00 0.  1.
</event>
<event>
12    1  0.8562501E-002  0.2286792E+03  0.7818608E-02  0.1127982E+00
         21   -1    0    0  501  502  0.00000000000E+00  0.00000000000E+00  0.35474409225E+02  0.35474409225E+02  0.00000000000E+00 0.  1.
         21   -1    0    0  502  503 -0.00000000000E+00 -0.00000000000E+00 -0.14635872069E+04  0.14635872069E+04  0.00000000000E+00 0. -1.
         -6    2    1    2    0  503  0.44103902779E+02 -0.14285012354E+03 -0.75060549114E+03  0.78400196109E+03  0.16999752828E+03 0.  0.
        -24    2    3    3    0    0  0.28241185955E+02 -0.31368671380E+01 -0.26451210935E+03  0.27795820249E+03  0.80540063420E+02 0.  0.
          6    2    1    2  501    0 -0.44103902779E+02  0.14285012354E+03 -0.67750730654E+03  0.71505965505E+03  0.17304001799E+03 0.  0.
         24    2    5    5    0    0 -0.48573507417E+01  0.10054037235E+03 -0.29257735634E+03  0.32579937779E+03  0.10203805561E+03 0.  0.
          5    1    5    5  501    0 -0.39246552037E+02  0.42309751185E+02 -0.38492995020E+03  0.38926027726E+03  0.47000000000E+01 0. -1.
        -11    1    6    6    0    0  0.45620145684E+02  0.24982152137E+02 -0.94338958473E+02  0.10772717718E+03  0.00000000000E+00 0.  1.
         12    1    6    6    0    0 -0.50477496426E+02  0.75558220216E+02 -0.19823839787E+03  0.21807220061E+03  0.00000000000E+00 0. -1.
         -5    1    3    3    0  503  0.15862716824E+02 -0.13971325640E+03 -0.48609338179E+03  0.50604375860E+03  0.47000000000E+01 0.  1.
         13    1    4    4    0    0 -0.98935641970E+01  0.62262681651E+01 -0.21233230368E+03  0.21265384128E+03  0.00000000000E+00 0. -1.
        -14    1    4    4    0    0  0.38134750152E+02 -0.93631353031E+01 -0.52179805678E+02  0.65304361205E+02  0.00000000000E+00 0.  1.
</event>
<event>
12    1  0.8562501E-002  0.1991781E+03  0.7818608E-02  0.1150463E+00
         21   -1    0    0  501  502  0.00000000000E+00  0.00000000000E+00  0.49669656686E+03  0.49669656686E+03  0.00000000000E+00 0.  1.
         21   -1    0    0  502  503 -0.00000000000E+00 -0.00000000000E+00 -0.17549450672E+03  0.17549450672E+03  0.00000000000E+00 0.  1.
         -6    2    1    2    0  503  0.52439670146E+02 -0.85772892556E+02 -0.87585631486E+02  0.21746116687E+03  0.17178826547E+03 0.  0.
        -24    2    3    3    0    0 -0.32383648591E+02 -0.44143818754E+02 -0.14049139348E+02  0.97637626352E+02  0.79613757184E+02 0.  0.
          6    2    1    2  501    0 -0.52439670146E+02  0.85772892556E+02  0.40878769163E+03  0.45472990671E+03  0.17194476766E+03 0.  0.
         24    2    5    5    0    0 -0.95140458830E+02  0.79609222286E+02  0.36737205880E+03  0.39474080080E+03  0.73950896195E+02 0.  0.
          5    1    5    5  501    0  0.42700788683E+02  0.61636702701E+01  0.41415632831E+02  0.59989105913E+02  0.47000000000E+01 0. -1.
        -13    1    6    6    0    0 -0.52208867915E+02  0.31670017633E+02  0.27789841784E+03  0.28452818234E+03  0.00000000000E+00 0.  1.
         14    1    6    6    0    0 -0.42931590914E+02  0.47939204653E+02  0.89473640955E+02  0.11021261846E+03  0.00000000000E+00 0. -1.
         -5    1    3    3    0  503  0.84823318737E+02 -0.41629073802E+02 -0.73536492138E+02  0.11982354052E+03  0.47000000000E+01 0.  1.
         13    1    4    4    0    0  0.18721522856E+02 -0.32516799999E+01  0.16723507553E+02  0.25312932382E+02  0.00000000000E+00 0. -1.
        -14    1    4    4    0    0 -0.51105171447E+02 -0.40892138754E+02 -0.30772646901E+02  0.72324693970E+02  0.00000000000E+00 0.  1.
</event>
<event>
12    1  0.8562501E-002  0.2756973E+03  0.7818608E-02  0.1098256E+00
         21   -1    0    0  501  502  0.00000000000E+00  0.00000000000E+00  0.47000022469E+03  0.47000022469E+03  0.00000000000E+00 0. -1.
         21   -1    0    0  502  503 -0.00000000000E+00 -0.00000000000E+00 -0.16796630902E+03  0.16796630902E+03  0.00000000000E+00 0. -1.
         -6    2    1    2    0  503 -0.59630029837E+02 -0.20541406583E+03  0.85280341660E+02  0.28726567022E+03  0.17175025390E+03 0.  0.
        -24    2    3    3    0    0  0.26543336335E+02 -0.57275677880E+02  0.20980995993E+02  0.10416098193E+03  0.80151456526E+02 0.  0.
          6    2    1    2  501    0  0.59630029837E+02  0.20541406583E+03  0.21675357401E+03  0.35070086349E+03  0.17394914461E+03 0.  0.
         24    2    5    5    0    0  0.30406655838E+02  0.87295431247E+02  0.19174885459E+03  0.22638938608E+03  0.77067982051E+02 0.  0.
          5    1    5    5  501    0  0.29223373999E+02  0.11811863458E+03  0.25004719423E+02  0.12431147741E+03  0.47000000000E+01 0. -1.
        -13    1    6    6    0    0  0.41922018759E+01 -0.11290263253E+01 -0.64544124504E+01  0.77787336432E+01  0.00000000000E+00 0.  1.
         14    1    6    6    0    0  0.26214453962E+02  0.88424457572E+02  0.19820326704E+03  0.21861065244E+03  0.00000000000E+00 0. -1.
         -5    1    3    3    0  503 -0.86173366172E+02 -0.14813838795E+03  0.64299345668E+02  0.18310468829E+03  0.47000000000E+01 0.  1.
         13    1    4    4    0    0  0.15621318256E+02  0.18988329503E+02  0.11879029007E+01  0.24616932276E+02  0.00000000000E+00 0. -1.
        -14    1    4    4    0    0  0.10922018079E+02 -0.76264007384E+02  0.19793093092E+02  0.79544049654E+02  0.00000000000E+00 0.  1.
</event>
<event>
12    1  0.8562501E-002  0.2436864E+03  0.7818608E-02  0.1117415E+00
         21   -1    0    0  501  502  0.00000000000E+00  0.00000000000E+00  0.10927245859E+03  0.10927245859E+03  0.00000000000E+00 0.  1.
         21   -1    0    0  502  503 -0.00000000000E+00 -0.00000000000E+00 -0.93668322587E+03  0.93668322587E+03  0.00000000000E+00 0.  1.
         -6    2    1    2    0  503  0.16574133327E+03  0.46783771187E+02 -0.74370045828E+02  0.25446758758E+03  0.17194167211E+03 0.  0.
        -24    2    3    3    0    0  0.80318474789E+02  0.40617852147E+02 -0.10767923811E+03  0.16245304742E+03  0.81824855592E+02 0.  0.
          6    2    1    2  501    0 -0.16574133327E+03 -0.46783771187E+02 -0.75304072145E+03  0.79148809689E+03  0.17240698521E+03 0.  0.
         24    2    5    5    0    0 -0.55864541798E+02 -0.55674257498E+02 -0.22220889099E+03  0.24931056850E+03  0.80984556277E+02 0.  0.
          5    1    5    5  501    0 -0.10987679147E+03  0.88904863105E+01 -0.53083183046E+03  0.54217752839E+03  0.47000000000E+01 0. -1.
        -11    1    6    6    0    0 -0.50544069936E+01 -0.27243747098E+02 -0.16629210281E+03  0.16858479244E+03  0.00000000000E+00 0.  1.
         12    1    6    6    0    0 -0.50810134805E+02 -0.28430510400E+02 -0.55916788175E+02  0.80725776059E+02  0.00000000000E+00 0. -1.
         -5    1    3    3    0  503  0.85422858484E+02  0.61659190400E+01  0.33309192280E+02  0.92014540152E+02  0.47000000000E+01 0.  1.
         11    1    4    4    0    0  0.16177678117E+02  0.53771267541E+02 -0.50839161280E+02  0.75747520104E+02  0.00000000000E+00 0. -1.
        -12    1    4    4    0    0  0.64140796672E+02 -0.13153415394E+02 -0.56840076828E+02  0.86705527321E+02  0.00000000000E+00 0.  1.
</event>
<event>
12    1  0.8562501E-002  0.1857851E+03  0.7818608E-02  0.1162473E+00
         21   -1    0    0  503  502  0.00000000000E+00  0.00000000000E+00  0.94230794195E+02  0.94230794195E+02  0.00000000000E+00 0.  1.
         21   -1    0    0  501  503 -0.00000000000E+00 -0.00000000000E+00 -0.42695956999E+03  0.42695956999E+03  0.00000000000E+00 0.  1.
          6    2    1    2  501    0 -0.45402260450E+02  0.45059655330E+02 -0.26539440257E+03  0.32357957132E+03  0.17371762222E+03 0.  0.
         24    2    3    3    0    0 -0.17645488767E+02  0.36185458205E+01 -0.26136544279E+03  0.27331898589E+03  0.77890411577E+02 0.  0.
         -6    2    1    2    0  502  0.45402260450E+02 -0.45059655330E+02 -0.67334373220E+02  0.19761079286E+03  0.17442582906E+03 0.  0.
        -24    2    5    5    0    0 -0.20011332681E+02 -0.73326997742E+02 -0.19764656231E+02  0.11180316623E+03  0.79573892134E+02 0.  0.
          5    1    3    3  501    0 -0.27756771683E+02  0.41441109509E+02 -0.40289597880E+01  0.50260585438E+02  0.47000000000E+01 0. -1.
        -11    1    4    4    0    0 -0.83562810925E+01  0.40696130940E+02 -0.12701008606E+03  0.13363219847E+03  0.00000000000E+00 0.  1.
         12    1    4    4    0    0 -0.92892076744E+01 -0.37077585119E+02 -0.13435535673E+03  0.13968678742E+03  0.00000000000E+00 0. -1.
         -5    1    5    5    0  502  0.65413593131E+02  0.28267342412E+02 -0.47569716989E+02  0.85807626630E+02  0.47000000000E+01 0.  1.
         11    1    6    6    0    0 -0.29448706062E+02 -0.27307732796E+02 -0.43471158768E+02  0.59183445353E+02  0.00000000000E+00 0. -1.
        -12    1    6    6    0    0  0.94373733812E+01 -0.46019264945E+02  0.23706502537E+02  0.52619720875E+02  0.00000000000E+00 0.  1.
</event>
<event>
12    1  0.8562501E-002  0.1792754E+03  0.7818608E-02  0.1168601E+00
         21   -1    0    0  501  502  0.00000000000E+00  0.00000000000E+00  0.25710250232E+03  0.25710250232E+03  0.00000000000E+00 0.  1.
         21   -1    0    0  502  503 -0.00000000000E+00 -0.00000000000E+00 -0.13018531239E+03  0.13018531239E+03  0.00000000000E+00 0.  1.
         -6    2    1    2    0  503  0.31947094929E+02 -0.41744238065E+02  0.23778564192E+02  0.18046119323E+03  0.17099012796E+03 0.  0.
        -24    2    3    3    0    0  0.54833921910E+01 -0.13514372635E+02  0.77755251480E+02  0.11388172466E+03  0.81917410975E+02 0.  0.
          6    2    1    2  501    0 -0.31947094929E+02  0.41744238065E+02  0.10313862573E+03  0.20682662148E+03  0.17139567365E+03 0.  0.
         24    2    5    5    0    0 -0.46427661169E+02 -0.36074427899E+02  0.43190024657E+02  0.10742160982E+03  0.78848791729E+02 0.  0.
          5    1    5    5  501    0  0.14480566240E+02  0.77818665963E+02  0.59948601077E+02  0.99405011654E+02  0.47000000000E+01 0. -1.
        -11    1    6    6    0    0 -0.14597144424E+02  0.24614165483E+02  0.52628990631E+01  0.29096939260E+02  0.00000000000E+00 0.  1.
         12    1    6    6    0    0 -0.31830516745E+02 -0.60688593382E+02  0.37927125594E+02  0.78324670563E+02  0.00000000000E+00 0. -1.
         -5    1    3    3    0  503  0.26463702738E+02 -0.28229865429E+02 -0.53976687288E+02  0.66579468572E+02  0.47000000000E+01 0.  1.
         13    1    4    4    0    0  0.59730136693E+00  0.29705551348E+02  0.59900541951E+02  0.66864426086E+02  0.00000000000E+00 0. -1.
        -14    1    4    4    0    0  0.48860908240E+01 -0.43219923983E+02  0.17854709529E+02  0.47017298572E+02  0.00000000000E+00 0.  1.
</event>
<event>
12    1  0.8562501E-002  0.1754457E+03  0.7818608E-02  0.1172740E+00
         21   -1    0    0  503  502  0.00000000000E+00  0.00000000000E+00  0.50357300650E+03  0.50357300650E+03  0.00000000000E+00 0.  1.
         21   -1    0    0  501  503 -0.00000000000E+00 -0.00000000000E+00 -0.10693756510E+03  0.10693756510E+03  0.00000000000E+00 0.  1.
          6    2    1    2  501    0  0.14609269198E+02  0.14437999013E+02 -0.34257170446E+01  0.17366947992E+03  0.17241654838E+03 0.  0.
         24    2    3    3    0    0 -0.92515558992E+01  0.10296003292E+02 -0.68736515805E+02  0.10385482861E+03  0.76612778636E+02 0.  0.
         -6    2    1    2    0  502 -0.14609269198E+02 -0.14437999013E+02  0.40006115844E+03  0.43684109168E+03  0.17423926746E+03 0.  0.
        -24    2    5    5    0    0 -0.32312717097E+02 -0.48232188937E+02  0.38176645051E+03  0.39427061273E+03  0.79581641032E+02 0.  0.
          5    1    3    3  501    0  0.23860825097E+02  0.41419957219E+01  0.65310798761E+02  0.69814651311E+02  0.47000000000E+01 0. -1.
        -13    1    4    4    0    0 -0.20340776453E+02  0.12120228492E+02  0.89846873765E+01  0.25325318017E+02  0.00000000000E+00 0.  1.
         14    1    4    4    0    0  0.11089220553E+02 -0.18242252010E+01 -0.77721203182E+02  0.78529510594E+02  0.00000000000E+00 0. -1.
         -5    1    5    5    0  502  0.17703447899E+02  0.33794189923E+02  0.18294707929E+02  0.42570478953E+02  0.47000000000E+01 0.  1.
         11    1    6    6    0    0 -0.17799310352E+02 -0.26286929452E+02  0.38074304752E+02  0.49572883629E+02  0.00000000000E+00 0. -1.
        -12    1    6    6    0    0 -0.14513406745E+02 -0.21945259485E+02  0.34369214576E+03  0.34469772910E+03  0.00000000000E+00 0.  1.
</event>
<event>
12    1  0.8562501E-002  0.1840579E+03  0.7818608E-02  0.1165039E+00
         21   -1    0    0  501  502  0.00000000000E+00  0.00000000000E+00  0.82745665273E+03  0.82745665273E+03  0.00000000000E+00 0.  1.
         21   -1    0    0  502  503 -0.00000000000E+00 -0.00000000000E+00 -0.47637387982E+02  0.47637387982E+02  0.00000000000E+00 0.  1.
         -6    2    1    2    0  503 -0.64954421563E+02 -0.44295579974E+01  0.20958374897E+03  0.27588969628E+03  0.16718576140E+03 0.  0.
        -24    2    3    3    0    0 -0.49918166329E+02  0.57232436371E+02  0.97589440429E+02  0.14707546699E+03  0.79624864240E+02 0.  0.
          6    2    1    2  501    0  0.64954421563E+02  0.44295579974E+01  0.57023551577E+03  0.59920434443E+03  0.17215866248E+03 0.  0.
         24    2    5    5    0    0  0.54653527447E+02 -0.46389146045E+02  0.21812159212E+03  0.24326199751E+03  0.80376672924E+02 0.  0.
          5    1    5    5  501    0  0.10300894116E+02  0.50818704042E+02  0.35211392365E+03  0.35594234691E+03  0.47000000000E+01 0. -1.
        -11    1    6    6    0    0  0.22656542834E+02 -0.43921157617E+02  0.20080299274E+03  0.20679513755E+03  0.00000000000E+00 0.  1.
         12    1    6    6    0    0  0.31996984613E+02 -0.24679884275E+01  0.17318599384E+02  0.36466859966E+02  0.00000000000E+00 0. -1.
         -5    1    3    3    0  503 -0.15036255234E+02 -0.61661994368E+02  0.11199430854E+03  0.12881422929E+03  0.47000000000E+01 0.  1.
         13    1    4    4    0    0  0.21708577015E+02  0.16800768409E+02  0.29526951721E+02  0.40315865526E+02  0.00000000000E+00 0. -1.
        -14    1    4    4    0    0 -0.71626743344E+02  0.40431667962E+02  0.68062488708E+02  0.10675960147E+03  0.00000000000E+00 0.  1.
</event>
<event>
12    1  0.8562501E-002  0.2492807E+03  0.7818608E-02  0.1113834E+00
         21   -1    0    0  503  502  0.00000000000E+00  0.00000000000E+00  0.22603752903E+03  0.22603752903E+03  0.00000000000E+00 0. -1.
         21   -1    0    0  501  503 -0.00000000000E+00 -0.00000000000E+00 -0.27441010122E+03  0.27441010122E+03  0.00000000000E+00 0. -1.
          6    2    1    2  501    0 -0.35238790441E+02  0.17709809629E+03 -0.22868375366E+02  0.24986569308E+03  0.17118526200E+03 0.  0.
         24    2    3    3    0    0  0.27793064320E+02  0.29589002756E+02 -0.78384877656E+01  0.88682769321E+02  0.78455262256E+02 0.  0.
         -6    2    1    2    0  502  0.35238790441E+02 -0.17709809629E+03 -0.25504196823E+02  0.25058193717E+03  0.17185847410E+03 0.  0.
        -24    2    5    5    0    0 -0.20299492539E+02 -0.28515018941E+02 -0.30013235892E+02  0.91824722583E+02  0.79409128229E+02 0.  0.
          5    1    3    3  501    0 -0.63031854761E+02  0.14750909353E+03 -0.15029887601E+02  0.16118292375E+03  0.47000000000E+01 0. -1.
        -13    1    4    4    0    0  0.21950186882E+01 -0.17666920391E+02 -0.26384679851E+02  0.31829067124E+02  0.00000000000E+00 0.  1.
         14    1    4    4    0    0  0.25598045632E+02  0.47255923147E+02  0.18546192086E+02  0.56853702197E+02  0.00000000000E+00 0. -1.
         -5    1    5    5    0  502  0.55538282980E+02 -0.14858307735E+03  0.45090390684E+01  0.15875721459E+03  0.47000000000E+01 0.  1.
         11    1    6    6    0    0 -0.24202518837E+02 -0.13233766332E+02 -0.55428771362E+02  0.61913190712E+02  0.00000000000E+00 0. -1.
        -12    1    6    6    0    0  0.39030262973E+01 -0.15281252609E+02  0.25415535471E+02  0.29911531871E+02  0.00000000000E+00 0.  1.
</event>
<event>
12    1  0.8562501E-002  0.1858112E+03  0.7818608E-02  0.1162845E+00
         21   -1    0    0  503  502  0.00000000000E+00  0.00000000000E+00  0.24249469344E+04  0.24249469344E+04  0.00000000000E+00 0. -1.
         21   -1    0    0  501  503 -0.00000000000E+00 -0.00000000000E+00 -0.14565372104E+02  0.14565372104E+02  0.00000000000E+00 0. -1.
          6    2    1    2  501    0 -0.11355111610E+02 -0.64337804076E+02  0.14403181751E+04  0.14522541928E+04  0.17394684036E+03 0.  0.
         24    2    3    3    0    0 -0.76637169549E+01  0.32099957311E+02  0.50944478619E+03  0.51637961548E+03  0.77619438872E+02 0.  0.
         -6    2    1    2    0  502  0.11355111610E+02  0.64337804076E+02  0.97006338712E+03  0.98725811366E+03  0.17142729182E+03 0.  0.
        -24    2    5    5    0    0  0.95996778299E+01 -0.26711488442E+01  0.22695201553E+03  0.24111477496E+03  0.80807354234E+02 0.  0.
          5    1    3    3  501    0 -0.36913946547E+01 -0.96437761388E+02  0.93087338894E+03  0.93587457731E+03  0.47000000000E+01 0. -1.
        -11    1    4    4    0    0  0.19028391313E+02  0.16552886688E+02  0.50999856443E+02  0.56895193917E+02  0.00000000000E+00 0.  1.
         12    1    4    4    0    0 -0.26692108268E+02  0.15547070623E+02  0.45844492975E+03  0.45948442156E+03  0.00000000000E+00 0. -1.
         -5    1    5    5    0  502  0.17554337797E+01  0.67008952921E+02  0.74311137158E+03  0.74614333871E+03  0.47000000000E+01 0.  1.
         13    1    6    6    0    0  0.31040841271E+02 -0.17753247159E+02  0.20125113601E+03  0.20440335456E+03  0.00000000000E+00 0. -1.
        -14    1    6    6    0    0 -0.21441163441E+02  0.15082098315E+02  0.25700879527E+02  0.36711420400E+02  0.00000000000E+00 0.  1.
</event>
<event>
12    1  0.8562501E-002  0.1770519E+03  0.7818608E-02  0.1170725E+00
         21   -1    0    0  501  502  0.00000000000E+00  0.00000000000E+00  0.29043205016E+03  0.29043205016E+03  0.00000000000E+00 0.  1.
         21   -1    0    0  502  503 -0.00000000000E+00 -0.00000000000E+00 -0.11992408530E+03  0.11992408530E+03  0.00000000000E+00 0.  1.
         -6    2    1    2    0  503 -0.42141600878E+02  0.35103373579E+01  0.20155385703E+02  0.17819544090E+03  0.17192771328E+03 0.  0.
        -24    2    3    3    0    0  0.27802209833E+01 -0.49932461386E+02  0.44713058682E+02  0.10403836357E+03  0.79521966450E+02 0.  0.
          6    2    1    2  501    0  0.42141600878E+02 -0.35103373579E+01  0.15035257916E+03  0.23216069456E+03  0.17176860320E+03 0.  0.
         24    2    5    5    0    0 -0.15023452634E+02 -0.47641778008E+02  0.40814635811E+02  0.10087444840E+03  0.77552412617E+02 0.  0.
          5    1    5    5  501    0  0.57165053512E+02  0.44131440650E+02  0.10953794335E+03  0.13128624616E+03  0.47000000000E+01 0. -1.
        -11    1    6    6    0    0  0.27264036913E+02 -0.39389131001E+02  0.29752148979E+02  0.56391681290E+02  0.00000000000E+00 0.  1.
         12    1    6    6    0    0 -0.42287489547E+02 -0.82526470075E+01  0.11062486832E+02  0.44482767110E+02  0.00000000000E+00 0. -1.
         -5    1    3    3    0  503 -0.44921821861E+02  0.53442798744E+02 -0.24557672979E+02  0.74157077336E+02  0.47000000000E+01 0.  1.
         13    1    4    4    0    0  0.70451085394E+01 -0.27460517062E+02 -0.20464124318E+02  0.34964180753E+02  0.00000000000E+00 0. -1.
        -14    1    4    4    0    0 -0.42648875560E+01 -0.22471944324E+02  0.65177183000E+02  0.69074182814E+02  0.00000000000E+00 0.  1.
</event>
<event>
12    1  0.8562501E-002  0.3178465E+03  0.7818608E-02  0.1076666E+00
         21   -1    0    0  501  502  0.00000000000E+00  0.00000000000E+00  0.12926062152E+04  0.12926062152E+04  0.00000000000E+00 0. -1.
         21   -1    0    0  502  503 -0.00000000000E+00 -0.00000000000E+00 -0.99684560830E+02  0.99684560830E+02  0.00000000000E+00 0.  1.
         -6    2    1    2    0  503  0.50338037982E+02 -0.26196593507E+03  0.27275029135E+03  0.41883067732E+03  0.17281882312E+03 0.  0.
        -24    2    3    3    0    0  0.97939357534E+02 -0.20140609214E+03  0.18301908523E+03  0.30047883090E+03  0.81455574109E+02 0.  0.
          6    2    1    2  501    0 -0.50338037982E+02  0.26196593507E+03  0.92017136300E+03  0.97346009870E+03  0.17247944011E+03 0.  0.
         24    2    5    5    0    0 -0.73617075073E+01  0.67633083839E+02  0.20353835531E+03  0.22968783532E+03  0.81854815656E+02 0.  0.
          5    1    5    5  501    0 -0.42976330474E+02  0.19433285123E+03  0.71663300769E+03  0.74377226338E+03  0.47000000000E+01 0. -1.
        -11    1    6    6    0    0 -0.15111173323E+01 -0.19091061425E+02  0.29873919224E+02  0.35485252595E+02  0.00000000000E+00 0.  1.
         12    1    6    6    0    0 -0.58505901751E+01  0.86724145264E+02  0.17366443608E+03  0.19420258273E+03  0.00000000000E+00 0. -1.
         -5    1    3    3    0  503 -0.47601319553E+02 -0.60559842933E+02  0.89731206116E+02  0.11835184642E+03  0.47000000000E+01 0.  1.
         13    1    4    4    0    0  0.93067738251E+02 -0.10056305736E+03  0.11313723166E+03  0.17769233409E+03  0.00000000000E+00 0. -1.
        -14    1    4    4    0    0  0.48716192829E+01 -0.10084303478E+03  0.69881853579E+02  0.12278649681E+03  0.00000000000E+00 0.  1.
</event>
<event>
12    1  0.8562501E-002  0.1797356E+03  0.7818608E-02  0.1169553E+00
         21   -1    0    0  503  502  0.00000000000E+00  0.00000000000E+00  0.14007324086E+03  0.14007324086E+03  0.00000000000E+00 0. -1.
         21   -1    0    0  501  503 -0.00000000000E+00 -0.00000000000E+00 -0.23951219122E+03  0.23951219122E+03  0.00000000000E+00 0. -1.
          6    2    1    2  501    0  0.10647023743E+02 -0.22031142020E+02 -0.10043975848E+03  0.20589567080E+03  0.17806221339E+03 0.  0.
         24    2    3    3    0    0 -0.60342831441E+02 -0.37974929724E+02 -0.60117205431E+02  0.12257843255E+03  0.79548985809E+02 0.  0.
         -6    2    1    2    0  502 -0.10647023743E+02  0.22031142020E+02  0.10008081266E+01  0.17368976128E+03  0.17195464874E+03 0.  0.
        -24    2    5    5    0    0 -0.30974543725E+02 -0.41427479792E+02  0.31334011183E+02  0.10032493348E+03  0.80047570733E+02 0.  0.
          5    1    3    3  501    0  0.70989855184E+02  0.15943787704E+02 -0.40322553050E+02  0.83317238251E+02  0.47000000000E+01 0. -1.
        -13    1    4    4    0    0 -0.50753071435E+02 -0.47436247641E+02 -0.75185208720E+02  0.10236643718E+03  0.00000000000E+00 0.  1.
         14    1    4    4    0    0 -0.95897600061E+01  0.94613179171E+01  0.15068003289E+02  0.20211995370E+02  0.00000000000E+00 0. -1.
         -5    1    5    5    0  502  0.20327519982E+02  0.63458621812E+02 -0.30333203056E+02  0.73364827803E+02  0.47000000000E+01 0.  1.
         13    1    6    6    0    0  0.18497898078E+01 -0.42995869445E+02 -0.13167618531E+02  0.45005029602E+02  0.00000000000E+00 0. -1.
        -14    1    6    6    0    0 -0.32824333533E+02  0.15683896532E+01  0.44501629714E+02  0.55319903879E+02  0.00000000000E+00 0.  1.
</event>
<event>
12    1  0.8562501E-002  0.1796649E+03  0.7818608E-02  0.1168736E+00
         21   -1    0    0  501  502  0.00000000000E+00  0.00000000000E+00  0.31624652901E+03  0.31624652901E+03  0.00000000000E+00 0.  1.
         21   -1    0    0  502  503 -0.00000000000E+00 -0.00000000000E+00 -0.10905721889E+03  0.10905721889E+03  0.00000000000E+00 0.  1.
         -6    2    1    2    0  503  0.23293507600E+02 -0.46152121176E+02  0.43923717746E+02  0.18253815836E+03  0.16946468804E+03 0.  0.
        -24    2    3    3    0    0  0.23026344906E+02  0.10315188132E+02 -0.29607117138E+02  0.89707656501E+02  0.80834810470E+02 0.  0.
          6    2    1    2  501    0 -0.23293507600E+02  0.46152121176E+02  0.16326559237E+03  0.24276558954E+03  0.17206647560E+03 0.  0.
         24    2    5    5    0    0  0.52551006746E+01  0.36047413655E+02  0.18526231533E+03  0.20504193688E+03  0.79956477428E+02 0.  0.
          5    1    5    5  501    0 -0.28548608275E+02  0.10104707521E+02 -0.21996722963E+02  0.37723652655E+02  0.47000000000E+01 0. -1.
        -13    1    6    6    0    0 -0.33276945245E+02  0.46010078785E+01  0.10845046319E+03  0.11353425617E+03  0.00000000000E+00 0.  1.
         14    1    6    6    0    0  0.38532045920E+02  0.31446405777E+02  0.76811852146E+02  0.91507680711E+02  0.00000000000E+00 0. -1.
         -5    1    3    3    0  503  0.26716269422E+00 -0.56467309308E+02  0.73530834884E+02  0.92830501857E+02  0.47000000000E+01 0.  1.
         11    1    4    4    0    0 -0.10742556101E+02 -0.27217721546E+02 -0.25910989921E+02  0.39084348228E+02  0.00000000000E+00 0. -1.
        -12    1    4    4    0    0  0.33768901007E+02  0.37532909678E+02 -0.36961272165E+01  0.50623308273E+02  0.00000000000E+00 0.  1.
</event>
<event>
12    1  0.8562501E-002  0.2011263E+03  0.7818608E-02  0.1149755E+00
         21   -1    0    0  501  502  0.00000000000E+00  0.00000000000E+00  0.54609983525E+02  0.54609983525E+02  0.00000000000E+00 0.  1.
         21   -1    0    0  502  503 -0.00000000000E+00 -0.00000000000E+00 -0.79805532747E+03  0.79805532747E+03  0.00000000000E+00 0. -1.
         -6    2    1    2    0  503 -0.53156946876E+02  0.89728414838E+02 -0.49764167557E+03  0.53506299653E+03  0.16663830163E+03 0.  0.
        -24    2    3    3    0    0 -0.67181990423E+01 -0.14194523624E+02 -0.18989415818E+03  0.20690577980E+03  0.80644849210E+02 0.  0.
          6    2    1    2  501    0  0.53156946876E+02 -0.89728414838E+02 -0.24580366838E+03  0.31760231446E+03  0.17197365301E+03 0.  0.
         24    2    5    5    0    0  0.94488783697E+02 -0.96630073745E+02 -0.20658552279E+03  0.26001666890E+03  0.81643055335E+02 0.  0.
          5    1    5    5  501    0 -0.41331836821E+02  0.69016589071E+01 -0.39218145585E+02  0.57585645553E+02  0.47000000000E+01 0. -1.
        -11    1    6    6    0    0  0.10704406117E+02 -0.63836596150E+02 -0.11279588578E+03  0.13004848007E+03  0.00000000000E+00 0.  1.
         12    1    6    6    0    0  0.83784377580E+02 -0.32793477596E+02 -0.93789637008E+02  0.12996818884E+03  0.00000000000E+00 0. -1.
         -5    1    3    3    0  503 -0.46438747833E+02  0.10392293846E+03 -0.30774751738E+03  0.32815721674E+03  0.47000000000E+01 0.  1.
         13    1    4    4    0    0 -0.19058400032E+02 -0.42817619282E+02 -0.14393919890E+03  0.15137722455E+03  0.00000000000E+00 0. -1.
        -14    1    4    4    0    0  0.12340200990E+02  0.28623095659E+02 -0.45954959283E+02  0.55528555251E+02  0.00000000000E+00 0.  1.
</event>
<event>
12    1  0.8562501E-002  0.1826023E+03  0.7818608E-02  0.1165843E+00
         21   -1    0    0  501  502  0.00000000000E+00  0.00000000000E+00  0.12480992380E+03  0.12480992380E+03  0.00000000000E+00 0.  1.
         21   -1    0    0  502  503 -0.00000000000E+00 -0.00000000000E+00 -0.29378266080E+03  0.29378266080E+03  0.00000000000E+00 0.  1.
         -6    2    1    2    0  503 -0.32615689723E+02 -0.51633354064E+02 -0.15077976219E+03  0.23508618242E+03  0.16970913356E+03 0.  0.
        -24    2    3    3    0    0 -0.73475325479E+02 -0.31134342071E+02 -0.15198008510E+03  0.18911608234E+03  0.79366086087E+02 0.  0.
          6    2    1    2  501    0  0.32615689723E+02  0.51633354064E+02 -0.18192974811E+02  0.18350640218E+03  0.17208668990E+03 0.  0.
         24    2    5    5    0    0  0.33303341162E+02 -0.24626648205E+02 -0.47594887599E+02  0.10163685176E+03  0.79681817095E+02 0.  0.
          5    1    5    5  501    0 -0.68765143902E+00  0.76260002269E+02  0.29401912788E+02  0.81869550421E+02  0.47000000000E+01 0. -1.
        -11    1    6    6    0    0  0.35596040450E+02  0.17204077878E+02 -0.18087180873E+01  0.39576885330E+02  0.00000000000E+00 0.  1.
         12    1    6    6    0    0 -0.22926992875E+01 -0.41830726082E+02 -0.45786169512E+02  0.62059966429E+02  0.00000000000E+00 0. -1.
         -5    1    3    3    0  503  0.40859635755E+02 -0.20499011993E+02  0.12003229140E+01  0.45970100085E+02  0.47000000000E+01 0.  1.
         13    1    4    4    0    0 -0.19943902186E+02  0.15038263503E+02 -0.42423587103E+01  0.25335868073E+02  0.00000000000E+00 0. -1.
        -14    1    4    4    0    0 -0.53531423293E+02 -0.46172605573E+02 -0.14773772639E+03  0.16378021427E+03  0.00000000000E+00 0.  1.
</event>
<event>
12    1  0.8562501E-002  0.3096523E+03  0.7818608E-02  0.1080550E+00
         21   -1    0    0  503  502  0.00000000000E+00  0.00000000000E+00  0.16485028908E+04  0.16485028908E+04  0.00000000000E+00 0. -1.
         21   -1    0    0  501  503 -0.00000000000E+00 -0.00000000000E+00 -0.64887527353E+02  0.64887527353E+02  0.00000000000E+00 0.  1.
          6    2    1    2  501    0 -0.20294527177E+03 -0.15857718647E+03  0.51448741756E+03  0.60032297686E+03  0.17133845547E+03 0.  0.
         24    2    3    3    0    0 -0.22488730460E+03 -0.15594359514E+03  0.45898867213E+03  0.54040145024E+03  0.80438931171E+02 0.  0.
         -6    2    1    2    0  502  0.20294527177E+03  0.15857718647E+03  0.10691279459E+04  0.11130674413E+04  0.17190420813E+03 0.  0.
        -24    2    5    5    0    0  0.14801362252E+03  0.18277564739E+03  0.81937075262E+03  0.85615539955E+03  0.79490050943E+02 0.  0.
          5    1    3    3  501    0  0.21942032832E+02 -0.26335913271E+01  0.55498745429E+02  0.59921526618E+02  0.47000000000E+01 0. -1.
        -13    1    4    4    0    0 -0.95377515050E+02 -0.31840655194E+02  0.21717228407E+03  0.23932091147E+03  0.00000000000E+00 0.  1.
         14    1    4    4    0    0 -0.12950978955E+03 -0.12410293995E+03  0.24181638806E+03  0.30108053877E+03  0.00000000000E+00 0. -1.
         -5    1    5    5    0  502  0.54931649249E+02 -0.24198460924E+02  0.24975719326E+03  0.25691204173E+03  0.47000000000E+01 0.  1.
         13    1    6    6    0    0  0.37593208967E+02  0.94998954132E+02  0.43153609364E+03  0.44346527571E+03  0.00000000000E+00 0. -1.
        -14    1    6    6    0    0  0.11042041355E+03  0.87776693261E+02  0.38783465898E+03  0.41269012384E+03  0.00000000000E+00 0.  1.
</event>
<event>
12    1  0.8562501E-002  0.2593219E+03  0.7818608E-02  0.1109351E+00
         21   -1    0    0  501  502  0.00000000000E+00  0.00000000000E+00  0.49629721855E+03  0.49629721855E+03  0.00000000000E+00 0. -1.
         21   -1    0    0  502  503 -0.00000000000E+00 -0.00000000000E+00 -0.14175734611E+03  0.14175734611E+03  0.00000000000E+00 0. -1.
         -6    2    1    2    0  503  0.54783404375E+02  0.18666025595E+03  0.87124506733E+02  0.27356630241E+03  0.17147760668E+03 0.  0.
        -24    2    3    3    0    0 -0.35128711136E+02  0.74895752476E+02  0.50643815728E+02  0.12548381334E+03  0.79611502016E+02 0.  0.
          6    2    1    2  501    0 -0.54783404375E+02 -0.18666025595E+03  0.26741536571E+03  0.36448826226E+03  0.15328875679E+03 0.  0.
         24    2    5    5    0    0 -0.51503129908E+02 -0.44866990645E+02  0.13171010309E+03  0.16813628598E+03  0.79098926450E+02 0.  0.
          5    1    5    5  501    0 -0.32802744664E+01 -0.14179326531E+03  0.13570526262E+03  0.19635197628E+03  0.47000000000E+01 0. -1.
        -11    1    6    6    0    0  0.91123243662E+01 -0.13814717032E+02  0.82419650403E+02  0.84064734785E+02  0.00000000000E+00 0.  1.
         12    1    6    6    0    0 -0.60615454275E+02 -0.31052273613E+02  0.49290452692E+02  0.84071551193E+02  0.00000000000E+00 0. -1.
         -5    1    3    3    0  503  0.89912115511E+02  0.11176450347E+03  0.36480691005E+02  0.14808248907E+03  0.47000000000E+01 0.  1.
         11    1    4    4    0    0 -0.72744447271E+01  0.70312795442E+01 -0.20771369747E+02  0.23104247213E+02  0.00000000000E+00 0. -1.
        -12    1    4    4    0    0 -0.27854266409E+02  0.67864472932E+02  0.71415185475E+02  0.10237956613E+03  0.00000000000E+00 0.  1.
</event>
<event>
12    1  0.8562501E-002  0.1866933E+03  0.7818608E-02  0.1161749E+00
         21   -1    0    0  501  502  0.00000000000E+00  0.00000000000E+00  0.21434805558E+03  0.21434805558E+03  0.00000000000E+00 0.  1.
         21   -1    0    0  502  503 -0.00000000000E+00 -0.00000000000E+00 -0.38585227929E+03  0.38585227929E+03  0.00000000000E+00 0. -1.
         -6    2    1    2    0  503 -0.24491561715E+02  0.72453275699E+02 -0.31442726866E+03  0.36508036095E+03  0.16902617821E+03 0.  0.
        -24    2    3    3    0    0 -0.17606314165E+02  0.76007989100E+02 -0.10137620686E+03  0.15183663289E+03  0.81792610091E+02 0.  0.
          6    2    1    2  501    0  0.24491561715E+02 -0.72453275699E+02  0.14292304495E+03  0.23511997392E+03  0.17030881247E+03 0.  0.
         24    2    5    5    0    0  0.49521755536E+02 -0.10648695469E+03  0.11960610568E+03  0.18663728046E+03  0.82073005003E+02 0.  0.
          5    1    5    5  501    0 -0.25030193821E+02  0.34033678991E+02  0.23316939269E+02  0.48482693461E+02  0.47000000000E+01 0. -1.
        -11    1    6    6    0    0  0.58367421754E+02 -0.97082657919E+02  0.65160049478E+02  0.13068140816E+03  0.00000000000E+00 0.  1.
         12    1    6    6    0    0 -0.88456662178E+01 -0.94042967707E+01  0.54446056201E+02  0.55955872297E+02  0.00000000000E+00 0. -1.
         -5    1    3    3    0  503 -0.68852475501E+01 -0.35547134008E+01 -0.21305106180E+03  0.21324372805E+03  0.47000000000E+01 0.  1.
         11    1    4    4    0    0 -0.35626284764E+02  0.94839573003E+00 -0.36339851801E+02  0.50899081027E+02  0.00000000000E+00 0. -1.
        -12    1    4    4    0    0  0.18019970599E+02  0.75059593370E+02 -0.65036355058E+02  0.10093755186E+03  0.00000000000E+00 0.  1.
</event>
<event>
12    1  0.8562501E-002  0.2020097E+03  0.7818608E-02  0.1148906E+00
         21   -1    0    0  501  502  0.00000000000E+00  0.00000000000E+00  0.35159427218E+03  0.35159427218E+03  0.00000000000E+00 0.  1.
         21   -1    0    0  502  503 -0.00000000000E+00 -0.00000000000E+00 -0.19903733314E+03  0.19903733314E+03  0.00000000000E+00 0. -1.
         -6    2    1    2    0  503  0.52675074106E+02 -0.92868430956E+02 -0.10437479862E+03  0.22379553085E+03  0.16670672494E+03 0.  0.
        -24    2    3    3    0    0 -0.25959579566E+02 -0.22858361762E+02 -0.76685521000E+02  0.11482945979E+03  0.78158372749E+02 0.  0.
          6    2    1    2  501    0 -0.52675074106E+02  0.92868430956E+02  0.25693173766E+03  0.32683607447E+03  0.17148962902E+03 0.  0.
         24    2    5    5    0    0 -0.92605157390E+02  0.53940797365E+02  0.97074796414E+02  0.15746634910E+03  0.62344287672E+02 0.  0.
          5    1    5    5  501    0  0.39930083284E+02  0.38927633590E+02  0.15985694124E+03  0.16936972537E+03  0.47000000000E+01 0. -1.
        -13    1    6    6    0    0 -0.18581777974E+02  0.39306413023E+00  0.52734666663E+02  0.55914059414E+02  0.00000000000E+00 0.  1.
         14    1    6    6    0    0 -0.74023379415E+02  0.53547733235E+02  0.44340129752E+02  0.10155228969E+03  0.00000000000E+00 0. -1.
         -5    1    3    3    0  503  0.78634653672E+02 -0.70010069194E+02 -0.27689277619E+02  0.10896607106E+03  0.47000000000E+01 0.  1.
         11    1    4    4    0    0  0.18340768279E+02 -0.68422480742E+01 -0.62708627885E+02  0.65693014476E+02  0.00000000000E+00 0. -1.
        -12    1    4    4    0    0 -0.44300347844E+02 -0.16016113688E+02 -0.13976893115E+02  0.49136445312E+02  0.00000000000E+00 0.  1.
</event>
<event>
12    1  0.8562501E-002  0.1786251E+03  0.7818608E-02  0.1169847E+00
         21   -1    0    0  503  502  0.00000000000E+00  0.00000000000E+00  0.18049343259E+03  0.18049343259E+03  0.00000000000E+00 0. -1.
         21   -1    0    0  501  503 -0.00000000000E+00 -0.00000000000E+00 -0.27991602035E+03  0.27991602035E+03  0.00000000000E+00 0.  1.
          6    2    1    2  501    0 -0.95665924863E+01 -0.31247789214E+02 -0.19109701383E+03  0.25963317834E+03  0.17269445439E+03 0.  0.
         24    2    3    3    0    0 -0.34994574464E+02  0.41705144401E+02 -0.10522345525E+03  0.14402577869E+03  0.81899389991E+02 0.  0.
         -6    2    1    2    0  502  0.95665924863E+01  0.31247789214E+02  0.91674426078E+02  0.20077627460E+03  0.17561027311E+03 0.  0.
        -24    2    5    5    0    0 -0.39366195123E+02  0.37050058600E+02 -0.14237969380E+01  0.95336940560E+02  0.78515609129E+02 0.  0.
          5    1    3    3  501    0  0.25427981977E+02 -0.72952933615E+02 -0.85873558583E+02  0.11560739965E+03  0.47000000000E+01 0. -1.
        -11    1    4    4    0    0 -0.46108330377E+02  0.95973111270E+01 -0.98794440457E+02  0.10944600484E+03  0.00000000000E+00 0.  1.
         12    1    4    4    0    0  0.11113755913E+02  0.32107833274E+02 -0.64290147933E+01  0.34579773846E+02  0.00000000000E+00 0. -1.
         -5    1    5    5    0  502  0.48932787609E+02 -0.58022693859E+01  0.93098223016E+02  0.10543933404E+03  0.47000000000E+01 0.  1.
         13    1    6    6    0    0 -0.65731828704E+01 -0.18228748237E+02  0.19746646899E+02  0.27666298254E+02  0.00000000000E+00 0. -1.
        -14    1    6    6    0    0 -0.32793012252E+02  0.55278806836E+02 -0.21170443837E+02  0.67670642306E+02  0.00000000000E+00 0.  1.
</event>
<event>
12    1  0.8562501E-002  0.2220899E+03  0.7818608E-02  0.1134260E+00
         21   -1    0    0  501  502  0.00000000000E+00  0.00000000000E+00  0.29301496896E+03  0.29301496896E+03  0.00000000000E+00 0. -1.
         21   -1    0    0  502  503 -0.00000000000E+00 -0.00000000000E+00 -0.29816935681E+03  0.29816935681E+03  0.00000000000E+00 0.  1.
         -6    2    1    2    0  503  0.12471563383E+03  0.10126913312E+02 -0.20329463804E+03  0.30108577259E+03  0.18348675404E+03 0.  0.
        -24    2    3    3    0    0  0.16363162996E+03  0.10402324986E+02 -0.16013322995E+03  0.24278030326E+03  0.80100596932E+02 0.  0.
          6    2    1    2  501    0 -0.12471563383E+03 -0.10126913312E+02  0.19814025019E+03  0.29009855319E+03  0.17100019919E+03 0.  0.
         24    2    5    5    0    0 -0.19479005117E+02 -0.15084572244E+02  0.15508300616E+03  0.17618919155E+03  0.79905672273E+02 0.  0.
          5    1    5    5  501    0 -0.10523662871E+03  0.49576589319E+01  0.43057244030E+02  0.11390936163E+03  0.47000000000E+01 0. -1.
        -13    1    6    6    0    0  0.31130976234E+02 -0.36436797517E+01  0.50372410505E+02  0.59327850319E+02  0.00000000000E+00 0.  1.
         14    1    6    6    0    0 -0.50609981351E+02 -0.11440892493E+02  0.10471059565E+03  0.11686134123E+03  0.00000000000E+00 0. -1.
         -5    1    3    3    0  503 -0.38915996128E+02 -0.27541167383E+00 -0.43161408090E+02  0.58305469336E+02  0.47000000000E+01 0.  1.
         11    1    4    4    0    0  0.22807048712E+02 -0.27247723619E+01  0.68307041518E+01  0.23963396558E+02  0.00000000000E+00 0. -1.
        -12    1    4    4    0    0  0.14082458124E+03  0.13127097348E+02 -0.16696393410E+03  0.21881690670E+03  0.00000000000E+00 0.  1.
</event>
<event>
12    1  0.8562501E-002  0.1867241E+03  0.7818608E-02  0.1162178E+00
         21   -1    0    0  503  502  0.00000000000E+00  0.00000000000E+00  0.46847525409E+03  0.46847525409E+03  0.00000000000E+00 0. -1.
         21   -1    0    0  501  503 -0.00000000000E+00 -0.00000000000E+00 -0.11293441353E+03  0.11293441353E+03  0.00000000000E+00 0. -1.
          6    2    1    2  501    0  0.36334329106E+02  0.56753647479E+02  0.43260136335E+01  0.18364371654E+03  0.17077804383E+03 0.  0.
         24    2    3    3    0    0  0.39032490710E+02  0.71891653719E+02  0.57805431025E+02  0.12779949218E+03  0.79368111615E+02 0.  0.
         -6    2    1    2    0  502 -0.36334329106E+02 -0.56753647479E+02  0.35121482693E+03  0.39776595108E+03  0.17413999313E+03 0.  0.
        -24    2    5    5    0    0  0.13522704060E+01  0.14267307370E+02  0.68514056767E+02  0.10381685470E+03  0.76670585303E+02 0.  0.
          5    1    3    3  501    0 -0.26981616032E+01 -0.15138006240E+02 -0.53479417391E+02  0.55844224352E+02  0.47000000000E+01 0. -1.
        -11    1    4    4    0    0  0.17688724346E+02 -0.19097472324E+01 -0.14001615138E+02  0.22640303221E+02  0.00000000000E+00 0.  1.
         12    1    4    4    0    0  0.21343766364E+02  0.73801400951E+02  0.71807046163E+02  0.10515918896E+03  0.00000000000E+00 0. -1.
         -5    1    5    5    0  502 -0.37686599512E+02 -0.71020954849E+02  0.28270077016E+03  0.29394909638E+03  0.47000000000E+01 0.  1.
         13    1    6    6    0    0  0.18870195528E+01  0.93126657960E+01  0.85545353138E+02  0.86071447243E+02  0.00000000000E+00 0. -1.
        -14    1    6    6    0    0 -0.53474914679E+00  0.49546415739E+01 -0.17031296371E+02  0.17745407458E+02  0.00000000000E+00 0.  1.
</event>
<event>
12    1  0.8562501E-002  0.1764554E+03  0.7818608E-02  0.1171395E+00
         21   -1    0    0  501  502  0.00000000000E+00  0.00000000000E+00  0.33840078931E+02  0.33840078931E+02  0.00000000000E+00 0.  1.
         21   -1    0    0  502  503 -0.00000000000E+00 -0.00000000000E+00 -0.10923185449E+04  0.10923185449E+04  0.00000000000E+00 0.  1.
         -6    2    1    2    0  503  0.11197110920E+02 -0.39370012030E+02 -0.75380298285E+03  0.77407388294E+03  0.17116093642E+03 0.  0.
        -24    2    3    3    0    0 -0.28867200230E+00 -0.48398844326E+02 -0.19454583010E+03  0.21460619315E+03  0.76584637258E+02 0.  0.
          6    2    1    2  501    0 -0.11197110920E+02  0.39370012030E+02 -0.30467548308E+03  0.35208474085E+03  0.17164248195E+03 0.  0.
         24    2    5    5    0    0  0.57510367361E+02  0.32292775054E+02 -0.21783674614E+03  0.24102682313E+03  0.79314663371E+02 0.  0.
          5    1    5    5  501    0 -0.68707478281E+02  0.70772369752E+01 -0.86838736943E+02  0.11105791772E+03  0.47000000000E+01 0. -1.
        -11    1    6    6    0    0  0.20250540555E+02 -0.26579380259E+02 -0.66548005060E+02  0.74465997778E+02  0.00000000000E+00 0.  1.
         12    1    6    6    0    0  0.37259826806E+02  0.58872155314E+02 -0.15128874108E+03  0.16656082535E+03  0.00000000000E+00 0. -1.
         -5    1    3    3    0  503  0.11485782923E+02  0.90288322962E+01 -0.55925715274E+03  0.55946768979E+03  0.47000000000E+01 0.  1.
         13    1    4    4    0    0  0.25777131186E+02 -0.24238065421E+02 -0.16390430296E+03  0.16767994763E+03  0.00000000000E+00 0. -1.
        -14    1    4    4    0    0 -0.26065803188E+02 -0.24160778905E+02 -0.30641527143E+02  0.46926245522E+02  0.00000000000E+00 0.  1.
</event>
<event>
12    1  0.8562501E-002  0.2009435E+03  0.7818608E-02  0.1149592E+00
         21   -1    0    0  501  502  0.00000000000E+00  0.00000000000E+00  0.77147522291E+03  0.77147522291E+03  0.00000000000E+00 0. -1.
         21   -1    0    0  502  503 -0.00000000000E+00 -0.00000000000E+00 -0.55546105101E+02  0.55546105101E+02  0.00000000000E+00 0. -1.
         -6    2    1    2    0  503 -0.79737324011E+02  0.54089944753E+02  0.47148714869E+03  0.51252164369E+03  0.17633644238E+03 0.  0.
        -24    2    3    3    0    0 -0.82804042814E+02  0.92949555211E+02  0.27601487513E+03  0.31314518114E+03  0.79872171993E+02 0.  0.
          6    2    1    2  501    0  0.79737324011E+02 -0.54089944753E+02  0.24444196912E+03  0.31449968432E+03  0.17284215980E+03 0.  0.
         24    2    5    5    0    0  0.37878673779E+02  0.27072788636E+02  0.17904651680E+03  0.20207997486E+03  0.81307633401E+02 0.  0.
          5    1    5    5  501    0  0.41858650232E+02 -0.81162733389E+02  0.65395452317E+02  0.11241970946E+03  0.47000000000E+01 0. -1.
        -13    1    6    6    0    0 -0.95926011779E+01 -0.17535049747E+02  0.13342366132E+02  0.24031535552E+02  0.00000000000E+00 0.  1.
         14    1    6    6    0    0  0.47471274957E+02  0.44607838383E+02  0.16570415067E+03  0.17804843931E+03  0.00000000000E+00 0. -1.
         -5    1    3    3    0  503  0.30667188036E+01 -0.38859610458E+02  0.19547227356E+03  0.19937646255E+03  0.47000000000E+01 0.  1.
         13    1    4    4    0    0  0.70891589259E+01  0.24424193319E+02  0.10582999554E+03  0.10884293891E+03  0.00000000000E+00 0. -1.
        -14    1    4    4    0    0 -0.89893201740E+02  0.68525361892E+02  0.17018487959E+03  0.20430224223E+03  0.00000000000E+00 0.  1.
</event>
<event>
12    1  0.8562501E-002  0.1856247E+03  0.7818608E-02  0.1162648E+00
         21   -1    0    0  501  502  0.00000000000E+00  0.00000000000E+00  0.36061188055E+03  0.36061188055E+03  0.00000000000E+00 0. -1.
         21   -1    0    0  502  503 -0.00000000000E+00 -0.00000000000E+00 -0.11080303498E+03  0.11080303498E+03  0.00000000000E+00 0. -1.
         -6    2    1    2    0  503 -0.33435579224E+01  0.70163493887E+02  0.36542725626E+02  0.18918744762E+03  0.17182090759E+03 0.  0.
        -24    2    3    3    0    0 -0.34869650340E+02  0.32303215162E+02 -0.37637317559E+02  0.10001310144E+03  0.79540320359E+02 0.  0.
          6    2    1    2  501    0  0.33435579224E+01 -0.70163493887E+02  0.21326611994E+03  0.28222746792E+03  0.17098482529E+03 0.  0.
         24    2    5    5    0    0 -0.24423059663E+02 -0.11297938169E+02  0.19795086322E+03  0.21519922170E+03  0.80012696011E+02 0.  0.
          5    1    5    5  501    0  0.27766617586E+02 -0.58865555717E+02  0.15315256725E+02  0.67028246215E+02  0.47000000000E+01 0. -1.
        -11    1    6    6    0    0 -0.35452852038E+01 -0.33258114297E+02  0.17224885021E+03  0.17546605830E+03  0.00000000000E+00 0.  1.
         12    1    6    6    0    0 -0.20877774460E+02  0.21960176127E+02  0.25702013003E+02  0.39733163407E+02  0.00000000000E+00 0. -1.
         -5    1    3    3    0  503  0.31526092418E+02  0.37860278725E+02  0.74180043184E+02  0.89174346171E+02  0.47000000000E+01 0.  1.
         11    1    4    4    0    0 -0.28023399209E+02  0.58431676314E+02 -0.32581022727E+02  0.72533404319E+02  0.00000000000E+00 0. -1.
        -12    1    4    4    0    0 -0.68462511307E+01 -0.26128461152E+02 -0.50562948311E+01  0.27479697126E+02  0.00000000000E+00 0.  1.
</event>
<event>
12    1  0.8562501E-002  0.2235013E+03  0.7818608E-02  0.1131319E+00
         21   -1    0    0  503  502  0.00000000000E+00  0.00000000000E+00  0.62231873230E+03  0.62231873230E+03  0.00000000000E+00 0. -1.
         21   -1    0    0  501  503 -0.00000000000E+00 -0.00000000000E+00 -0.21206395724E+03  0.21206395724E+03  0.00000000000E+00 0. -1.
          6    2    1    2  501    0  0.11008342518E+03 -0.90188648924E+02 -0.12379321812E+03  0.25549477255E+03  0.17233822864E+03 0.  0.
         24    2    3    3    0    0 -0.13618199978E+01 -0.59006171987E+01 -0.24589453985E+02  0.84065510797E+02  0.80160445490E+02 0.  0.
         -6    2    1    2    0  502 -0.11008342518E+03  0.90188648924E+02  0.53404799318E+03  0.57888791700E+03  0.17219642429E+03 0.  0.
        -24    2    5    5    0    0 -0.13179536267E+03  0.11356069113E+03  0.42592681353E+03  0.46606088090E+03  0.74384447508E+02 0.  0.
          5    1    3    3  501    0  0.11144524518E+03 -0.84288031726E+02 -0.99203764137E+02  0.17142926175E+03  0.47000000000E+01 0. -1.
        -13    1    4    4    0    0  0.78892111461E+01  0.34193582181E+02  0.18753698458E+01  0.35141965325E+02  0.00000000000E+00 0.  1.
         14    1    4    4    0    0 -0.92510311439E+01 -0.40094199380E+02 -0.26464823831E+02  0.48923545472E+02  0.00000000000E+00 0. -1.
         -5    1    5    5    0  502  0.21711937494E+02 -0.23372042202E+02  0.10812117965E+03  0.11282703611E+03  0.47000000000E+01 0.  1.
         11    1    6    6    0    0 -0.10193896888E+03  0.45210980899E+02  0.29508478758E+03  0.31545303618E+03  0.00000000000E+00 0. -1.
        -12    1    6    6    0    0 -0.29856393793E+02  0.68349710227E+02  0.13084202594E+03  0.15060784472E+03  0.00000000000E+00 0.  1.
</event>
<event>
12    1  0.8562501E-002  0.2306163E+03  0.7818608E-02  0.1126527E+00
         21   -1    0    0  503  502  0.00000000000E+00  0.00000000000E+00  0.43079650034E+03  0.43079650034E+03  0.00000000000E+00 0. -1.
         21   -1    0    0  501  503 -0.00000000000E+00 -0.00000000000E+00 -0.13772202547E+03  0.13772202547E+03  0.00000000000E+00 0. -1.
          6    2    1    2  501    0  0.54150318832E+02  0.14200379274E+03  0.52496404430E+02  0.23651587387E+03  0.17345475471E+03 0.  0.
         24    2    3    3    0    0 -0.23127522016E+02  0.21761040246E+02  0.85154141713E+01  0.86894345611E+02  0.80434382408E+02 0.  0.
         -6    2    1    2    0  502 -0.54150318832E+02 -0.14200379274E+03  0.24057807044E+03  0.33200265193E+03  0.17102812263E+03 0.  0.
        -24    2    5    5    0    0  0.19810384075E+02 -0.82445557534E+02  0.67848120607E+02  0.13483497069E+03  0.79921089691E+02 0.  0.
          5    1    3    3  501    0  0.77277840848E+02  0.12024275250E+03  0.43980990259E+02  0.14962152826E+03  0.47000000000E+01 0. -1.
        -11    1    4    4    0    0 -0.19367795122E+02 -0.24153446858E+02  0.23038590922E+02  0.38591153840E+02  0.00000000000E+00 0.  1.
         12    1    4    4    0    0 -0.37597268933E+01  0.45914487104E+02 -0.14523176751E+02  0.48303191771E+02  0.00000000000E+00 0. -1.
         -5    1    5    5    0  502 -0.73960702907E+02 -0.59558235210E+02  0.17272994983E+03  0.19716768124E+03  0.47000000000E+01 0.  1.
         13    1    6    6    0    0  0.38115419921E+02 -0.23888388885E+02  0.56868951514E+02  0.72508744339E+02  0.00000000000E+00 0. -1.
        -14    1    6    6    0    0 -0.18305035846E+02 -0.58557168649E+02  0.10979169093E+02  0.62326226354E+02  0.00000000000E+00 0.  1.
</event>
<event>
12    1  0.8562501E-002  0.2338374E+03  0.7818608E-02  0.1124133E+00
         21   -1    0    0  503  502  0.00000000000E+00  0.00000000000E+00  0.93863615691E+03  0.93863615691E+03  0.00000000000E+00 0. -1.
         21   -1    0    0  501  503 -0.00000000000E+00 -0.00000000000E+00 -0.87919187998E+02  0.87919187998E+02  0.00000000000E+00 0. -1.
          6    2    1    2  501    0  0.15330240657E+03 -0.35373151369E+02  0.12543740761E+03  0.26451178018E+03  0.17169464444E+03 0.  0.
         24    2    3    3    0    0  0.37000264556E+02 -0.17658820122E+02  0.11582279763E+03  0.14638254378E+03  0.79574337356E+02 0.  0.
         -6    2    1    2    0  502 -0.15330240657E+03  0.35373151369E+02  0.72527956130E+03  0.76204356472E+03  0.17299440682E+03 0.  0.
        -24    2    5    5    0    0 -0.71283556373E+02 -0.26634680427E+02  0.55816578488E+03  0.56577546425E+03  0.52555503315E+02 0.  0.
          5    1    3    3  501    0  0.11630214201E+03 -0.17714331246E+02  0.96146099716E+01  0.11812923641E+03  0.47000000000E+01 0. -1.
        -11    1    4    4    0    0 -0.13105986901E+01  0.21722230943E+02  0.74561700059E+02  0.77672518317E+02  0.00000000000E+00 0.  1.
         12    1    4    4    0    0  0.38310863246E+02 -0.39381051066E+02  0.41261097576E+02  0.68710025461E+02  0.00000000000E+00 0. -1.
         -5    1    5    5    0  502 -0.82018850197E+02  0.62007831796E+02  0.16711377642E+03  0.19626810047E+03  0.47000000000E+01 0.  1.
         13    1    6    6    0    0 -0.37084873803E+02 -0.26062754747E+02  0.16462481895E+03  0.17075094748E+03  0.00000000000E+00 0. -1.
        -14    1    6    6    0    0 -0.34198682570E+02 -0.57192568023E+00  0.39354096593E+03  0.39502451678E+03  0.00000000000E+00 0.  1.
</event>
<event>
12    1  0.8562501E-002  0.2030557E+03  0.7818608E-02  0.1147437E+00
         21   -1    0    0  501  502  0.00000000000E+00  0.00000000000E+00  0.32701680372E+03  0.32701680372E+03  0.00000000000E+00 0. -1.
         21   -1    0    0  502  503 -0.00000000000E+00 -0.00000000000E+00 -0.19852052549E+03  0.19852052549E+03  0.00000000000E+00 0. -1.
         -6    2    1    2    0  503  0.89562188952E+02  0.58467106678E+02 -0.95418224800E+02  0.22326376512E+03  0.17117909609E+03 0.  0.
        -24    2    3    3    0    0  0.62089373626E+02  0.15788218861E+01 -0.23467495185E+01  0.11067858830E+03  0.91578707562E+02 0.  0.
          6    2    1    2  501    0 -0.89562188952E+02 -0.58467106678E+02  0.22391450303E+03  0.30227356408E+03  0.17260305508E+03 0.  0.
         24    2    5    5    0    0 -0.88239636023E+02 -0.72636580109E+02  0.88070793713E+02  0.16560562166E+03  0.81280078040E+02 0.  0.
          5    1    5    5  501    0 -0.13225529283E+01  0.14169473431E+02  0.13584370932E+03  0.13666794242E+03  0.47000000000E+01 0. -1.
        -13    1    6    6    0    0 -0.40464374305E+02  0.12584515060E+02  0.30432534922E+02  0.52171589864E+02  0.00000000000E+00 0.  1.
         14    1    6    6    0    0 -0.47775261719E+02 -0.85221095169E+02  0.57638258791E+02  0.11343403180E+03  0.00000000000E+00 0. -1.
         -5    1    3    3    0  503  0.27472815326E+02  0.56888284792E+02 -0.93071475281E+02  0.11258517682E+03  0.47000000000E+01 0.  1.
         13    1    4    4    0    0  0.58502203237E+02 -0.53380855338E+01 -0.40748484213E+02  0.71494348773E+02  0.00000000000E+00 0. -1.
        -14    1    4    4    0    0  0.35871703885E+01  0.69169074199E+01  0.38401734695E+02  0.39184239526E+02  0.00000000000E+00 0.  1.
</event>
<event>
12    1  0.8562501E-002  0.2047805E+03  0.7818608E-02  0.1147059E+00
         21   -1    0    0  503  502  0.00000000000E+00  0.00000000000E+00  0.39943015075E+02  0.39943015075E+02  0.00000000000E+00 0. -1.
         21   -1    0    0  501  503 -0.00000000000E+00 -0.00000000000E+00 -0.10185020838E+04  0.10185020838E+04  0.00000000000E+00 0. -1.
          6    2    1    2  501    0  0.65949237258E+02 -0.86831252506E+02 -0.48858638462E+03  0.52976571606E+03  0.17333808112E+03 0.  0.
         24    2    3    3    0    0 -0.11927558716E+02 -0.65175211869E+02 -0.37550081712E+03  0.39068223385E+03  0.85097998128E+02 0.  0.
         -6    2    1    2    0  502 -0.65949237258E+02  0.86831252506E+02 -0.48997268409E+03  0.52867938280E+03  0.16595086725E+03 0.  0.
        -24    2    5    5    0    0 -0.39762121965E+02  0.16086749689E+01 -0.36136020908E+03  0.37211657925E+03  0.79409909112E+02 0.  0.
          5    1    3    3  501    0  0.77876795974E+02 -0.21656040637E+02 -0.11308556750E+03  0.13908348221E+03  0.47000000000E+01 0. -1.
        -13    1    4    4    0    0 -0.30236448318E+02 -0.65516883107E+02 -0.17424270636E+03  0.18859275039E+03  0.00000000000E+00 0.  1.
         14    1    4    4    0    0  0.18308889602E+02  0.34167123788E+00 -0.20125811076E+03  0.20208948346E+03  0.00000000000E+00 0. -1.
         -5    1    5    5    0  502 -0.26187115293E+02  0.85222577537E+02 -0.12861247501E+03  0.15656280356E+03  0.47000000000E+01 0.  1.
         13    1    6    6    0    0 -0.13497477665E+02  0.61661081612E+00 -0.33365201329E+03  0.33392548283E+03  0.00000000000E+00 0. -1.
        -14    1    6    6    0    0 -0.26264644299E+02  0.99206415279E+00 -0.27708195794E+02  0.38191096418E+02  0.00000000000E+00 0.  1.
</event>
<event>
12    1  0.8562501E-002  0.2610345E+03  0.7818608E-02  0.1106738E+00
         21   -1    0    0  503  502  0.00000000000E+00  0.00000000000E+00  0.13847427851E+03  0.13847427851E+03  0.00000000000E+00 0.  1.
         21   -1    0    0  501  503 -0.00000000000E+00 -0.00000000000E+00 -0.75536732187E+03  0.75536732187E+03  0.00000000000E+00 0.  1.
          6    2    1    2  501    0 -0.13365649013E+00  0.19408856876E+03 -0.57310615765E+03  0.62916007533E+03  0.17239878790E+03 0.  0.
         24    2    3    3    0    0  0.61281515483E+02  0.16238820657E+03 -0.43427975560E+03  0.47400983776E+03  0.77207942589E+02 0.  0.
         -6    2    1    2    0  502  0.13365649013E+00 -0.19408856876E+03 -0.43786885710E+02  0.26468152505E+03  0.17455265096E+03 0.  0.
        -24    2    5    5    0    0 -0.43283108413E+02 -0.81542028252E+02 -0.72004636313E+02  0.14070543581E+03  0.78043719607E+02 0.  0.
          5    1    3    3  501    0 -0.61415171973E+02  0.31700362184E+02 -0.13882640205E+03  0.15515023757E+03  0.47000000000E+01 0. -1.
        -13    1    4    4    0    0  0.72546632572E+02  0.13645728201E+03 -0.30792477185E+03  0.34453050493E+03  0.00000000000E+00 0.  1.
         14    1    4    4    0    0 -0.11265117088E+02  0.25930924564E+02 -0.12635498375E+03  0.12947933283E+03  0.00000000000E+00 0. -1.
         -5    1    5    5    0  502  0.43416764903E+02 -0.11254654051E+03  0.28217750603E+02  0.12397608924E+03  0.47000000000E+01 0.  1.
         11    1    6    6    0    0  0.15037971406E+01  0.75043295035E+01  0.93224412142E+01  0.12061686339E+02  0.00000000000E+00 0. -1.
        -12    1    6    6    0    0 -0.44786905553E+02 -0.89046357755E+02 -0.81327077527E+02  0.12864374947E+03  0.00000000000E+00 0.  1.
</event>
<event>
12    1  0.8562501E-002  0.1830297E+03  0.7818608E-02  0.1165494E+00
         21   -1    0    0  503  502  0.00000000000E+00  0.00000000000E+00  0.42738524714E+03  0.42738524714E+03  0.00000000000E+00 0.  1.
         21   -1    0    0  501  503 -0.00000000000E+00 -0.00000000000E+00 -0.10727775902E+03  0.10727775902E+03  0.00000000000E+00 0.  1.
          6    2    1    2  501    0  0.32196587512E+02 -0.47058306571E+02  0.19585874373E+02  0.18407467891E+03  0.17392175389E+03 0.  0.
         24    2    3    3    0    0  0.86483547291E+02 -0.50544427204E+02  0.16328396711E+02  0.12937615791E+03  0.80233600340E+02 0.  0.
         -6    2    1    2    0  502 -0.32196587512E+02  0.47058306571E+02  0.30052161375E+03  0.35058832724E+03  0.17131208481E+03 0.  0.
        -24    2    5    5    0    0 -0.58157640549E+01  0.63905276726E+02  0.30158751932E+03  0.31891824034E+03  0.81462290116E+02 0.  0.
          5    1    3    3  501    0 -0.54286959779E+02  0.34861206329E+01  0.32574776619E+01  0.54698521003E+02  0.47000000000E+01 0. -1.
        -13    1    4    4    0    0  0.46023998532E+02 -0.69654542075E+02  0.13175665723E+02  0.84519594413E+02  0.00000000000E+00 0.  1.
         14    1    4    4    0    0  0.40459548760E+02  0.19110114872E+02  0.31527309873E+01  0.44856563499E+02  0.00000000000E+00 0. -1.
         -5    1    5    5    0  502 -0.26380823457E+02 -0.16846970155E+02 -0.10659055609E+01  0.31670086902E+02  0.47000000000E+01 0.  1.
         11    1    6    6    0    0  0.10297552811E+02  0.70021336589E+01  0.91681907463E+00  0.12486393670E+02  0.00000000000E+00 0. -1.
        -12    1    6    6    0    0 -0.16113316866E+02  0.56903143067E+02  0.30067070024E+03  0.30643184667E+03  0.00000000000E+00 0.  1.
</event>
<event>
12    1  0.8562501E-002  0.1754721E+03  0.7818608E-02  0.1172884E+00
         21   -1    0    0  501  502  0.00000000000E+00  0.00000000000E+00  0.26841367482E+03  0.26841367482E+03  0.00000000000E+00 0. -1.
         21   -1    0    0  502  503 -0.00000000000E+00 -0.00000000000E+00 -0.34662463251E+03  0.34662463251E+03  0.00000000000E+00 0. -1.
         -6    2    1    2    0  503  0.25975482511E+02 -0.18581287867E+02 -0.29142552495E+03  0.33890265845E+03  0.17001819127E+03 0.  0.
        -24    2    3    3    0    0 -0.62973024251E+01  0.51552449067E+02 -0.15681513395E+03  0.18365343601E+03  0.80251400610E+02 0.  0.
          6    2    1    2  501    0 -0.25975482511E+02  0.18581287867E+02  0.21321456726E+03  0.27613564888E+03  0.17254116882E+03 0.  0.
         24    2    5    5    0    0 -0.76601525715E+02  0.28353676729E+02  0.98406844681E+02  0.15019360269E+03  0.78755866339E+02 0.  0.
          5    1    5    5  501    0  0.50626043204E+02 -0.97723888614E+01  0.11480772258E+03  0.12594204619E+03  0.47000000000E+01 0. -1.
        -11    1    6    6    0    0 -0.22803303521E+01  0.13180372638E+02 -0.10824486934E+02  0.17207313758E+02  0.00000000000E+00 0.  1.
         12    1    6    6    0    0 -0.74321195363E+02  0.15173304091E+02  0.10923133162E+03  0.13298628893E+03  0.00000000000E+00 0. -1.
         -5    1    3    3    0  503  0.32272784936E+02 -0.70133736935E+02 -0.13461039100E+03  0.15524922244E+03  0.47000000000E+01 0.  1.
         13    1    4    4    0    0 -0.32843098646E+02 -0.47047655431E+01 -0.60399849298E+02  0.68912594950E+02  0.00000000000E+00 0. -1.
        -14    1    4    4    0    0  0.26545796221E+02  0.56257214610E+02 -0.96415284649E+02  0.11474084106E+03  0.00000000000E+00 0.  1.
</event>
<event>
12    1  0.8562501E-002  0.3649272E+03  0.7818608E-02  0.1056670E+00
         21   -1    0    0  503  502  0.00000000000E+00  0.00000000000E+00  0.90153377641E+03  0.90153377641E+03  0.00000000000E+00 0. -1.
         21   -1    0    0  501  503 -0.00000000000E+00 -0.00000000000E+00 -0.14842246898E+03  0.14842246898E+03  0.00000000000E+00 0.  1.
          6    2    1    2  501    0 -0.13343248871E+03 -0.29287924936E+03  0.33813387884E+03  0.49734594399E+03  0.17156918206E+03 0.  0.
         24    2    3    3    0    0 -0.13581532194E+03 -0.14625335604E+03  0.17819550408E+03  0.28030400286E+03  0.83551484252E+02 0.  0.
         -6    2    1    2    0  502  0.13343248871E+03  0.29287924936E+03  0.41497742860E+03  0.55261030139E+03  0.17201568303E+03 0.  0.
        -24    2    5    5    0    0  0.95412739277E+02  0.20452560675E+03  0.38108090718E+03  0.45051754124E+03  0.82517165006E+02 0.  0.
          5    1    3    3  501    0  0.23828332273E+01 -0.14662589333E+03  0.15993837476E+03  0.21704194113E+03  0.47000000000E+01 0. -1.
        -13    1    4    4    0    0 -0.10374085717E+03 -0.14010570903E+03  0.11405382973E+03  0.20832678950E+03  0.00000000000E+00 0.  1.
         14    1    4    4    0    0 -0.32074464772E+02 -0.61476470048E+01  0.64141674353E+02  0.71977213359E+02  0.00000000000E+00 0. -1.
         -5    1    5    5    0  502  0.38019749437E+02  0.88353642616E+02  0.33896521418E+02  0.10209276015E+03  0.47000000000E+01 0.  1.
         13    1    6    6    0    0  0.10814814390E+03  0.19079854564E+03  0.36505977454E+03  0.42587409529E+03  0.00000000000E+00 0. -1.
        -14    1    6    6    0    0 -0.12735404626E+02  0.13727061111E+02  0.16021132636E+02  0.24643445957E+02  0.00000000000E+00 0.  1.
</event>
<event>
12    1  0.8562501E-002  0.1752336E+03  0.7818608E-02  0.1172662E+00
         21   -1    0    0  503  502  0.00000000000E+00  0.00000000000E+00  0.47478539421E+02  0.47478539421E+02  0.00000000000E+00 0. -1.
         21   -1    0    0  501  503 -0.00000000000E+00 -0.00000000000E+00 -0.71324770143E+03  0.71324770143E+03  0.00000000000E+00 0.  1.
          6    2    1    2  501    0 -0.96960824387E+00 -0.35066182623E+02 -0.45167418573E+03  0.48447538418E+03  0.17168648902E+03 0.  0.
         24    2    3    3    0    0  0.23692888927E+02 -0.43304146740E+02 -0.12516574192E+03  0.15689950488E+03  0.80711768469E+02 0.  0.
         -6    2    1    2    0  502  0.96960824387E+00  0.35066182623E+02 -0.21409497628E+03  0.27625085667E+03  0.17101841901E+03 0.  0.
        -24    2    5    5    0    0  0.11649193453E+02  0.19482744152E+02 -0.24429749563E+02  0.85589152812E+02  0.78825182446E+02 0.  0.
          5    1    3    3  501    0 -0.24662497171E+02  0.82379641175E+01 -0.32650844381E+03  0.32757587930E+03  0.47000000000E+01 0. -1.
        -11    1    4    4    0    0  0.76486076287E+01 -0.33799956700E+02 -0.13242804139E+03  0.13688726901E+03  0.00000000000E+00 0.  1.
         12    1    4    4    0    0  0.16044281299E+02 -0.95041900399E+01  0.72622994685E+01  0.20012235864E+02  0.00000000000E+00 0. -1.
         -5    1    5    5    0  502 -0.10679585209E+02  0.15583438471E+02 -0.18966522671E+03  0.19066170386E+03  0.47000000000E+01 0.  1.
         11    1    6    6    0    0 -0.26409321904E+02  0.28393916339E+02  0.12898410474E+01  0.38798588356E+02  0.00000000000E+00 0. -1.
        -12    1    6    6    0    0  0.38058515357E+02 -0.89111721872E+01 -0.25719590610E+02  0.46790564456E+02  0.00000000000E+00 0.  1.
</event>
<event>
12    1  0.8562501E-002  0.1956784E+03  0.7818608E-02  0.1154284E+00
         21   -1    0    0  501  502  0.00000000000E+00  0.00000000000E+00  0.77563713693E+02  0.77563713693E+02  0.00000000000E+00 0.  1.
         21   -1    0    0  502  503 -0.00000000000E+00 -0.00000000000E+00 -0.58350397881E+03  0.58350397881E+03  0.00000000000E+00 0. -1.
         -6    2    1    2    0  503 -0.72383267524E+02 -0.62882832690E+02 -0.11437365620E+03  0.22332983014E+03  0.16613636488E+03 0.  0.
        -24    2    3    3    0    0 -0.38773973459E+02 -0.35225939544E+01  0.32099168775E+01  0.87310679845E+02  0.78083426940E+02 0.  0.
          6    2    1    2  501    0  0.72383267524E+02  0.62882832690E+02 -0.39156660892E+03  0.43773786236E+03  0.17057678289E+03 0.  0.
         24    2    5    5    0    0 -0.12210997124E+02  0.34965516469E+02 -0.28386430501E+03  0.29788993630E+03  0.82387952380E+02 0.  0.
          5    1    5    5  501    0  0.84594264648E+02  0.27917316221E+02 -0.10770230391E+03  0.13984792606E+03  0.47000000000E+01 0. -1.
        -13    1    6    6    0    0 -0.43897901695E+02  0.38035871558E+02 -0.16941755346E+03  0.17909790819E+03  0.00000000000E+00 0.  1.
         14    1    6    6    0    0  0.31686904571E+02 -0.30703550886E+01 -0.11444675155E+03  0.11879202811E+03  0.00000000000E+00 0. -1.
         -5    1    3    3    0  503 -0.33609294065E+02 -0.59360238735E+02 -0.11758357307E+03  0.13601915030E+03  0.47000000000E+01 0.  1.
         13    1    4    4    0    0  0.16055567669E+02  0.12321029571E+01 -0.21599909646E+02  0.26941704244E+02  0.00000000000E+00 0. -1.
        -14    1    4    4    0    0 -0.54829541128E+02 -0.47546969114E+01  0.24809826523E+02  0.60368975601E+02  0.00000000000E+00 0.  1.
</event>
<event>
12    1  0.8562501E-002  0.2114633E+03  0.7818608E-02  0.1140852E+00
         21   -1    0    0  501  502  0.00000000000E+00  0.00000000000E+00  0.33884631246E+03  0.33884631246E+03  0.00000000000E+00 0. -1.
         21   -1    0    0  502  503 -0.00000000000E+00 -0.00000000000E+00 -0.15104227527E+03  0.15104227527E+03  0.00000000000E+00 0. -1.
         -6    2    1    2    0  503  0.87752376679E+02 -0.82686051385E+02  0.18362269144E+03  0.27838399151E+03  0.17100552976E+03 0.  0.
        -24    2    3    3    0    0 -0.11044740296E+02 -0.35718084880E+01  0.70584564726E+02  0.10862050355E+03  0.81740375032E+02 0.  0.
          6    2    1    2  501    0 -0.87752376679E+02  0.82686051385E+02  0.41813457471E+01  0.21150459623E+03  0.17372175416E+03 0.  0.
         24    2    5    5    0    0 -0.59564360628E+02  0.15291845234E+02  0.64143793018E+02  0.11687834007E+03  0.75923425946E+02 0.  0.
          5    1    5    5  501    0 -0.28188016052E+02  0.67394206150E+02 -0.59962447271E+02  0.94626256157E+02  0.47000000000E+01 0. -1.
        -11    1    6    6    0    0  0.65546340724E+00 -0.24982004449E+02  0.20316257449E+02  0.32206839263E+02  0.00000000000E+00 0.  1.
         12    1    6    6    0    0 -0.60219824035E+02  0.40273849683E+02  0.43827535569E+02  0.84671500808E+02  0.00000000000E+00 0. -1.
         -5    1    3    3    0  503  0.98797116975E+02 -0.79114242896E+02  0.11303812672E+03  0.16976348796E+03  0.47000000000E+01 0.  1.
         11    1    4    4    0    0  0.24703141592E+02 -0.26915177463E+02  0.47997361099E+02  0.60319305822E+02  0.00000000000E+00 0. -1.
        -12    1    4    4    0    0 -0.35747881888E+02  0.23343368975E+02  0.22587203627E+02  0.48301197731E+02  0.00000000000E+00 0.  1.
</event>
<event>
12    1  0.8562501E-002  0.2058547E+03  0.7818608E-02  0.1145110E+00
         21   -1    0    0  503  502  0.00000000000E+00  0.00000000000E+00  0.15292388192E+03  0.15292388192E+03  0.00000000000E+00 0.  1.
         21   -1    0    0  501  503 -0.00000000000E+00 -0.00000000000E+00 -0.27610224702E+03  0.27610224702E+03  0.00000000000E+00 0.  1.
          6    2    1    2  501    0  0.78465526995E+02  0.77594607375E+02 -0.70335669937E+02  0.21753910362E+03  0.17377684862E+03 0.  0.
         24    2    3    3    0    0  0.11439259290E+03  0.41846933933E+02 -0.31189635650E+02  0.15332732727E+03  0.87747619491E+02 0.  0.
         -6    2    1    2    0  502 -0.78465526995E+02 -0.77594607375E+02 -0.52842695158E+02  0.21148702532E+03  0.17250115776E+03 0.  0.
        -24    2    5    5    0    0  0.89710029024E+01 -0.63054202415E+02  0.10465985294E+02  0.10246111484E+03  0.79576578653E+02 0.  0.
          5    1    3    3  501    0 -0.35927065904E+02  0.35747673442E+02 -0.39146034286E+02  0.64211776344E+02  0.47000000000E+01 0. -1.
        -11    1    4    4    0    0  0.13972970844E+02  0.18622046934E+02  0.26448516607E+02  0.35235615177E+02  0.00000000000E+00 0.  1.
         12    1    4    4    0    0  0.10041962205E+03  0.23224887000E+02 -0.57638152257E+02  0.11809171209E+03  0.00000000000E+00 0. -1.
         -5    1    5    5    0  502 -0.87436529897E+02 -0.14540404960E+02 -0.63308680452E+02  0.10902591049E+03  0.47000000000E+01 0.  1.
         13    1    6    6    0    0 -0.21754375819E+02 -0.22585957535E+02  0.34182680564E+02  0.46387864745E+02  0.00000000000E+00 0. -1.
        -14    1    6    6    0    0  0.30725378722E+02 -0.40468244879E+02 -0.23716695270E+02  0.56073250091E+02  0.00000000000E+00 0.  1.
</event>
<event>
12    1  0.8562501E-002  0.1792811E+03  0.7818608E-02  0.1168643E+00
         21   -1    0    0  501  502  0.00000000000E+00  0.00000000000E+00  0.18832088286E+03  0.18832088286E+03  0.00000000000E+00 0. -1.
         21   -1    0    0  502  503 -0.00000000000E+00 -0.00000000000E+00 -0.17012776898E+03  0.17012776898E+03  0.00000000000E+00 0. -1.
         -6    2    1    2    0  503  0.47802966685E+02  0.13574339437E+02  0.78815707724E+01  0.17887122237E+03  0.17164908599E+03 0.  0.
        -24    2    3    3    0    0  0.13497092376E+02 -0.54466666538E+02 -0.18253612826E+02  0.98176679015E+02  0.78464492957E+02 0.  0.
          6    2    1    2  501    0 -0.47802966685E+02 -0.13574339437E+02  0.10311543109E+02  0.17957742946E+03  0.17225660781E+03 0.  0.
         24    2    5    5    0    0 -0.40718492581E+02 -0.28975340889E+02 -0.55177208200E+02  0.11176705291E+03  0.83365363279E+02 0.  0.
          5    1    5    5  501    0 -0.70844741045E+01  0.15401001452E+02  0.65488751309E+02  0.67810376545E+02  0.47000000000E+01 0. -1.
        -11    1    6    6    0    0 -0.27909553902E+02 -0.47416133489E+02 -0.31600968380E+01  0.55110971014E+02  0.00000000000E+00 0.  1.
         12    1    6    6    0    0 -0.12808938679E+02  0.18440792601E+02 -0.52017111362E+02  0.56656081900E+02  0.00000000000E+00 0. -1.
         -5    1    3    3    0  503  0.34305874309E+02  0.68041005975E+02  0.26135183598E+02  0.80694543359E+02  0.47000000000E+01 0.  1.
         11    1    4    4    0    0  0.45958656298E+02 -0.35378437258E+02 -0.48358287080E+01  0.58199803701E+02  0.00000000000E+00 0. -1.
        -12    1    4    4    0    0 -0.32461563922E+02 -0.19088229279E+02 -0.13417784118E+02  0.39976875314E+02  0.00000000000E+00 0.  1.
</event>
<event>
12    1  0.8562501E-002  0.1829962E+03  0.7818608E-02  0.1165479E+00
         21   -1    0    0  501  502  0.00000000000E+00  0.00000000000E+00  0.11885935130E+03  0.11885935130E+03  0.00000000000E+00 0. -1.
         21   -1    0    0  502  503 -0.00000000000E+00 -0.00000000000E+00 -0.54490323735E+03  0.54490323735E+03  0.00000000000E+00 0. -1.
         -6    2    1    2    0  503  0.63079289153E+02  0.30050182221E+01 -0.44450699101E+03  0.47983733768E+03  0.16932034350E+03 0.  0.
        -24    2    3    3    0    0  0.49686922872E+02  0.64108551919E+02 -0.32559905804E+03  0.34539707650E+03  0.81888321040E+02 0.  0.
          6    2    1    2  501    0 -0.63079289153E+02 -0.30050182221E+01  0.18463104964E+02  0.18392525097E+03  0.17175443180E+03 0.  0.
         24    2    5    5    0    0 -0.84681546185E+02  0.37561333694E+02  0.45313493283E+02  0.13049005873E+03  0.79953265725E+02 0.  0.
          5    1    5    5  501    0  0.21602257032E+02 -0.40566351916E+02 -0.26850388319E+02  0.53435192238E+02  0.47000000000E+01 0. -1.
        -13    1    6    6    0    0 -0.64854941771E+02  0.36958367445E+02 -0.65789277784E+01  0.74935750394E+02  0.00000000000E+00 0.  1.
         14    1    6    6    0    0 -0.19826604414E+02  0.60296624827E+00  0.51892421061E+02  0.55554308334E+02  0.00000000000E+00 0. -1.
         -5    1    3    3    0  503  0.13392366281E+02 -0.61103533697E+02 -0.11890793297E+03  0.13444026119E+03  0.47000000000E+01 0.  1.
         13    1    4    4    0    0  0.67792522194E+02  0.28236174291E+02 -0.23687898821E+03  0.24800153761E+03  0.00000000000E+00 0. -1.
        -14    1    4    4    0    0 -0.18105599322E+02  0.35872377628E+02 -0.88720069829E+02  0.97395538881E+02  0.00000000000E+00 0.  1.
</event>
<event>
12    1  0.8562501E-002  0.1868754E+03  0.7818608E-02  0.1163821E+00
         21   -1    0    0  503  502  0.00000000000E+00  0.00000000000E+00  0.11980611922E+03  0.11980611922E+03  0.00000000000E+00 0. -1.
         21   -1    0    0  501  503 -0.00000000000E+00 -0.00000000000E+00 -0.46109189241E+03  0.46109189241E+03  0.00000000000E+00 0. -1.
          6    2    1    2  501    0 -0.10944413716E+02  0.37691613751E+02 -0.35795453229E+03  0.40379927863E+03  0.18270734056E+03 0.  0.
         24    2    3    3    0    0  0.43262313397E+02  0.14274940737E+02 -0.32071064613E+03  0.33382852119E+03  0.80689288811E+02 0.  0.
         -6    2    1    2    0  502  0.10944413716E+02 -0.37691613751E+02  0.16668759100E+02  0.17709873300E+03  0.17188855622E+03 0.  0.
        -24    2    5    5    0    0  0.64358987729E+02 -0.19628448609E+02  0.45131743909E+02  0.11376133365E+03  0.79858696638E+02 0.  0.
          5    1    3    3  501    0 -0.54206727113E+02  0.23416673014E+02 -0.37243886162E+02  0.69970757433E+02  0.47000000000E+01 0. -1.
        -11    1    4    4    0    0  0.30654463398E+02  0.32165455826E+02 -0.75214329416E+02  0.87358502873E+02  0.00000000000E+00 0.  1.
         12    1    4    4    0    0  0.12607849999E+02 -0.17890515089E+02 -0.24549631671E+03  0.24647001832E+03  0.00000000000E+00 0. -1.
         -5    1    5    5    0  502 -0.53414574013E+02 -0.18063165141E+02 -0.28462984809E+02  0.63337399348E+02  0.47000000000E+01 0.  1.
         11    1    6    6    0    0  0.21353291840E+02  0.30345376825E+02  0.25309362675E+02  0.44915128922E+02  0.00000000000E+00 0. -1.
        -12    1    6    6    0    0  0.43005695889E+02 -0.49973825434E+02  0.19822381234E+02  0.68846204726E+02  0.00000000000E+00 0.  1.
</event>
<event>
12    1  0.8562501E-002  0.1765316E+03  0.7818608E-02  0.1174633E+00
         21   -1    0    0  501  502  0.00000000000E+00  0.00000000000E+00  0.24431525609E+02  0.24431525609E+02  0.00000000000E+00 0. -1.
         21   -1    0    0  502  503 -0.00000000000E+00 -0.00000000000E+00 -0.12201611132E+04  0.12201611132E+04  0.00000000000E+00 0. -1.
         -6    2    1    2    0  503 -0.48909619563E+02  0.69343872744E+01 -0.68589288675E+03  0.70505870248E+03  0.15562289429E+03 0.  0.
        -24    2    3    3    0    0  0.49791388752E+01 -0.39130197131E+02 -0.32555967727E+03  0.33778760904E+03  0.80965432135E+02 0.  0.
          6    2    1    2  501    0  0.48909619563E+02 -0.69343872744E+01 -0.50983670079E+03  0.53953393629E+03  0.16947911469E+03 0.  0.
         24    2    5    5    0    0 -0.32529124765E+02 -0.25358700476E+02 -0.31856831733E+03  0.33078190898E+03  0.78928390648E+02 0.  0.
          5    1    5    5  501    0  0.81438744329E+02  0.18424313202E+02 -0.19126838346E+03  0.20875202731E+03  0.47000000000E+01 0. -1.
        -11    1    6    6    0    0 -0.19097519176E+02  0.23871166405E+02 -0.61280688570E+02  0.68482630030E+02  0.00000000000E+00 0.  1.
         12    1    6    6    0    0 -0.13431605590E+02 -0.49229866881E+02 -0.25728762876E+03  0.26229927895E+03  0.00000000000E+00 0. -1.
         -5    1    3    3    0  503 -0.53888758439E+02  0.46064584405E+02 -0.36033320948E+03  0.36727109344E+03  0.47000000000E+01 0.  1.
         11    1    4    4    0    0  0.31552773970E+02  0.50933856972E+01 -0.19138295225E+03  0.19403338511E+03  0.00000000000E+00 0. -1.
        -12    1    4    4    0    0 -0.26573635095E+02 -0.44223582828E+02 -0.13417672502E+03  0.14375422393E+03  0.00000000000E+00 0.  1.
</event>
<event>
12    1  0.8562501E-002  0.2437665E+03  0.7818608E-02  0.1117799E+00
         21   -1    0    0  503  502  0.00000000000E+00  0.00000000000E+00  0.46544141475E+03  0.46544141475E+03  0.00000000000E+00 0. -1.
         21   -1    0    0  501  503 -0.00000000000E+00 -0.00000000000E+00 -0.19578196521E+03  0.19578196521E+03  0.00000000000E+00 0. -1.
          6    2    1    2  501    0  0.13772429029E+03 -0.98030336157E+02 -0.61856895414E+02  0.25149227236E+03  0.17562505687E+03 0.  0.
         24    2    3    3    0    0  0.13928255478E+03 -0.46800536369E+02 -0.90164268403E+02  0.19275286531E+03  0.86221525841E+02 0.  0.
         -6    2    1    2    0  502 -0.13772429029E+03  0.98030336157E+02  0.33151634495E+03  0.40973110761E+03  0.17146010214E+03 0.  0.
        -24    2    5    5    0    0 -0.16758363222E+03  0.74813304228E+02  0.24684174737E+03  0.31687375276E+03  0.76136867986E+02 0.  0.
          5    1    3    3  501    0 -0.15582644910E+01 -0.51229799789E+02  0.28307372989E+02  0.58739407046E+02  0.47000000000E+01 0. -1.
        -11    1    4    4    0    0 -0.89014353227E+01 -0.12186486383E+02  0.13999278902E+01  0.15156048273E+02  0.00000000000E+00 0.  1.
         12    1    4    4    0    0  0.14818399010E+03 -0.34614049986E+02 -0.91564196294E+02  0.17759681704E+03  0.00000000000E+00 0. -1.
         -5    1    5    5    0  502  0.29859341938E+02  0.23217031930E+02  0.84674597582E+02  0.92857354842E+02  0.47000000000E+01 0.  1.
         11    1    6    6    0    0 -0.14415732898E+03  0.88858582473E+02  0.19493127591E+03  0.25821577315E+03  0.00000000000E+00 0. -1.
        -12    1    6    6    0    0 -0.23426303247E+02 -0.14045278245E+02  0.51910471462E+02  0.58657979612E+02  0.00000000000E+00 0.  1.
</event>
<event>
12    1  0.8562501E-002  0.2022137E+03  0.7818608E-02  0.1148599E+00
         21   -1    0    0  501  502  0.00000000000E+00  0.00000000000E+00  0.90423362776E+02  0.90423362776E+02  0.00000000000E+00 0.  1.
         21   -1    0    0  502  503 -0.00000000000E+00 -0.00000000000E+00 -0.52500958325E+03  0.52500958325E+03  0.00000000000E+00 0.  1.
         -6    2    1    2    0  503  0.98861246624E+02 -0.17525856575E+02 -0.33613325678E+03  0.39052546243E+03  0.17159215820E+03 0.  0.
        -24    2    3    3    0    0  0.72183656940E+02 -0.13946302117E+02 -0.83773784822E+02  0.13669106742E+03  0.79129142653E+02 0.  0.
          6    2    1    2  501    0 -0.98861246624E+02  0.17525856575E+02 -0.98452963692E+02  0.22490748360E+03  0.17552688793E+03 0.  0.
         24    2    5    5    0    0 -0.64700250300E+02  0.15084591116E+01  0.17953394073E+02  0.10244907915E+03  0.77363373907E+02 0.  0.
          5    1    5    5  501    0 -0.34160996324E+02  0.16017397464E+02 -0.11640635777E+03  0.12245840445E+03  0.47000000000E+01 0. -1.
        -11    1    6    6    0    0 -0.37556740006E+02  0.35469771486E+02 -0.72988160374E+01  0.52171698504E+02  0.00000000000E+00 0.  1.
         12    1    6    6    0    0 -0.27143510294E+02 -0.33961312375E+02  0.25252210111E+02  0.50277380647E+02  0.00000000000E+00 0. -1.
         -5    1    3    3    0  503  0.26677589684E+02 -0.35795544580E+01 -0.25235947196E+03  0.25383439501E+03  0.47000000000E+01 0.  1.
         11    1    4    4    0    0 -0.10894324506E+02 -0.14708588751E+02  0.55317217183E+00  0.18312151401E+02  0.00000000000E+00 0. -1.
        -12    1    4    4    0    0  0.83077981446E+02  0.76228663359E+00 -0.84326956993E+02  0.11837891602E+03  0.00000000000E+00 0.  1.
</event>
<event>
12    1  0.8562501E-002  0.1791499E+03  0.7818608E-02  0.1168773E+00
         21   -1    0    0  501  502  0.00000000000E+00  0.00000000000E+00  0.10336230118E+03  0.10336230118E+03  0.00000000000E+00 0. -1.
         21   -1    0    0  502  503 -0.00000000000E+00 -0.00000000000E+00 -0.55427482087E+03  0.55427482087E+03  0.00000000000E+00 0. -1.
         -6    2    1    2    0  503 -0.19380257879E+02  0.44101604816E+02 -0.44418900270E+03  0.47895569195E+03  0.17255184377E+03 0.  0.
        -24    2    3    3    0    0 -0.47598492238E+01  0.95431723178E+02 -0.29923755072E+03  0.32441912401E+03  0.81085056006E+02 0.  0.
          6    2    1    2  501    0  0.19380257879E+02 -0.44101604816E+02 -0.67235169903E+01  0.17868143010E+03  0.17193400431E+03 0.  0.
         24    2    5    5    0    0  0.12846016348E+02 -0.78289308151E+02  0.41242038776E+02  0.11923162007E+03  0.78873554226E+02 0.  0.
          5    1    5    5  501    0  0.65342415313E+01  0.34187703335E+02 -0.47965555767E+02  0.59449810022E+02  0.47000000000E+01 0. -1.
        -13    1    6    6    0    0  0.42427211234E+01 -0.25173825234E+02 -0.23741696726E+02  0.34862448607E+02  0.00000000000E+00 0.  1.
         14    1    6    6    0    0  0.86032952245E+01 -0.53115482917E+02  0.64983735502E+02  0.84369171467E+02  0.00000000000E+00 0. -1.
         -5    1    3    3    0  503 -0.14620408655E+02 -0.51330118362E+02 -0.14495145198E+03  0.15453656794E+03  0.47000000000E+01 0.  1.
         13    1    4    4    0    0 -0.25130679127E+02  0.51239630776E+02 -0.71210985004E+02  0.91258178705E+02  0.00000000000E+00 0. -1.
        -14    1    4    4    0    0  0.20370829903E+02  0.44192092402E+02 -0.22802656572E+03  0.23316094530E+03  0.00000000000E+00 0.  1.
</event>
<event>
12    1  0.8562501E-002  0.1913277E+03  0.7818608E-02  0.1157276E+00
         21   -1    0    0  501  502  0.00000000000E+00  0.00000000000E+00  0.34024921012E+03  0.34024921012E+03  0.00000000000E+00 0.  1.
         21   -1    0    0  502  503 -0.00000000000E+00 -0.00000000000E+00 -0.12971685230E+03  0.12971685230E+03  0.00000000000E+00 0.  1.
         -6    2    1    2    0  503  0.29138261209E+01 -0.83860042939E+02  0.81792881191E+01  0.19150243167E+03  0.17194558267E+03 0.  0.
        -24    2    3    3    0    0  0.19430124450E+02  0.14865120224E+02  0.25263995399E+02  0.89848985224E+02  0.82680524592E+02 0.  0.
          6    2    1    2  501    0 -0.29138261209E+01  0.83860042939E+02  0.20235306971E+03  0.27846363074E+03  0.17191344230E+03 0.  0.
         24    2    5    5    0    0  0.24643756895E+02  0.11263332989E+03  0.10915758412E+03  0.17700028289E+03  0.78231325036E+02 0.  0.
          5    1    5    5  501    0 -0.27557583016E+02 -0.28773286950E+02  0.93195485587E+02  0.10146334785E+03  0.47000000000E+01 0. -1.
        -13    1    6    6    0    0 -0.23322109527E+02  0.12325619385E+02  0.32931211277E+02  0.42193676804E+02  0.00000000000E+00 0.  1.
         14    1    6    6    0    0  0.47965866422E+02  0.10030771050E+03  0.76226372844E+02  0.13480660609E+03  0.00000000000E+00 0. -1.
         -5    1    3    3    0  503 -0.16516298329E+02 -0.98725163163E+02 -0.17084707280E+02  0.10165344645E+03  0.47000000000E+01 0.  1.
         13    1    4    4    0    0 -0.23071953434E+02 -0.87621579383E+01  0.32369443805E+02  0.40704684488E+02  0.00000000000E+00 0. -1.
        -14    1    4    4    0    0  0.42502077883E+02  0.23627278163E+02 -0.71054484062E+01  0.49144300736E+02  0.00000000000E+00 0.  1.
</event>
<event>
12    1  0.8562501E-002  0.2176682E+03  0.7818608E-02  0.1135670E+00
         21   -1    0    0  501  502  0.00000000000E+00  0.00000000000E+00  0.62358751143E+02  0.62358751143E+02  0.00000000000E+00 0. -1.
         21   -1    0    0  502  503 -0.00000000000E+00 -0.00000000000E+00 -0.75963583086E+03  0.75963583086E+03  0.00000000000E+00 0. -1.
         -6    2    1    2    0  503  0.67495337173E+01 -0.13372837443E+03 -0.33810830628E+03  0.40211526095E+03  0.17161183521E+03 0.  0.
        -24    2    3    3    0    0  0.49649935458E+02 -0.35960051403E+02 -0.10297195771E+03  0.14383192453E+03  0.79537142585E+02 0.  0.
          6    2    1    2  501    0 -0.67495337173E+01  0.13372837443E+03 -0.35916877343E+03  0.41987932105E+03  0.17136978175E+03 0.  0.
         24    2    5    5    0    0 -0.67119663336E+01 -0.74059820770E+00 -0.16786062963E+03  0.18599301982E+03  0.79816122841E+02 0.  0.
          5    1    5    5  501    0 -0.37567383620E-01  0.13446897264E+03 -0.19130814380E+03  0.23388630122E+03  0.47000000000E+01 0. -1.
        -13    1    6    6    0    0  0.20600684120E+02 -0.16935173777E+02 -0.14353997803E+03  0.14599627937E+03  0.00000000000E+00 0.  1.
         14    1    6    6    0    0 -0.27312650453E+02  0.16194575569E+02 -0.24320651601E+02  0.39996740454E+02  0.00000000000E+00 0. -1.
         -5    1    3    3    0  503 -0.42900401741E+02 -0.97768323027E+02 -0.23513634857E+03  0.25828333643E+03  0.47000000000E+01 0.  1.
         11    1    4    4    0    0  0.13777800128E+02 -0.39557379701E+02 -0.99079602318E+02  0.10757035679E+03  0.00000000000E+00 0. -1.
        -12    1    4    4    0    0  0.35872135330E+02  0.35973282971E+01 -0.38923553916E+01  0.36261567734E+02  0.00000000000E+00 0.  1.
</event>
<event>
12    1  0.8562501E-002  0.3628028E+03  0.7818608E-02  0.1057523E+00
         21   -1    0    0  501  502  0.00000000000E+00  0.00000000000E+00  0.81219304860E+03  0.81219304860E+03  0.00000000000E+00 0.  1.
         21   -1    0    0  502  503 -0.00000000000E+00 -0.00000000000E+00 -0.20116473856E+03  0.20116473856E+03  0.00000000000E+00 0.  1.
         -6    2    1    2    0  503  0.27878283923E+03 -0.15594077344E+03  0.81405544066E+02  0.37138725889E+03  0.17106793152E+03 0.  0.
        -24    2    3    3    0    0  0.23786265028E+03 -0.72681213832E+02  0.87080533548E+02  0.27832323988E+03  0.89552260116E+02 0.  0.
          6    2    1    2  501    0 -0.27878283923E+03  0.15594077344E+03  0.52962276598E+03  0.64197052826E+03  0.17201304791E+03 0.  0.
         24    2    5    5    0    0 -0.27985597749E+03  0.16426875892E+03  0.53518719767E+03  0.63085477962E+03  0.79049497897E+02 0.  0.
          5    1    5    5  501    0  0.10731382663E+01 -0.83279854821E+01 -0.55644316952E+01  0.11115748649E+02  0.47000000000E+01 0. -1.
        -13    1    6    6    0    0 -0.18710623530E+03  0.85100040327E+02  0.27331341682E+03  0.34198097018E+03  0.00000000000E+00 0.  1.
         14    1    6    6    0    0 -0.92749742194E+02  0.79168718592E+02  0.26187378085E+03  0.28887380944E+03  0.00000000000E+00 0. -1.
         -5    1    3    3    0  503  0.40920188950E+02 -0.83259559604E+02 -0.56749894815E+01  0.93064019013E+02  0.47000000000E+01 0.  1.
         13    1    4    4    0    0  0.14323548903E+03 -0.23435722506E+02  0.76810289016E+01  0.14534316844E+03  0.00000000000E+00 0. -1.
        -14    1    4    4    0    0  0.94627161248E+02 -0.49245491326E+02  0.79399504646E+02  0.13298007144E+03  0.00000000000E+00 0.  1.
</event>
<event>
12    1  0.8562501E-002  0.1775003E+03  0.7818608E-02  0.1170437E+00
         21   -1    0    0  501  502  0.00000000000E+00  0.00000000000E+00  0.83371025061E+03  0.83371025061E+03  0.00000000000E+00 0. -1.
         21   -1    0    0  502  503 -0.00000000000E+00 -0.00000000000E+00 -0.68919433846E+02  0.68919433846E+02  0.00000000000E+00 0. -1.
         -6    2    1    2    0  503  0.16546747299E+01  0.44544737580E+02  0.77819839328E+02  0.19309781886E+03  0.17100838769E+03 0.  0.
        -24    2    3    3    0    0  0.25681928500E+02  0.10976355932E+02 -0.23240303542E+02  0.83830313865E+02  0.75547124187E+02 0.  0.
          6    2    1    2  501    0 -0.16546747299E+01 -0.44544737580E+02  0.68697097744E+03  0.70953186560E+03  0.17181202771E+03 0.  0.
         24    2    5    5    0    0  0.44309821554E+02 -0.55580132046E+02  0.60929371639E+03  0.61848044204E+03  0.78909524026E+02 0.  0.
          5    1    5    5  501    0 -0.45964496284E+02  0.11035394465E+02  0.77677261046E+02  0.91051423565E+02  0.47000000000E+01 0. -1.
        -11    1    6    6    0    0  0.50420404674E+02 -0.42374038181E+01  0.38462133455E+03  0.38793523143E+03  0.00000000000E+00 0.  1.
         12    1    6    6    0    0 -0.61105831206E+01 -0.51342728227E+02  0.22467238185E+03  0.23054521061E+03  0.00000000000E+00 0. -1.
         -5    1    3    3    0  503 -0.24027253770E+02  0.33568381648E+02  0.10106014287E+03  0.10926750499E+03  0.47000000000E+01 0.  1.
         11    1    4    4    0    0 -0.11723045727E+02  0.27426595530E+02 -0.30123792609E+02  0.42392108046E+02  0.00000000000E+00 0. -1.
        -12    1    4    4    0    0  0.37404974227E+02 -0.16450239597E+02  0.68834890665E+01  0.41438205819E+02  0.00000000000E+00 0.  1.
</event>
<event>
12    1  0.8562501E-002  0.2204207E+03  0.7818608E-02  0.1133842E+00
         21   -1    0    0  503  502  0.00000000000E+00  0.00000000000E+00  0.14528911125E+04  0.14528911125E+04  0.00000000000E+00 0. -1.
         21   -1    0    0  501  503 -0.00000000000E+00 -0.00000000000E+00 -0.10693546128E+03  0.10693546128E+03  0.00000000000E+00 0.  1.
          6    2    1    2  501    0  0.28747250011E+02  0.13403989311E+03  0.24747936873E+02  0.22035836184E+03  0.17074029965E+03 0.  0.
         24    2    3    3    0    0  0.36786240416E+02  0.16533232403E+03  0.29775855156E+02  0.18732487032E+03  0.74269782804E+02 0.  0.
         -6    2    1    2    0  502 -0.28747250011E+02 -0.13403989311E+03  0.13212077144E+04  0.13394682120E+04  0.17260408178E+03 0.  0.
        -24    2    5    5    0    0  0.37069682486E+02 -0.10151406532E+03  0.61683908986E+03  0.63126834804E+03  0.79561282317E+02 0.  0.
          5    1    3    3  501    0 -0.80389904044E+01 -0.31292430917E+02 -0.50279182827E+01  0.33033491515E+02  0.47000000000E+01 0. -1.
        -13    1    4    4    0    0 -0.22425308410E+02  0.58213993692E+02  0.63195278011E+01  0.62703269058E+02  0.00000000000E+00 0.  1.
         14    1    4    4    0    0  0.59211548826E+02  0.10711833034E+03  0.23456327355E+02  0.12462160126E+03  0.00000000000E+00 0. -1.
         -5    1    5    5    0  502 -0.65816932497E+02 -0.32525827796E+02  0.70436862452E+03  0.70819986394E+03  0.47000000000E+01 0.  1.
         11    1    6    6    0    0 -0.15788663251E+01 -0.40609136900E+01  0.24214462282E+03  0.24218381903E+03  0.00000000000E+00 0. -1.
        -12    1    6    6    0    0  0.38648548811E+02 -0.97453151626E+02  0.37469446705E+03  0.38908452902E+03  0.00000000000E+00 0.  1.
</event>
<event>
12    1  0.8562501E-002  0.1813165E+03  0.7818608E-02  0.1166997E+00
         21   -1    0    0  503  502  0.00000000000E+00  0.00000000000E+00  0.22874691614E+03  0.22874691614E+03  0.00000000000E+00 0. -1.
         21   -1    0    0  501  503 -0.00000000000E+00 -0.00000000000E+00 -0.14799633932E+03  0.14799633932E+03  0.00000000000E+00 0. -1.
          6    2    1    2  501    0  0.52768008234E+02 -0.85253909974E+01  0.29022675271E+01  0.17942109408E+03  0.17124941127E+03 0.  0.
         24    2    3    3    0    0  0.91198291543E+02 -0.30056236642E+02  0.29153412094E+02  0.12792666156E+03  0.79339798082E+02 0.  0.
         -6    2    1    2    0  502 -0.52768008234E+02  0.85253909974E+01  0.77848309292E+02  0.19732216139E+03  0.17325856726E+03 0.  0.
        -24    2    5    5    0    0 -0.34459768510E+02 -0.58855195238E+02  0.72624860189E+02  0.12714588716E+03  0.78995548312E+02 0.  0.
          5    1    3    3  501    0 -0.38430283309E+02  0.21530845644E+02 -0.26251144567E+02  0.51494432518E+02  0.47000000000E+01 0. -1.
        -11    1    4    4    0    0  0.64514480100E+02 -0.15826293062E+02  0.56461286281E+02  0.87180654638E+02  0.00000000000E+00 0.  1.
         12    1    4    4    0    0  0.26683811443E+02 -0.14229943580E+02 -0.27307874187E+02  0.40746006921E+02  0.00000000000E+00 0. -1.
         -5    1    5    5    0  502 -0.18308239724E+02  0.67380586236E+02  0.52234491032E+01  0.70176274223E+02  0.47000000000E+01 0.  1.
         13    1    6    6    0    0 -0.36333331195E+01  0.14906780194E+02  0.36154817288E+02  0.39275743385E+02  0.00000000000E+00 0. -1.
        -14    1    6    6    0    0 -0.30826435391E+02 -0.73761975433E+02  0.36470042901E+02  0.87870143780E+02  0.00000000000E+00 0.  1.
</event>
<event>
12    1  0.8562501E-002  0.1995682E+03  0.7818608E-02  0.1150209E+00
         21   -1    0    0  503  502  0.00000000000E+00  0.00000000000E+00  0.56934599667E+02  0.56934599667E+02  0.00000000000E+00 0. -1.
         21   -1    0    0  501  503 -0.00000000000E+00 -0.00000000000E+00 -0.10613986607E+04  0.10613986607E+04  0.00000000000E+00 0.  1.
          6    2    1    2  501    0  0.88043935915E+02 -0.49139296452E+02 -0.82910067535E+03  0.85266468671E+03  0.17164711761E+03 0.  0.
         24    2    3    3    0    0  0.12107790193E+03 -0.34624583747E+02 -0.76161659404E+03  0.77599584671E+03  0.79063251037E+02 0.  0.
         -6    2    1    2    0  502 -0.88043935915E+02  0.49139296452E+02 -0.17536338572E+03  0.26566857370E+03  0.17222389176E+03 0.  0.
        -24    2    5    5    0    0 -0.54911809634E+02  0.42807218844E+01 -0.18468977046E+03  0.20893145220E+03  0.80674710956E+02 0.  0.
          5    1    3    3  501    0 -0.33033966015E+02 -0.14514712705E+02 -0.67484081309E+02  0.76668839992E+02  0.47000000000E+01 0. -1.
        -13    1    4    4    0    0  0.20008647268E+02 -0.35572558094E+02 -0.12745805870E+03  0.13383314083E+03  0.00000000000E+00 0.  1.
         14    1    4    4    0    0  0.10106925466E+03  0.94797434705E+00 -0.63415853534E+03  0.64216270589E+03  0.00000000000E+00 0. -1.
         -5    1    5    5    0  502 -0.33132126281E+02  0.44858574567E+02  0.93263847362E+01  0.56737121502E+02  0.47000000000E+01 0.  1.
         13    1    6    6    0    0 -0.20322019975E+02  0.40658717229E+02 -0.66787054216E+02  0.80787538602E+02  0.00000000000E+00 0. -1.
        -14    1    6    6    0    0 -0.34589789659E+02 -0.36377995344E+02 -0.11790271624E+03  0.12814391360E+03  0.00000000000E+00 0.  1.
</event>
<event>
12    1  0.8562501E-002  0.3659843E+03  0.7818608E-02  0.1056288E+00
         21   -1    0    0  501  502  0.00000000000E+00  0.00000000000E+00  0.85977827151E+02  0.85977827151E+02  0.00000000000E+00 0.  1.
         21   -1    0    0  502  503 -0.00000000000E+00 -0.00000000000E+00 -0.21489988090E+04  0.21489988090E+04  0.00000000000E+00 0. -1.
         -6    2    1    2    0  503 -0.24888163929E+03  0.20540067738E+03 -0.16181372456E+04  0.16588984461E+04  0.17159370665E+03 0.  0.
        -24    2    3    3    0    0 -0.11616666780E+03  0.11718215724E+03 -0.57360876571E+03  0.60227287084E+03  0.80493739904E+02 0.  0.
          6    2    1    2  501    0  0.24888163929E+03 -0.20540067738E+03 -0.44488373626E+03  0.57607819008E+03  0.17266451186E+03 0.  0.
         24    2    5    5    0    0  0.19835736724E+03 -0.20332000947E+03 -0.29312530257E+03  0.41604774473E+03  0.80551918008E+02 0.  0.
          5    1    5    5  501    0  0.50524272055E+02 -0.20806679069E+01 -0.15175843369E+03  0.16003044535E+03  0.47000000000E+01 0. -1.
        -13    1    6    6    0    0  0.34075617043E+02 -0.86643183249E+02 -0.80052429457E+02  0.12278672706E+03  0.00000000000E+00 0.  1.
         14    1    6    6    0    0  0.16428175020E+03 -0.11667682622E+03 -0.21307287312E+03  0.29326101767E+03  0.00000000000E+00 0. -1.
         -5    1    3    3    0  503 -0.13271497149E+03  0.88218520143E+02 -0.10445284799E+04  0.10566255753E+04  0.47000000000E+01 0.  1.
         11    1    4    4    0    0 -0.32265884664E+02  0.93466587469E+01 -0.23092512499E+03  0.23335565280E+03  0.00000000000E+00 0. -1.
        -12    1    4    4    0    0 -0.83900783140E+02  0.10783549849E+03 -0.34268364073E+03  0.36891721804E+03  0.00000000000E+00 0.  1.
</event>
<event>
12    1  0.8562501E-002  0.2164895E+03  0.7818608E-02  0.1136596E+00
         21   -1    0    0  503  502  0.00000000000E+00  0.00000000000E+00  0.16799457245E+04  0.16799457245E+04  0.00000000000E+00 0.  1.
         21   -1    0    0  501  503 -0.00000000000E+00 -0.00000000000E+00 -0.29549740339E+02  0.29549740339E+02  0.00000000000E+00 0. -1.
          6    2    1    2  501    0  0.39088747760E+02  0.12681757545E+03  0.10294301250E+04  0.10518737770E+04  0.17059142121E+03 0.  0.
         24    2    3    3    0    0  0.71196010118E+02  0.13846190745E+03  0.74478950565E+03  0.76515293907E+03  0.80666230613E+02 0.  0.
         -6    2    1    2    0  502 -0.39088747760E+02 -0.12681757545E+03  0.62096585920E+03  0.65762168781E+03  0.17104694776E+03 0.  0.
        -24    2    5    5    0    0 -0.57028434577E+02 -0.69892403238E+02  0.19626053846E+03  0.22871726132E+03  0.75207687696E+02 0.  0.
          5    1    3    3  501    0 -0.32107262357E+02 -0.11644332003E+02  0.28464061932E+03  0.28672083798E+03  0.47000000000E+01 0. -1.
        -13    1    4    4    0    0 -0.11695153571E+02  0.57678865374E+02  0.21859731145E+03  0.22638112267E+03  0.00000000000E+00 0.  1.
         14    1    4    4    0    0  0.82891163689E+02  0.80783042078E+02  0.52619219420E+03  0.53877181640E+03  0.00000000000E+00 0. -1.
         -5    1    5    5    0  502  0.17939686817E+02 -0.56925172211E+02  0.42470532074E+03  0.42890442649E+03  0.47000000000E+01 0.  1.
         13    1    6    6    0    0 -0.59555489855E+01 -0.65778576250E+02  0.11639436558E+03  0.13382801649E+03  0.00000000000E+00 0. -1.
        -14    1    6    6    0    0 -0.51072885591E+02 -0.41138269875E+01  0.79866172878E+02  0.94889244834E+02  0.00000000000E+00 0.  1.
</event>
<event>
12    1  0.8562501E-002  0.2893995E+03  0.7818608E-02  0.1091124E+00
         21   -1    0    0  501  502  0.00000000000E+00  0.00000000000E+00  0.30343125352E+04  0.30343125352E+04  0.00000000000E+00 0.  1.
         21   -1    0    0  502  503 -0.00000000000E+00 -0.00000000000E+00 -0.27283174718E+02  0.27283174718E+02  0.00000000000E+00 0. -1.
         -6    2    1    2    0  503  0.10007747965E+02 -0.23268133951E+03  0.14778822381E+04  0.15059508546E+04  0.17178855067E+03 0.  0.
        -24    2    3    3    0    0 -0.38968109421E+02 -0.90232142158E+02  0.46408226385E+03  0.48101042408E+03  0.79613613268E+02 0.  0.
          6    2    1    2  501    0 -0.10007747965E+02  0.23268133951E+03  0.15291471224E+04  0.15556448553E+04  0.16582892711E+03 0.  0.
         24    2    5    5    0    0  0.20040820160E+02  0.13068562109E+03  0.57050726289E+03  0.59111465190E+03  0.80359371824E+02 0.  0.
          5    1    5    5  501    0 -0.30048568124E+02  0.10199571843E+03  0.95863985955E+03  0.96453020344E+03  0.47000000000E+01 0. -1.
        -13    1    6    6    0    0 -0.75735684563E+01  0.42494553085E+01  0.16990362591E+03  0.17012542111E+03  0.00000000000E+00 0.  1.
         14    1    6    6    0    0  0.27614388616E+02  0.12643616578E+03  0.40060363698E+03  0.42098923079E+03  0.00000000000E+00 0. -1.
         -5    1    3    3    0  503  0.48975857385E+02 -0.14244919736E+03  0.10137999742E+04  0.10249404305E+04  0.47000000000E+01 0.  1.
         13    1    4    4    0    0 -0.14719900443E+02 -0.14540313817E+02  0.16606086759E+02  0.26530328162E+02  0.00000000000E+00 0. -1.
        -14    1    4    4    0    0 -0.24248208978E+02 -0.75691828341E+02  0.44747617710E+03  0.45448009592E+03  0.00000000000E+00 0.  1.
</event>
<event>
12    1  0.8562501E-002  0.1727682E+03  0.7818608E-02  0.1175136E+00
         21   -1    0    0  503  502  0.00000000000E+00  0.00000000000E+00  0.27609193038E+03  0.27609193038E+03  0.00000000000E+00 0. -1.
         21   -1    0    0  501  503 -0.00000000000E+00 -0.00000000000E+00 -0.17989961692E+03  0.17989961692E+03  0.00000000000E+00 0. -1.
          6    2    1    2  501    0  0.17048364792E+02 -0.20307662709E+02 -0.96235744889E+02  0.19776294938E+03  0.17072146217E+03 0.  0.
         24    2    3    3    0    0 -0.19221048632E+02  0.44339072583E+02 -0.78742935844E+02  0.12145594379E+03  0.78839674458E+02 0.  0.
         -6    2    1    2    0  502 -0.17048364792E+02  0.20307662709E+02  0.19242805835E+03  0.25822859791E+03  0.17014818022E+03 0.  0.
        -24    2    5    5    0    0  0.55376502888E+02  0.95316411113E+01  0.66720083988E+02  0.11267424752E+03  0.71319753174E+02 0.  0.
          5    1    3    3  501    0  0.36269413424E+02 -0.64646735292E+02 -0.17492809045E+02  0.76307005591E+02  0.47000000000E+01 0. -1.
        -13    1    4    4    0    0  0.84112344692E+01  0.49973561006E+02 -0.78279552266E+02  0.93251241106E+02  0.00000000000E+00 0.  1.
         14    1    4    4    0    0 -0.27632283101E+02 -0.56344884233E+01 -0.46338357821E+00  0.28204702684E+02  0.00000000000E+00 0. -1.
         -5    1    5    5    0  502 -0.72424867680E+02  0.10776021598E+02  0.12570797436E+03  0.14555435039E+03  0.47000000000E+01 0.  1.
         13    1    6    6    0    0 -0.10708370809E+01  0.30542646958E+02  0.22938467776E+02  0.38212213743E+02  0.00000000000E+00 0. -1.
        -14    1    6    6    0    0  0.56447339969E+02 -0.21011005847E+02  0.43781616212E+02  0.74462033778E+02  0.00000000000E+00 0.  1.
</event>
<event>
12    1  0.8562501E-002  0.2132837E+03  0.7818608E-02  0.1139215E+00
         21   -1    0    0  501  502  0.00000000000E+00  0.00000000000E+00  0.51928255594E+02  0.51928255594E+02  0.00000000000E+00 0.  1.
         21   -1    0    0  502  503 -0.00000000000E+00 -0.00000000000E+00 -0.90452758492E+03  0.90452758492E+03  0.00000000000E+00 0. -1.
         -6    2    1    2    0  503  0.98060187449E+02  0.76065551573E+02 -0.51684845461E+03  0.55868886182E+03  0.17204403736E+03 0.  0.
        -24    2    3    3    0    0  0.11327787028E+03  0.48850559147E+02 -0.26286380614E+03  0.30275425036E+03  0.85700072979E+02 0.  0.
          6    2    1    2  501    0 -0.98060187449E+02 -0.76065551573E+02 -0.33575087471E+03  0.39776697869E+03  0.17345936403E+03 0.  0.
         24    2    5    5    0    0 -0.63232385227E+02  0.39337766105E+01 -0.26910420737E+03  0.28787277236E+03  0.80248672899E+02 0.  0.
          5    1    5    5  501    0 -0.34827802221E+02 -0.79999328183E+02 -0.66646667340E+02  0.10989420633E+03  0.47000000000E+01 0. -1.
        -11    1    6    6    0    0 -0.65836441505E+02 -0.26642755939E+02 -0.17387169378E+03  0.18781810183E+03  0.00000000000E+00 0.  1.
         12    1    6    6    0    0  0.26040562777E+01  0.30576532550E+02 -0.95232513587E+02  0.10005467054E+03  0.00000000000E+00 0. -1.
         -5    1    3    3    0  503 -0.15217682833E+02  0.27214992425E+02 -0.25398464848E+03  0.25593461147E+03  0.47000000000E+01 0.  1.
         13    1    4    4    0    0  0.32255992040E+02  0.50920805619E+02 -0.63539589077E+02  0.87582286151E+02  0.00000000000E+00 0. -1.
        -14    1    4    4    0    0  0.81021878241E+02 -0.20702464715E+01 -0.19932421706E+03  0.21517196421E+03  0.00000000000E+00 0.  1.
</event>
<event>
12    1  0.8562501E-002  0.1720829E+03  0.7818608E-02  0.1176026E+00
         21   -1    0    0  501  502  0.00000000000E+00  0.00000000000E+00  0.13974961210E+03  0.13974961210E+03  0.00000000000E+00 0. -1.
         21   -1    0    0  502  503 -0.00000000000E+00 -0.00000000000E+00 -0.65267897495E+03  0.65267897495E+03  0.00000000000E+00 0. -1.
         -6    2    1    2    0  503 -0.56373907448E+01  0.83861525893E+01 -0.58296879516E+03  0.60783645095E+03  0.17178599255E+03 0.  0.
        -24    2    3    3    0    0 -0.58498751491E+02 -0.18461402613E+02 -0.24838875559E+03  0.26801148489E+03  0.79813876065E+02 0.  0.
          6    2    1    2  501    0  0.56373907448E+01 -0.83861525893E+01  0.70039432306E+02  0.18459213611E+03  0.17048937476E+03 0.  0.
         24    2    5    5    0    0  0.33225206304E+02 -0.61111920632E+02  0.66104736155E+02  0.12477018347E+03  0.79744475447E+02 0.  0.
          5    1    5    5  501    0 -0.27587815560E+02  0.52725768043E+02  0.39346961511E+01  0.59821952633E+02  0.47000000000E+01 0. -1.
        -13    1    6    6    0    0 -0.20976291429E+02 -0.19768820315E+02 -0.13670313081E+01  0.28856192288E+02  0.00000000000E+00 0.  1.
         14    1    6    6    0    0  0.54201497733E+02 -0.41343100317E+02  0.67471767463E+02  0.95913991185E+02  0.00000000000E+00 0. -1.
         -5    1    3    3    0  503  0.52861360746E+02  0.26847555203E+02 -0.33458003957E+03  0.33982496606E+03  0.47000000000E+01 0.  1.
         13    1    4    4    0    0 -0.38413022558E+02  0.23616950531E+02 -0.67253114584E+02  0.80970995274E+02  0.00000000000E+00 0. -1.
        -14    1    4    4    0    0 -0.20085728933E+02 -0.42078353144E+02 -0.18113564101E+03  0.18704048961E+03  0.00000000000E+00 0.  1.
</event>
<event>
12    1  0.8562501E-002  0.2413936E+03  0.7818608E-02  0.1118973E+00
         21   -1    0    0  503  502  0.00000000000E+00  0.00000000000E+00  0.16428056636E+03  0.16428056636E+03  0.00000000000E+00 0.  1.
         21   -1    0    0  501  503 -0.00000000000E+00 -0.00000000000E+00 -0.47163729648E+03  0.47163729648E+03  0.00000000000E+00 0. -1.
          6    2    1    2  501    0 -0.14256029270E+03  0.92244148271E+02 -0.31277757629E+03  0.39509579970E+03  0.17157639338E+03 0.  0.
         24    2    3    3    0    0 -0.42993323010E+02 -0.36829445263E+01 -0.71082955690E+02  0.11661066866E+03  0.81751278591E+02 0.  0.
         -6    2    1    2    0  502  0.14256029270E+03 -0.92244148271E+02  0.54208461687E+01  0.24082206314E+03  0.17068526760E+03 0.  0.
        -24    2    5    5    0    0  0.17987774103E+02 -0.76707195621E+02  0.21968246002E+02  0.11411130697E+03  0.79569043408E+02 0.  0.
          5    1    3    3  501    0 -0.99566969689E+02  0.95927092798E+02 -0.24169462060E+03  0.27848513104E+03  0.47000000000E+01 0. -1.
        -11    1    4    4    0    0 -0.36097539020E+02 -0.27389917366E+02 -0.78665766527E+02  0.90782942891E+02  0.00000000000E+00 0.  1.
         12    1    4    4    0    0 -0.68957839905E+01  0.23706972840E+02  0.75828108368E+01  0.25827725767E+02  0.00000000000E+00 0. -1.
         -5    1    5    5    0  502  0.12457251860E+03 -0.15536952650E+02 -0.16547399834E+02  0.12671075617E+03  0.47000000000E+01 0.  1.
         11    1    6    6    0    0  0.25783425929E+02 -0.62296175853E+02 -0.18950891908E+02  0.70033812424E+02  0.00000000000E+00 0. -1.
        -12    1    6    6    0    0 -0.77956518263E+01 -0.14411019768E+02  0.40919137910E+02  0.44077494546E+02  0.00000000000E+00 0.  1.
</event>
<event>
12    1  0.8562501E-002  0.1881371E+03  0.7818608E-02  0.1160156E+00
         21   -1    0    0  501  502  0.00000000000E+00  0.00000000000E+00  0.74285154117E+02  0.74285154117E+02  0.00000000000E+00 0. -1.
         21   -1    0    0  502  503 -0.00000000000E+00 -0.00000000000E+00 -0.60365298899E+03  0.60365298899E+03  0.00000000000E+00 0.  1.
         -6    2    1    2    0  503  0.60254240993E+02  0.45893670187E+02 -0.42029663400E+03  0.46048325344E+03  0.17221719899E+03 0.  0.
        -24    2    3    3    0    0 -0.59202191915E+01  0.88460957763E+01 -0.34372271894E+03  0.35260723007E+03  0.77931051447E+02 0.  0.
          6    2    1    2  501    0 -0.60254240993E+02 -0.45893670187E+02 -0.10907120087E+03  0.21745488966E+03  0.17220133465E+03 0.  0.
         24    2    5    5    0    0 -0.54369845838E+02 -0.84833257703E+02 -0.12022896542E+03  0.17625412156E+03  0.80360123771E+02 0.  0.
          5    1    5    5  501    0 -0.58843951556E+01  0.38939587516E+02  0.11157764549E+02  0.41200768099E+02  0.47000000000E+01 0. -1.
        -13    1    6    6    0    0  0.17375835805E+02 -0.31030300473E+01 -0.30602806168E+02  0.35328178707E+02  0.00000000000E+00 0.  1.
         14    1    6    6    0    0 -0.71745681643E+02 -0.81730227655E+02 -0.89626159252E+02  0.14092594285E+03  0.00000000000E+00 0. -1.
         -5    1    3    3    0  503  0.66174460185E+02  0.37047574411E+02 -0.76573915061E+02  0.10787602337E+03  0.47000000000E+01 0.  1.
         11    1    4    4    0    0 -0.29240959803E+02 -0.54018109461E+00 -0.50872041816E+02  0.58679554909E+02  0.00000000000E+00 0. -1.
        -12    1    4    4    0    0  0.23320740612E+02  0.93862768709E+01 -0.29285067712E+03  0.29392767516E+03  0.00000000000E+00 0.  1.
</event>
<event>
12    1  0.8562501E-002  0.1781661E+03  0.7818608E-02  0.1170749E+00
         21   -1    0    0  501  502  0.00000000000E+00  0.00000000000E+00  0.61123797802E+02  0.61123797802E+02  0.00000000000E+00 0.  1.
         21   -1    0    0  502  503 -0.00000000000E+00 -0.00000000000E+00 -0.76354658795E+03  0.76354658795E+03  0.00000000000E+00 0.  1.
         -6    2    1    2    0  503  0.37159314005E+00 -0.24618148899E+02 -0.59383385904E+03  0.61998533343E+03  0.17645670910E+03 0.  0.
        -24    2    3    3    0    0  0.11568370411E+01  0.99593982390E+01 -0.12313262196E+03  0.14799172333E+03  0.81482388900E+02 0.  0.
          6    2    1    2  501    0 -0.37159314005E+00  0.24618148899E+02 -0.10858893110E+03  0.20468505232E+03  0.17175046826E+03 0.  0.
         24    2    5    5    0    0 -0.95539146791E+01  0.50096046276E+01  0.11806163085E+02  0.82268228551E+02  0.80698838393E+02 0.  0.
          5    1    5    5  501    0  0.91823215391E+01  0.19608544272E+02 -0.12039509419E+03  0.12241682377E+03  0.47000000000E+01 0. -1.
        -11    1    6    6    0    0  0.30258671530E+02  0.19439775536E+02 -0.57579710395E+01  0.36423156181E+02  0.00000000000E+00 0.  1.
         12    1    6    6    0    0 -0.39812586210E+02 -0.14430170908E+02  0.17564134125E+02  0.45845072371E+02  0.00000000000E+00 0. -1.
         -5    1    3    3    0  503 -0.78524390101E+00 -0.34577547138E+02 -0.47070123709E+03  0.47199361009E+03  0.47000000000E+01 0.  1.
         11    1    4    4    0    0 -0.39308548568E+02  0.87652695562E+01 -0.74726670752E+02  0.84888557901E+02  0.00000000000E+00 0. -1.
        -12    1    4    4    0    0  0.40465385609E+02  0.11941286828E+01 -0.48405951203E+02  0.63103165433E+02  0.00000000000E+00 0.  1.
</event>
<event>
12    1  0.8562501E-002  0.1816250E+03  0.7818608E-02  0.1166353E+00
         21   -1    0    0  503  502  0.00000000000E+00  0.00000000000E+00  0.33087486335E+03  0.33087486335E+03  0.00000000000E+00 0. -1.
         21   -1    0    0  501  503 -0.00000000000E+00 -0.00000000000E+00 -0.19796184686E+03  0.19796184686E+03  0.00000000000E+00 0.  1.
          6    2    1    2  501    0  0.57791829363E+02  0.82879129186E+01 -0.12012690809E+03  0.21736143788E+03  0.17148450539E+03 0.  0.
         24    2    3    3    0    0  0.15739032857E+02  0.19628374060E+02  0.58633295211E+01  0.83972256441E+02  0.79899755915E+02 0.  0.
         -6    2    1    2    0  502 -0.57791829363E+02 -0.82879129186E+01  0.25303992458E+03  0.31147527233E+03  0.17198562963E+03 0.  0.
        -24    2    5    5    0    0 -0.55133876737E+02 -0.15245867326E+02  0.55291950992E+02  0.11353126788E+03  0.80993630036E+02 0.  0.
          5    1    3    3  501    0  0.42052796506E+02 -0.11340461141E+02 -0.12599023761E+03  0.13338918144E+03  0.47000000000E+01 0. -1.
        -11    1    4    4    0    0  0.45712121612E+02  0.17949975052E+02 -0.98504754938E+01  0.50088237482E+02  0.00000000000E+00 0.  1.
         12    1    4    4    0    0 -0.29973088755E+02  0.16783990077E+01  0.15713805015E+02  0.33884018959E+02  0.00000000000E+00 0. -1.
         -5    1    5    5    0  502 -0.26579526260E+01  0.69579544077E+01  0.19774797359E+03  0.19794400445E+03  0.47000000000E+01 0.  1.
         13    1    6    6    0    0 -0.71824570535E+02  0.10557842044E+01  0.54534730395E+02  0.90188249966E+02  0.00000000000E+00 0. -1.
        -14    1    6    6    0    0  0.16690693798E+02 -0.16301651531E+02  0.75722059713E+00  0.23343017909E+02  0.00000000000E+00 0.  1.
</event>
<event>
12    1  0.8562501E-002  0.3409615E+03  0.7818608E-02  0.1066598E+00
         21   -1    0    0  503  502  0.00000000000E+00  0.00000000000E+00  0.21483835275E+04  0.21483835275E+04  0.00000000000E+00 0. -1.
         21   -1    0    0  501  503 -0.00000000000E+00 -0.00000000000E+00 -0.74032666776E+02  0.74032666776E+02  0.00000000000E+00 0. -1.
          6    2    1    2  501    0 -0.95155239296E+02 -0.27768090457E+03  0.16203017049E+04  0.16557875421E+04  0.17347496964E+03 0.  0.
         24    2    3    3    0    0 -0.76560510287E+02 -0.29288258776E+03  0.14254998074E+04  0.14594543447E+04  0.79470505815E+02 0.  0.
         -6    2    1    2    0  502  0.95155239296E+02  0.27768090457E+03  0.45404915576E+03  0.56662865218E+03  0.16954701207E+03 0.  0.
        -24    2    5    5    0    0  0.60241579452E+02  0.26655924914E+03  0.35121874089E+03  0.45736365741E+03  0.10556528769E+03 0.  0.
          5    1    3    3  501    0 -0.18594729010E+02  0.15201683185E+02  0.19480189752E+03  0.19633319739E+03  0.47000000000E+01 0. -1.
        -11    1    4    4    0    0  0.15522943983E+02 -0.25914394112E+02  0.16012963621E+03  0.16295403648E+03  0.00000000000E+00 0.  1.
         12    1    4    4    0    0 -0.92083454270E+02 -0.26696819365E+03  0.12653701712E+04  0.12965003082E+04  0.00000000000E+00 0. -1.
         -5    1    5    5    0  502  0.34913659844E+02  0.11121655436E+02  0.10283041486E+03  0.10926499478E+03  0.47000000000E+01 0.  1.
         13    1    6    6    0    0 -0.20494618082E+01  0.15893994818E+03  0.25350858924E+03  0.29922017352E+03  0.00000000000E+00 0. -1.
        -14    1    6    6    0    0  0.62291041260E+02  0.10761930096E+03  0.97710151651E+02  0.15814348389E+03  0.00000000000E+00 0.  1.
</event>
<event>
12    1  0.8562501E-002  0.2212861E+03  0.7818608E-02  0.1133023E+00
         21   -1    0    0  503  502  0.00000000000E+00  0.00000000000E+00  0.61788410829E+02  0.61788410829E+02  0.00000000000E+00 0. -1.
         21   -1    0    0  501  503 -0.00000000000E+00 -0.00000000000E+00 -0.93177965079E+03  0.93177965079E+03  0.00000000000E+00 0. -1.
          6    2    1    2  501    0  0.11844512691E+03  0.71345168969E+02 -0.62875207406E+03  0.66655587147E+03  0.17276625229E+03 0.  0.
         24    2    3    3    0    0  0.79782175681E+02  0.10443956861E+03 -0.56077462971E+03  0.58150831991E+03  0.80068231833E+02 0.  0.
         -6    2    1    2    0  502 -0.11844512691E+03 -0.71345168969E+02 -0.24123916591E+03  0.32701219016E+03  0.17210826859E+03 0.  0.
        -24    2    5    5    0    0 -0.13960800913E+03 -0.16286620087E+02 -0.17346738213E+03  0.23704321737E+03  0.79642350728E+02 0.  0.
          5    1    3    3  501    0  0.38662951233E+02 -0.33094399646E+02 -0.67977444348E+02  0.85047551558E+02  0.47000000000E+01 0. -1.
        -13    1    4    4    0    0  0.69091089574E+01  0.56414343410E+02 -0.12845145230E+03  0.14046383708E+03  0.00000000000E+00 0.  1.
         14    1    4    4    0    0  0.72873066724E+02  0.48025225204E+02 -0.43232317740E+03  0.44104448283E+03  0.00000000000E+00 0. -1.
         -5    1    5    5    0  502  0.21162882213E+02 -0.55058548882E+02 -0.67771783774E+02  0.89968972788E+02  0.47000000000E+01 0.  1.
         13    1    6    6    0    0 -0.47028661931E+02 -0.35654277714E+02 -0.32755127586E+02  0.67496821743E+02  0.00000000000E+00 0. -1.
        -14    1    6    6    0    0 -0.92579347196E+02  0.19367657627E+02 -0.14071225455E+03  0.16954639562E+03  0.00000000000E+00 0.  1.
</event>
<event>
12    1  0.8562501E-002  0.1741170E+03  0.7818608E-02  0.1173698E+00
         21   -1    0    0  503  502  0.00000000000E+00  0.00000000000E+00  0.69469959096E+02  0.69469959096E+02  0.00000000000E+00 0. -1.
         21   -1    0    0  501  503 -0.00000000000E+00 -0.00000000000E+00 -0.45027858795E+03  0.45027858795E+03  0.00000000000E+00 0. -1.
          6    2    1    2  501    0  0.73987936037E+01  0.23813481783E+02 -0.23710579010E+03  0.29398932519E+03  0.17201378887E+03 0.  0.
         24    2    3    3    0    0 -0.52626549610E+02 -0.20025865343E+02 -0.10586251022E+03  0.14308598295E+03  0.78077771739E+02 0.  0.
         -6    2    1    2    0  502 -0.73987936037E+01 -0.23813481783E+02 -0.14370283875E+03  0.22575922186E+03  0.17232207150E+03 0.  0.
        -24    2    5    5    0    0  0.84813213209E+01 -0.30110940665E+02 -0.63729264276E+01  0.87291063580E+02  0.81243547625E+02 0.  0.
          5    1    3    3  501    0  0.60025343214E+02  0.43839347126E+02 -0.13124327988E+03  0.15090334223E+03  0.47000000000E+01 0. -1.
        -11    1    4    4    0    0 -0.52798931794E+02  0.19373879904E+02 -0.70129310962E+02  0.89895465276E+02  0.00000000000E+00 0.  1.
         12    1    4    4    0    0  0.17238218389E+00 -0.39399745247E+02 -0.35733199262E+02  0.53190517677E+02  0.00000000000E+00 0. -1.
         -5    1    5    5    0  502 -0.15880114925E+02  0.62974588821E+01 -0.13732991232E+03  0.13846815828E+03  0.47000000000E+01 0.  1.
         13    1    6    6    0    0 -0.27984002789E+02  0.12699939706E+02 -0.41625731556E+01  0.31011609050E+02  0.00000000000E+00 0. -1.
        -14    1    6    6    0    0  0.36465324110E+02 -0.42810880371E+02 -0.22103532720E+01  0.56279454530E+02  0.00000000000E+00 0.  1.
</event>
<event>
12    1  0.8562501E-002  0.2071657E+03  0.7818608E-02  0.1143915E+00
         21   -1    0    0  501  502  0.00000000000E+00  0.00000000000E+00  0.19163939931E+02  0.19163939931E+02  0.00000000000E+00 0. -1.
         21   -1    0    0  502  503 -0.00000000000E+00 -0.00000000000E+00 -0.22393664083E+04  0.22393664083E+04  0.00000000000E+00 0. -1.
         -6    2    1    2    0  503 -0.11475870437E+03 -0.82680685716E+01 -0.10589575724E+04  0.10789510431E+04  0.17177395636E+03 0.  0.
        -24    2    3    3    0    0 -0.58659720876E+02 -0.37998836893E+02 -0.90271404014E+03  0.91023487343E+03  0.93541499295E+02 0.  0.
          6    2    1    2  501    0  0.11475870437E+03  0.82680685716E+01 -0.11612448961E+04  0.11795793052E+04  0.17227799478E+03 0.  0.
         24    2    5    5    0    0  0.31378353227E+02 -0.53231004124E+02 -0.46387191641E+03  0.47453634082E+03  0.78673013636E+02 0.  0.
          5    1    5    5  501    0  0.83380351144E+02  0.61499072696E+02 -0.69737297965E+03  0.70504296440E+03  0.47000000000E+01 0. -1.
        -11    1    6    6    0    0  0.33809016147E+01  0.99392430437E+01 -0.24032889086E+03  0.24055809035E+03  0.00000000000E+00 0.  1.
         12    1    6    6    0    0  0.27997451613E+02 -0.63170247168E+02 -0.22354302555E+03  0.23397825047E+03  0.00000000000E+00 0. -1.
         -5    1    3    3    0  503 -0.56098983496E+02  0.29730768321E+02 -0.15624353222E+03  0.16871616963E+03  0.47000000000E+01 0.  1.
         11    1    4    4    0    0 -0.74673704130E+02 -0.21934651320E+02 -0.43065213921E+03  0.43762833092E+03  0.00000000000E+00 0. -1.
        -12    1    4    4    0    0  0.16013983254E+02 -0.16064185573E+02 -0.47206190092E+03  0.47260654251E+03  0.00000000000E+00 0.  1.
</event>
<event>
12    1  0.8562501E-002  0.1900705E+03  0.7818608E-02  0.1158891E+00
         21   -1    0    0  503  502  0.00000000000E+00  0.00000000000E+00  0.91885576876E+03  0.91885576876E+03  0.00000000000E+00 0.  1.
         21   -1    0    0  501  503 -0.00000000000E+00 -0.00000000000E+00 -0.73596389721E+02  0.73596389721E+02  0.00000000000E+00 0. -1.
          6    2    1    2  501    0 -0.61604534166E+02  0.50801217363E+02  0.83046140515E+02  0.20742098119E+03  0.17248454907E+03 0.  0.
         24    2    3    3    0    0  0.20048404231E+02  0.14018656984E+02  0.89795773905E+02  0.11748874755E+03  0.71706788612E+02 0.  0.
         -6    2    1    2    0  502  0.61604534166E+02 -0.50801217363E+02  0.76221323852E+03  0.78503117729E+03  0.17008540803E+03 0.  0.
        -24    2    5    5    0    0 -0.24814104950E+02 -0.23316134342E+02  0.50555034163E+03  0.51277845717E+03  0.78747801772E+02 0.  0.
          5    1    3    3  501    0 -0.81652938397E+02  0.36782560379E+02 -0.67496333908E+01  0.89932233642E+02  0.47000000000E+01 0. -1.
        -13    1    4    4    0    0  0.31111488906E+02 -0.22551729983E+00  0.93961234699E+02  0.98978226020E+02  0.00000000000E+00 0.  1.
         14    1    4    4    0    0 -0.11063084675E+02  0.14244174284E+02 -0.41654607935E+01  0.18510521526E+02  0.00000000000E+00 0. -1.
         -5    1    5    5    0  502  0.86418639115E+02 -0.27485083020E+02  0.25666289689E+03  0.27225272013E+03  0.47000000000E+01 0.  1.
         13    1    6    6    0    0  0.62446983946E+01 -0.20133087377E+01  0.78274662372E+00  0.66077501761E+01  0.00000000000E+00 0. -1.
        -14    1    6    6    0    0 -0.31058803344E+02 -0.21302825605E+02  0.50476759501E+03  0.50617070699E+03  0.00000000000E+00 0.  1.
</event>
<event>
12    1  0.8562501E-002  0.1893960E+03  0.7818608E-02  0.1159334E+00
         21   -1    0    0  501  502  0.00000000000E+00  0.00000000000E+00  0.51650859750E+02  0.51650859750E+02  0.00000000000E+00 0.  1.
         21   -1    0    0  502  503 -0.00000000000E+00 -0.00000000000E+00 -0.69764114082E+03  0.69764114082E+03  0.00000000000E+00 0.  1.
         -6    2    1    2    0  503  0.74426092531E+02  0.22393083041E+02 -0.28063449449E+03  0.33776352103E+03  0.17113673840E+03 0.  0.
        -24    2    3    3    0    0  0.13429380831E+02 -0.12246632376E+02 -0.24530349200E+03  0.25908138546E+03  0.81357438688E+02 0.  0.
          6    2    1    2  501    0 -0.74426092531E+02 -0.22393083041E+02 -0.36535578659E+03  0.41152847954E+03  0.17271405635E+03 0.  0.
         24    2    5    5    0    0  0.25139178928E+02 -0.27270836951E+02 -0.13477617025E+03  0.16027942932E+03  0.78416851071E+02 0.  0.
          5    1    5    5  501    0 -0.99565271458E+02  0.48777539093E+01 -0.23057961634E+03  0.25124905022E+03  0.47000000000E+01 0. -1.
        -13    1    6    6    0    0 -0.28096123430E+02 -0.12400908542E+02 -0.38310810218E+02  0.49100843822E+02  0.00000000000E+00 0.  1.
         14    1    6    6    0    0  0.53235302358E+02 -0.14869928408E+02 -0.96465360030E+02  0.11117858550E+03  0.00000000000E+00 0. -1.
         -5    1    3    3    0  503  0.60996711699E+02  0.34639715417E+02 -0.35331002490E+02  0.78682135579E+02  0.47000000000E+01 0.  1.
         11    1    4    4    0    0 -0.27599424595E+02  0.16032120585E+02 -0.72028298462E+02  0.78783455799E+02  0.00000000000E+00 0. -1.
        -12    1    4    4    0    0  0.41028805426E+02 -0.28278752961E+02 -0.17327519354E+03  0.18029792966E+03  0.00000000000E+00 0.  1.
</event>
<event>
12    1  0.8562501E-002  0.2370016E+03  0.7818608E-02  0.1122091E+00
         21   -1    0    0  503  502  0.00000000000E+00  0.00000000000E+00  0.27309180471E+03  0.27309180471E+03  0.00000000000E+00 0.  1.
         21   -1    0    0  501  503 -0.00000000000E+00 -0.00000000000E+00 -0.21106420915E+03  0.21106420915E+03  0.00000000000E+00 0. -1.
          6    2    1    2  501    0  0.14875853952E+01 -0.16129357504E+03 -0.12648984090E+02  0.23566790763E+03  0.17135208091E+03 0.  0.
         24    2    3    3    0    0  0.53312545961E+02 -0.96459342885E+02  0.35441714723E+02  0.13962567990E+03  0.78054999567E+02 0.  0.
         -6    2    1    2    0  502 -0.14875853952E+01  0.16129357504E+03  0.74676579646E+02  0.24848810623E+03  0.17364307395E+03 0.  0.
        -24    2    5    5    0    0  0.45310384670E+02  0.33739531932E+02  0.51351987777E+02  0.11055257599E+03  0.79959104776E+02 0.  0.
          5    1    3    3  501    0 -0.51824960566E+02 -0.64834232153E+02 -0.48090698812E+02  0.96042227738E+02  0.47000000000E+01 0. -1.
        -11    1    4    4    0    0 -0.46213878264E+01 -0.22040328203E+02  0.39235159391E+02  0.45238601052E+02  0.00000000000E+00 0.  1.
         12    1    4    4    0    0  0.57933933787E+02 -0.74419014682E+02 -0.37934446682E+01  0.94387078844E+02  0.00000000000E+00 0. -1.
         -5    1    5    5    0  502 -0.46797970065E+02  0.12755404311E+03  0.23324591870E+02  0.13793553023E+03  0.47000000000E+01 0.  1.
         13    1    6    6    0    0  0.31739012606E+02  0.47899509651E+02  0.20552993615E+01  0.57497410389E+02  0.00000000000E+00 0. -1.
        -14    1    6    6    0    0  0.13571372063E+02 -0.14159977719E+02  0.49296688415E+02  0.53055165605E+02  0.00000000000E+00 0.  1.
</event>
<event>
12    1  0.8562501E-002  0.1809127E+03  0.7818608E-02  0.1167899E+00
         21   -1    0    0  503  502  0.00000000000E+00  0.00000000000E+00  0.12601818465E+03  0.12601818465E+03  0.00000000000E+00 0. -1.
         21   -1    0    0  501  503 -0.00000000000E+00 -0.00000000000E+00 -0.25420288772E+03  0.25420288772E+03  0.00000000000E+00 0. -1.
          6    2    1    2  501    0 -0.43224135689E+02 -0.35772920379E+01 -0.70302060035E+02  0.19409222052E+03  0.17563680564E+03 0.  0.
         24    2    3    3    0    0 -0.34080503286E+02  0.34631515251E+02 -0.10599973578E+03  0.14080119856E+03  0.78919015316E+02 0.  0.
         -6    2    1    2    0  502  0.43224135689E+02  0.35772920379E+01 -0.57882643031E+02  0.18612885185E+03  0.17150051371E+03 0.  0.
        -24    2    5    5    0    0  0.45618595190E+02  0.68652732922E+02 -0.57446563565E+02  0.12083852632E+03  0.67138571730E+02 0.  0.
          5    1    3    3  501    0 -0.91436324029E+01 -0.38208807289E+02  0.35697675740E+02  0.53291021957E+02  0.47000000000E+01 0. -1.
        -13    1    4    4    0    0  0.73219736496E+01 -0.64564874980E+01 -0.73267173407E+02  0.73914655028E+02  0.00000000000E+00 0.  1.
         14    1    4    4    0    0 -0.41402476936E+02  0.41088002749E+02 -0.32732562369E+02  0.66886543531E+02  0.00000000000E+00 0. -1.
         -5    1    5    5    0  502 -0.23944595011E+01 -0.65075440884E+02 -0.43607946566E+00  0.65290325530E+02  0.47000000000E+01 0.  1.
         13    1    6    6    0    0  0.61542478722E+02  0.54704190210E+02 -0.33549008767E+02  0.88913222318E+02  0.00000000000E+00 0. -1.
        -14    1    6    6    0    0 -0.15923883532E+02  0.13948542712E+02 -0.23897554798E+02  0.31925304006E+02  0.00000000000E+00 0.  1.
</event>
<event>
12    1  0.8562501E-002  0.2252950E+03  0.7818608E-02  0.1130334E+00
         21   -1    0    0  501  502  0.00000000000E+00  0.00000000000E+00  0.56126650354E+02  0.56126650354E+02  0.00000000000E+00 0.  1.
         21   -1    0    0  502  503 -0.00000000000E+00 -0.00000000000E+00 -0.11099316095E+04  0.11099316095E+04  0.00000000000E+00 0.  1.
         -6    2    1    2    0  503  0.13310020845E+03 -0.53600007131E+02 -0.27323562029E+03  0.35414055178E+03  0.17369283222E+03 0.  0.
        -24    2    3    3    0    0  0.82591238913E+02  0.34689694972E+02 -0.18127880527E+03  0.21693860817E+03  0.78585410806E+02 0.  0.
          6    2    1    2  501    0 -0.13310020845E+03  0.53600007131E+02 -0.78056933885E+03  0.81191770808E+03  0.17126951182E+03 0.  0.
         24    2    5    5    0    0 -0.44105677193E+02  0.64045615375E+02 -0.24544436980E+03  0.26932213140E+03  0.79021011042E+02 0.  0.
          5    1    5    5  501    0 -0.88994531254E+02 -0.10445608244E+02 -0.53512496905E+03  0.54259557668E+03  0.47000000000E+01 0. -1.
        -11    1    6    6    0    0 -0.83267688867E+01  0.18938275603E+02 -0.18384580809E+03  0.18500614723E+03  0.00000000000E+00 0.  1.
         12    1    6    6    0    0 -0.35778908307E+02  0.45107339772E+02 -0.61598561711E+02  0.84315984166E+02  0.00000000000E+00 0. -1.
         -5    1    3    3    0  503  0.50508969535E+02 -0.88289702103E+02 -0.91956815025E+02  0.13720194361E+03  0.47000000000E+01 0.  1.
         11    1    4    4    0    0 -0.39675317331E+01  0.32292234706E+02 -0.47087748669E+02  0.57234480911E+02  0.00000000000E+00 0. -1.
        -12    1    4    4    0    0  0.86558770646E+02  0.23974602658E+01 -0.13419105660E+03  0.15970412726E+03  0.00000000000E+00 0.  1.
</event>
<event>
12    1  0.8562501E-002  0.2100317E+03  0.7818608E-02  0.1141554E+00
         21   -1    0    0  503  502  0.00000000000E+00  0.00000000000E+00  0.19421346607E+04  0.19421346607E+04  0.00000000000E+00 0.  1.
         21   -1    0    0  501  503 -0.00000000000E+00 -0.00000000000E+00 -0.27314650119E+02  0.27314650119E+02  0.00000000000E+00 0.  1.
          6    2    1    2  501    0 -0.48123012253E+01  0.12070297893E+03  0.55282372868E+03  0.59135381875E+03  0.17173496029E+03 0.  0.
         24    2    3    3    0    0  0.19870144191E+02  0.78847272086E+02  0.51876844910E+03  0.53183092084E+03  0.84330953024E+02 0.  0.
         -6    2    1    2    0  502  0.48123012253E+01 -0.12070297893E+03  0.13619962819E+04  0.13780954921E+04  0.17181660571E+03 0.  0.
        -24    2    5    5    0    0 -0.64422123499E+02 -0.70059908791E+02  0.83888279166E+03  0.84797480790E+03  0.79235950617E+02 0.  0.
          5    1    3    3  501    0 -0.24682445416E+02  0.41855706847E+02  0.34055279586E+02  0.59522897906E+02  0.47000000000E+01 0. -1.
        -13    1    4    4    0    0 -0.10524809070E+02  0.84774213880E+02  0.35250770199E+03  0.36271079238E+03  0.00000000000E+00 0.  1.
         14    1    4    4    0    0  0.30394953260E+02 -0.59269417936E+01  0.16626074711E+03  0.16912012846E+03  0.00000000000E+00 0. -1.
         -5    1    5    5    0  502  0.69234424724E+02 -0.50643070143E+02  0.52311349024E+03  0.53012068418E+03  0.47000000000E+01 0.  1.
         11    1    6    6    0    0 -0.72181248267E+02 -0.55781361792E+02  0.47213037402E+03  0.48086254065E+03  0.00000000000E+00 0. -1.
        -12    1    6    6    0    0  0.77591247681E+01 -0.14278546998E+02  0.36675241764E+03  0.36711226725E+03  0.00000000000E+00 0.  1.
</event>
<event>
12    1  0.8562501E-002  0.1781480E+03  0.7818608E-02  0.1172738E+00
         21   -1    0    0  501  502  0.00000000000E+00  0.00000000000E+00  0.65936179854E+03  0.65936179854E+03  0.00000000000E+00 0. -1.
         21   -1    0    0  502  503 -0.00000000000E+00 -0.00000000000E+00 -0.45111553924E+02  0.45111553924E+02  0.00000000000E+00 0. -1.
         -6    2    1    2    0  503  0.32560657424E+02 -0.32244543465E+02  0.34378447939E+03  0.38720080780E+03  0.17215339178E+03 0.  0.
        -24    2    3    3    0    0  0.76703621987E+02  0.74849550480E+01  0.15219974068E+03  0.18656722019E+03  0.75518848039E+02 0.  0.
          6    2    1    2  501    0 -0.32560657424E+02  0.32244543465E+02  0.27046576523E+03  0.31727254466E+03  0.15940586702E+03 0.  0.
         24    2    5    5    0    0 -0.60898388584E+02  0.11156581643E+02  0.99321512682E+02  0.14245785900E+03  0.81218197866E+02 0.  0.
          5    1    5    5  501    0  0.28337731160E+02  0.21087961823E+02  0.17114425255E+03  0.17481468566E+03  0.47000000000E+01 0. -1.
        -13    1    6    6    0    0  0.86779025187E+00  0.48257949553E+01  0.75960765061E+02  0.76118849082E+02  0.00000000000E+00 0.  1.
         14    1    6    6    0    0 -0.61766178836E+02  0.63307866873E+01  0.23360747620E+02  0.66339009922E+02  0.00000000000E+00 0. -1.
         -5    1    3    3    0  503 -0.44142964563E+02 -0.39729498513E+02  0.19158473871E+03  0.20063358761E+03  0.47000000000E+01 0.  1.
         13    1    4    4    0    0  0.33254322913E+02 -0.10615564532E+02  0.12985274455E+03  0.13446291485E+03  0.00000000000E+00 0. -1.
        -14    1    4    4    0    0  0.43449299073E+02  0.18100519580E+02  0.22346996129E+02  0.52104305341E+02  0.00000000000E+00 0.  1.
</event>
<event>
12    1  0.8562501E-002  0.2017407E+03  0.7818608E-02  0.1148295E+00
         21   -1    0    0  503  502  0.00000000000E+00  0.00000000000E+00  0.14987296178E+03  0.14987296178E+03  0.00000000000E+00 0. -1.
         21   -1    0    0  501  503 -0.00000000000E+00 -0.00000000000E+00 -0.29287759014E+03  0.29287759014E+03  0.00000000000E+00 0. -1.
          6    2    1    2  501    0  0.54967957374E+02  0.89167351835E+02 -0.11613257030E+02  0.20199547088E+03  0.17232240001E+03 0.  0.
         24    2    3    3    0    0  0.40182588989E+02 -0.17321946172E+02  0.61748486153E+01  0.92921714129E+02  0.81741213131E+02 0.  0.
         -6    2    1    2    0  502 -0.54967957374E+02 -0.89167351835E+02 -0.13139137134E+03  0.24075508104E+03  0.17241526503E+03 0.  0.
        -24    2    5    5    0    0 -0.72841892591E+02 -0.11961805354E+03 -0.83397930767E+02  0.18098733780E+03  0.78656096655E+02 0.  0.
          5    1    3    3  501    0  0.14785368385E+02  0.10648929801E+03 -0.17788105645E+02  0.10907375675E+03  0.47000000000E+01 0. -1.
        -11    1    4    4    0    0  0.23121470713E+02 -0.67006977595E+01 -0.37661683375E+02  0.44697921126E+02  0.00000000000E+00 0.  1.
         12    1    4    4    0    0  0.17061118277E+02 -0.10621248413E+02  0.43836531990E+02  0.48223793003E+02  0.00000000000E+00 0. -1.
         -5    1    5    5    0  502  0.17873935217E+02  0.30450701701E+02 -0.47993440569E+02  0.59767743239E+02  0.47000000000E+01 0.  1.
         13    1    6    6    0    0  0.88665751987E+01 -0.17627717522E+02 -0.37685948342E+02  0.42539197021E+02  0.00000000000E+00 0. -1.
        -14    1    6    6    0    0 -0.81708467790E+02 -0.10199033601E+03 -0.45711982426E+02  0.13844814078E+03  0.00000000000E+00 0.  1.
</event>
<event>
12    1  0.8562501E-002  0.2094915E+03  0.7818608E-02  0.1142317E+00
         21   -1    0    0  503  502  0.00000000000E+00  0.00000000000E+00  0.13617366898E+04  0.13617366898E+04  0.00000000000E+00 0.  1.
         21   -1    0    0  501  503 -0.00000000000E+00 -0.00000000000E+00 -0.17132489763E+03  0.17132489763E+03  0.00000000000E+00 0.  1.
          6    2    1    2  501    0 -0.63640282689E+02  0.10064129910E+03 -0.95673989743E+02  0.23030453870E+03  0.17235983165E+03 0.  0.
         24    2    3    3    0    0  0.61069851099E+01  0.82071782178E+02 -0.94448895994E+02  0.15796437573E+03  0.96224099620E+02 0.  0.
         -6    2    1    2    0  502  0.63640282689E+02 -0.10064129910E+03  0.12860857820E+04  0.13027570488E+04  0.17023669668E+03 0.  0.
        -24    2    5    5    0    0  0.75085977663E+02 -0.88025930862E+02  0.59222557353E+03  0.60867187367E+03  0.79773750760E+02 0.  0.
          5    1    3    3  501    0 -0.69747267799E+02  0.18569516920E+02 -0.12250937496E+01  0.72340162972E+02  0.47000000000E+01 0. -1.
        -11    1    4    4    0    0 -0.10608341134E+02  0.55564261710E+01 -0.76738189960E+02  0.77666985082E+02  0.00000000000E+00 0.  1.
         12    1    4    4    0    0  0.16715326244E+02  0.76515356007E+02 -0.17710706034E+02  0.80297390646E+02  0.00000000000E+00 0. -1.
         -5    1    5    5    0  502 -0.11445694974E+02 -0.12615368236E+02  0.69386020843E+03  0.69408517510E+03  0.47000000000E+01 0.  1.
         13    1    6    6    0    0  0.48196183987E+02 -0.92472354360E+01  0.12885927843E+03  0.13788798769E+03  0.00000000000E+00 0. -1.
        -14    1    6    6    0    0  0.26889793677E+02 -0.78778695426E+02  0.46336629511E+03  0.47078388598E+03  0.00000000000E+00 0.  1.
</event>
<event>
12    1  0.8562501E-002  0.1766472E+03  0.7818608E-02  0.1172372E+00
         21   -1    0    0  501  502  0.00000000000E+00  0.00000000000E+00  0.20994119166E+02  0.20994119166E+02  0.00000000000E+00 0. -1.
         21   -1    0    0  502  503 -0.00000000000E+00 -0.00000000000E+00 -0.14776854717E+04  0.14776854717E+04  0.00000000000E+00 0.  1.
         -6    2    1    2    0  503  0.16666220617E+02  0.17358108381E+02 -0.62521431073E+03  0.64969004351E+03  0.17500043276E+03 0.  0.
        -24    2    3    3    0    0 -0.53336458461E+02  0.39036540790E+02 -0.36929555253E+03  0.38344423546E+03  0.79256843678E+02 0.  0.
          6    2    1    2  501    0 -0.16666220617E+02 -0.17358108381E+02 -0.83147704183E+03  0.84898954738E+03  0.16985321200E+03 0.  0.
         24    2    5    5    0    0  0.30204533237E+01  0.33117833411E+02 -0.71785810551E+03  0.72302630464E+03  0.79629539256E+02 0.  0.
          5    1    5    5  501    0 -0.19686673941E+02 -0.50475941792E+02 -0.11361893632E+03  0.12596324274E+03  0.47000000000E+01 0. -1.
        -11    1    6    6    0    0 -0.37775474642E+02  0.92699701340E+01 -0.30347662103E+03  0.30595911221E+03  0.00000000000E+00 0.  1.
         12    1    6    6    0    0  0.40795927965E+02  0.23847863277E+02 -0.41438148448E+03  0.41706719243E+03  0.00000000000E+00 0. -1.
         -5    1    3    3    0  503  0.70002679078E+02 -0.21678432410E+02 -0.25591875819E+03  0.26624580805E+03  0.47000000000E+01 0.  1.
         11    1    4    4    0    0 -0.29134470167E+02 -0.16540138700E+02 -0.21627527427E+03  0.21885471848E+03  0.00000000000E+00 0. -1.
        -12    1    4    4    0    0 -0.24201988294E+02  0.55576679490E+02 -0.15302027826E+03  0.16458951698E+03  0.00000000000E+00 0.  1.
</event>
<event>
12    1  0.8562501E-002  0.1812863E+03  0.7818608E-02  0.1166734E+00
         21   -1    0    0  501  502  0.00000000000E+00  0.00000000000E+00  0.57234274243E+03  0.57234274243E+03  0.00000000000E+00 0.  1.
         21   -1    0    0  502  503 -0.00000000000E+00 -0.00000000000E+00 -0.57960516778E+02  0.57960516778E+02  0.00000000000E+00 0.  1.
         -6    2    1    2    0  503 -0.11765956783E+02 -0.55137701441E+02  0.29386246624E+03  0.34528233147E+03  0.17229664971E+03 0.  0.
        -24    2    3    3    0    0 -0.15404818616E+02 -0.97342717264E+02  0.15337803002E+03  0.19847473120E+03  0.78450530863E+02 0.  0.
          6    2    1    2  501    0  0.11765956783E+02  0.55137701441E+02  0.22051975940E+03  0.28502092773E+03  0.17154987933E+03 0.  0.
         24    2    5    5    0    0 -0.12672116260E+02 -0.12365834101E+02  0.18952761582E+03  0.20668479501E+03  0.80525716073E+02 0.  0.
          5    1    5    5  501    0  0.24438073043E+02  0.67503535542E+02  0.30992143585E+02  0.78336132715E+02  0.47000000000E+01 0. -1.
        -11    1    6    6    0    0 -0.29068818441E+02  0.55884148100E+01  0.17676059417E+03  0.17922202498E+03  0.00000000000E+00 0.  1.
         12    1    6    6    0    0  0.16396702181E+02 -0.17954248911E+02  0.12767021649E+02  0.27462770038E+02  0.00000000000E+00 0. -1.
         -5    1    3    3    0  503  0.36388618328E+01  0.42205015824E+02  0.14048443622E+03  0.14680760027E+03  0.47000000000E+01 0.  1.
         13    1    4    4    0    0 -0.47523493088E+02 -0.54683506556E+02  0.92535325861E+02  0.11752257152E+03  0.00000000000E+00 0. -1.
        -14    1    4    4    0    0  0.32118674472E+02 -0.42659210708E+02  0.60842704160E+02  0.80952159684E+02  0.00000000000E+00 0.  1.
</event>
<event>
12    1  0.8562501E-002  0.1930761E+03  0.7818608E-02  0.1156142E+00
         21   -1    0    0  503  502  0.00000000000E+00  0.00000000000E+00  0.21291278640E+04  0.21291278640E+04  0.00000000000E+00 0. -1.
         21   -1    0    0  501  503 -0.00000000000E+00 -0.00000000000E+00 -0.33173471982E+02  0.33173471982E+02  0.00000000000E+00 0. -1.
          6    2    1    2  501    0 -0.81642821307E+02 -0.37358384249E+02  0.30367604388E+03  0.35985765615E+03  0.17093037740E+03 0.  0.
         24    2    3    3    0    0 -0.22359937495E+02  0.42534600228E+02  0.13391906613E+03  0.16304081038E+03  0.79616773088E+02 0.  0.
         -6    2    1    2    0  502  0.81642821307E+02  0.37358384249E+02  0.17922783481E+04  0.18024436798E+04  0.16876119997E+03 0.  0.
        -24    2    5    5    0    0  0.11919449043E+03  0.20688239993E+02  0.15312046720E+04  0.15381151420E+04  0.81087067591E+02 0.  0.
          5    1    3    3  501    0 -0.59282883812E+02 -0.79892984477E+02  0.16975697776E+03  0.19681684577E+03  0.47000000000E+01 0. -1.
        -13    1    4    4    0    0 -0.16384991465E+02 -0.21563973516E+02  0.27035792554E+02  0.38267570842E+02  0.00000000000E+00 0.  1.
         14    1    4    4    0    0 -0.59749460297E+01  0.64098573744E+02  0.10688327357E+03  0.12477323954E+03  0.00000000000E+00 0. -1.
         -5    1    5    5    0  502 -0.37551669126E+02  0.16670144256E+02  0.26107367605E+03  0.26432853779E+03  0.47000000000E+01 0.  1.
         11    1    6    6    0    0  0.86594499522E+02 -0.10217622432E+02  0.12768788246E+04  0.12798525462E+04  0.00000000000E+00 0. -1.
        -12    1    6    6    0    0  0.32599990911E+02  0.30905862425E+02  0.25432584741E+03  0.25826259582E+03  0.00000000000E+00 0.  1.
</event>
<event>
12    1  0.8562501E-002  0.1913326E+03  0.7818608E-02  0.1157549E+00
         21   -1    0    0  501  502  0.00000000000E+00  0.00000000000E+00  0.13074627779E+03  0.13074627779E+03  0.00000000000E+00 0.  1.
         21   -1    0    0  502  503 -0.00000000000E+00 -0.00000000000E+00 -0.59623337086E+03  0.59623337086E+03  0.00000000000E+00 0.  1.
         -6    2    1    2    0  503  0.50718033746E+02 -0.64940025722E+02 -0.49787963526E+03  0.53292441421E+03  0.17127397398E+03 0.  0.
        -24    2    3    3    0    0  0.64474331639E+02 -0.85352704123E+01 -0.17297325126E+03  0.20283809138E+03  0.83628675596E+02 0.  0.
          6    2    1    2  501    0 -0.50718033746E+02  0.64940025722E+02  0.32392542188E+02  0.19405523445E+03  0.17268072081E+03 0.  0.
         24    2    5    5    0    0  0.37878890487E+01  0.95518153812E+02  0.80001653951E+01  0.12680201458E+03  0.82925764661E+02 0.  0.
          5    1    5    5  501    0 -0.54505922794E+02 -0.30578128090E+02  0.24392376793E+02  0.67253219869E+02  0.47000000000E+01 0. -1.
        -11    1    6    6    0    0 -0.35355566033E+02  0.50764749496E+02  0.22107321238E+02  0.65694820901E+02  0.00000000000E+00 0.  1.
         12    1    6    6    0    0  0.39143455081E+02  0.44753404316E+02 -0.14107155843E+02  0.61107193681E+02  0.00000000000E+00 0. -1.
         -5    1    3    3    0  503 -0.13756297893E+02 -0.56404755309E+02 -0.32490638400E+03  0.33008632282E+03  0.47000000000E+01 0.  1.
         13    1    4    4    0    0 -0.11135809724E+02  0.94925755725E+01 -0.16738964120E+01  0.14728108447E+02  0.00000000000E+00 0. -1.
        -14    1    4    4    0    0  0.75610141363E+02 -0.18027845985E+02 -0.17129935485E+03  0.18810998294E+03  0.00000000000E+00 0.  1.
</event>
<event>
12    1  0.8562501E-002  0.2062425E+03  0.7818608E-02  0.1145128E+00
         21   -1    0    0  501  502  0.00000000000E+00  0.00000000000E+00  0.18448021970E+03  0.18448021970E+03  0.00000000000E+00 0.  1.
         21   -1    0    0  502  503 -0.00000000000E+00 -0.00000000000E+00 -0.13086082156E+04  0.13086082156E+04  0.00000000000E+00 0.  1.
         -6    2    1    2    0  503  0.78729048901E+02  0.78271846824E+02 -0.12399530774E+04  0.12565478917E+04  0.17059960405E+03 0.  0.
        -24    2    3    3    0    0  0.34637176915E+02 -0.14404732015E+02 -0.36344573050E+03  0.37403995374E+03  0.80036601912E+02 0.  0.
          6    2    1    2  501    0 -0.78729048901E+02 -0.78271846824E+02  0.11582508145E+03  0.23654054363E+03  0.17381379157E+03 0.  0.
         24    2    5    5    0    0 -0.37258570452E+02 -0.97160251877E+02  0.24096292071E+02  0.13400843535E+03  0.80927831030E+02 0.  0.
          5    1    5    5  501    0 -0.41470478448E+02  0.18888405052E+02  0.91728789381E+02  0.10253210829E+03  0.47000000000E+01 0. -1.
        -11    1    6    6    0    0 -0.50614627422E+02 -0.21645404485E+02  0.12495029596E+02  0.56449001842E+02  0.00000000000E+00 0.  1.
         12    1    6    6    0    0  0.13356056969E+02 -0.75514847392E+02  0.11601262475E+02  0.77559433503E+02  0.00000000000E+00 0. -1.
         -5    1    3    3    0  503  0.44091871985E+02  0.92676578839E+02 -0.87650734686E+03  0.88250793794E+03  0.47000000000E+01 0.  1.
         11    1    4    4    0    0  0.22632993352E+02  0.92708531648E+00 -0.20527847749E+02  0.30569664841E+02  0.00000000000E+00 0. -1.
        -12    1    4    4    0    0  0.12004183563E+02 -0.15331817331E+02 -0.34291788275E+03  0.34347028890E+03  0.00000000000E+00 0.  1.
</event>
<event>
12    1  0.8562501E-002  0.2729288E+03  0.7818608E-02  0.1099787E+00
         21   -1    0    0  503  502  0.00000000000E+00  0.00000000000E+00  0.13344677204E+03  0.13344677204E+03  0.00000000000E+00 0.  1.
         21   -1    0    0  501  503 -0.00000000000E+00 -0.00000000000E+00 -0.72320036972E+03  0.72320036972E+03  0.00000000000E+00 0. -1.
          6    2    1    2  501    0  0.21019168666E+03 -0.16152385359E+01 -0.50049554989E+03  0.56949363410E+03  0.17217447455E+03 0.  0.
         24    2    3    3    0    0  0.44972601003E+02  0.37530888666E+02 -0.22799441278E+03  0.24838816037E+03  0.79272463715E+02 0.  0.
         -6    2    1    2    0  502 -0.21019168666E+03  0.16152385359E+01 -0.89258047780E+02  0.28715350766E+03  0.17408901095E+03 0.  0.
        -24    2    5    5    0    0 -0.96691609530E+02 -0.40582748968E+02  0.79679403738E+01  0.13178967522E+03  0.79427977150E+02 0.  0.
          5    1    3    3  501    0  0.16521908565E+03 -0.39146127202E+02 -0.27250113711E+03  0.32110547374E+03  0.47000000000E+01 0. -1.
        -11    1    4    4    0    0  0.31404398272E+02  0.14817832715E+02 -0.22903484605E+02  0.41597764414E+02  0.00000000000E+00 0.  1.
         12    1    4    4    0    0  0.13568202731E+02  0.22713055951E+02 -0.20509092818E+03  0.20679039595E+03  0.00000000000E+00 0. -1.
         -5    1    5    5    0  502 -0.11350007713E+03  0.42197987504E+02 -0.97225988154E+02  0.15536383244E+03  0.47000000000E+01 0.  1.
         13    1    6    6    0    0  0.13652700032E+02 -0.10329213168E+02  0.16419269932E+01  0.17198394898E+02  0.00000000000E+00 0. -1.
        -14    1    6    6    0    0 -0.11034430956E+03 -0.30253535800E+02  0.63260133805E+01  0.11459128032E+03  0.00000000000E+00 0.  1.
</event>
<event>
12    1  0.8562501E-002  0.1848817E+03  0.7818608E-02  0.1164054E+00
         21   -1    0    0  501  502  0.00000000000E+00  0.00000000000E+00  0.10411297577E+04  0.10411297577E+04  0.00000000000E+00 0.  1.
         21   -1    0    0  502  503 -0.00000000000E+00 -0.00000000000E+00 -0.60277497201E+02  0.60277497201E+02  0.00000000000E+00 0.  1.
         -6    2    1    2    0  503  0.37093738236E+02 -0.59207796176E+02  0.11703662904E+03  0.21881224425E+03  0.17117160148E+03 0.  0.
        -24    2    3    3    0    0 -0.35637040053E+02  0.89322576302E+00  0.62782515875E+02  0.10987419881E+03  0.82824505970E+02 0.  0.
          6    2    1    2  501    0 -0.37093738236E+02  0.59207796176E+02  0.86381563143E+03  0.88259501062E+03  0.16707782355E+03 0.  0.
         24    2    5    5    0    0 -0.58022430174E+02  0.90397268273E+02  0.53127167605E+03  0.54790356230E+03  0.80065293966E+02 0.  0.
          5    1    5    5  501    0  0.20928691937E+02 -0.31189472097E+02  0.33254395538E+03  0.33469144832E+03  0.47000000000E+01 0. -1.
        -13    1    6    6    0    0 -0.11605556525E+01  0.51847189404E+02  0.35413360936E+03  0.35791073079E+03  0.00000000000E+00 0.  1.
         14    1    6    6    0    0 -0.56861874521E+02  0.38550078869E+02  0.17713806669E+03  0.18999283151E+03  0.00000000000E+00 0. -1.
         -5    1    3    3    0  503  0.72730778289E+02 -0.60101021939E+02  0.54254113166E+02  0.10893804544E+03  0.47000000000E+01 0.  1.
         11    1    4    4    0    0  0.15231150576E+02 -0.27848575907E+02  0.22465475531E+02  0.38887385085E+02  0.00000000000E+00 0. -1.
        -12    1    4    4    0    0 -0.50868190629E+02  0.28741801670E+02  0.40317040344E+02  0.70986813728E+02  0.00000000000E+00 0.  1.
</event>
<event>
12    1  0.8562501E-002  0.2503668E+03  0.7818608E-02  0.1113259E+00
         21   -1    0    0  501  502  0.00000000000E+00  0.00000000000E+00  0.20135331557E+03  0.20135331557E+03  0.00000000000E+00 0. -1.
         21   -1    0    0  502  503 -0.00000000000E+00 -0.00000000000E+00 -0.46481283562E+03  0.46481283562E+03  0.00000000000E+00 0.  1.
         -6    2    1    2    0  503  0.16442103915E+03  0.75381657219E+02 -0.32384273497E+03  0.40862070673E+03  0.17140622105E+03 0.  0.
        -24    2    3    3    0    0  0.14083219397E+03  0.18605097751E+01 -0.16123982125E+03  0.22855519008E+03  0.80012665245E+02 0.  0.
          6    2    1    2  501    0 -0.16442103915E+03 -0.75381657219E+02  0.60383214915E+02  0.25754544446E+03  0.17310936127E+03 0.  0.
         24    2    5    5    0    0 -0.95405304468E+02  0.85661368795E+01 -0.14343449277E+02  0.12557359857E+03  0.79921482082E+02 0.  0.
          5    1    5    5  501    0 -0.69015734687E+02 -0.83947794099E+02  0.74726664191E+02  0.13197184590E+03  0.47000000000E+01 0. -1.
        -11    1    6    6    0    0 -0.12670173923E+02 -0.29187207105E+02 -0.13665946790E+02  0.34629242953E+02  0.00000000000E+00 0.  1.
         12    1    6    6    0    0 -0.82735130545E+02  0.37753343985E+02 -0.67750248636E+00  0.90944355613E+02  0.00000000000E+00 0. -1.
         -5    1    3    3    0  503  0.23588845189E+02  0.73521147444E+02 -0.16260291371E+03  0.18006551665E+03  0.47000000000E+01 0.  1.
         11    1    4    4    0    0  0.18666386113E+02  0.23381308654E+02 -0.71906572066E+01  0.30770523492E+02  0.00000000000E+00 0. -1.
        -12    1    4    4    0    0  0.12216580785E+03 -0.21520798879E+02 -0.15404916405E+03  0.19778466659E+03  0.00000000000E+00 0.  1.
</event>
<event>
12    1  0.8562501E-002  0.1905112E+03  0.7818608E-02  0.1158056E+00
         21   -1    0    0  501  502  0.00000000000E+00  0.00000000000E+00  0.14625318306E+03  0.14625318306E+03  0.00000000000E+00 0.  1.
         21   -1    0    0  502  503 -0.00000000000E+00 -0.00000000000E+00 -0.38112585169E+03  0.38112585169E+03  0.00000000000E+00 0.  1.
         -6    2    1    2    0  503 -0.62958105485E+02 -0.51729998013E+02 -0.27332203304E+03  0.33302659786E+03  0.17193622479E+03 0.  0.
        -24    2    3    3    0    0 -0.10581093661E+03 -0.37160143020E+02 -0.12944102757E+03  0.18212106600E+03  0.61937650320E+02 0.  0.
          6    2    1    2  501    0  0.62958105485E+02  0.51729998013E+02  0.38449364406E+02  0.19435243689E+03  0.17220569201E+03 0.  0.
         24    2    5    5    0    0 -0.27565242698E+02  0.32702395487E+02  0.45794554758E+02  0.10144082273E+03  0.79773491811E+02 0.  0.
          5    1    5    5  501    0  0.90523348183E+02  0.19027602526E+02 -0.73451903522E+01  0.92911614159E+02  0.47000000000E+01 0. -1.
        -13    1    6    6    0    0 -0.87754061161E+01  0.44010503545E+02  0.60285863095E+02  0.75155288994E+02  0.00000000000E+00 0.  1.
         14    1    6    6    0    0 -0.18789836582E+02 -0.11308108058E+02 -0.14491308337E+02  0.26285533739E+02  0.00000000000E+00 0. -1.
         -5    1    3    3    0  503  0.42852831128E+02 -0.14569854994E+02 -0.14388100547E+03  0.15090553185E+03  0.47000000000E+01 0.  1.
         11    1    4    4    0    0 -0.54311232777E+02  0.11507796276E+02 -0.42230502073E+02  0.69753528127E+02  0.00000000000E+00 0. -1.
        -12    1    4    4    0    0 -0.51499703836E+02 -0.48667939295E+02 -0.87210525500E+02  0.11236753788E+03  0.00000000000E+00 0.  1.
</event>
<event>
12    1  0.8562501E-002  0.1776444E+03  0.7818608E-02  0.1170326E+00
         21   -1    0    0  501  502  0.00000000000E+00  0.00000000000E+00  0.14912441912E+03  0.14912441912E+03  0.00000000000E+00 0.  1.
         21   -1    0    0  502  503 -0.00000000000E+00 -0.00000000000E+00 -0.37898575242E+03  0.37898575242E+03  0.00000000000E+00 0.  1.
         -6    2    1    2    0  503 -0.32361460834E+02  0.26220092380E+02 -0.29080702593E+03  0.34030204343E+03  0.17176145389E+03 0.  0.
        -24    2    3    3    0    0 -0.81119026405E+02  0.29521074667E+02 -0.14282018688E+03  0.18438414447E+03  0.78409927034E+02 0.  0.
          6    2    1    2  501    0  0.32361460834E+02 -0.26220092380E+02  0.60945692627E+02  0.18780812811E+03  0.17269266962E+03 0.  0.
         24    2    5    5    0    0  0.41990772231E+02  0.36279680089E+02 -0.54663080602E+01  0.95984443624E+02  0.78126133618E+02 0.  0.
          5    1    5    5  501    0 -0.96293113970E+01 -0.62499772468E+02  0.66412000687E+02  0.91823684482E+02  0.47000000000E+01 0. -1.
        -11    1    6    6    0    0  0.36410947544E-01 -0.17736179659E+02  0.16422968717E+02  0.24172035415E+02  0.00000000000E+00 0.  1.
         12    1    6    6    0    0  0.41954361283E+02  0.54015859747E+02 -0.21889276777E+02  0.71812408209E+02  0.00000000000E+00 0. -1.
         -5    1    3    3    0  503  0.48757565571E+02 -0.33009822875E+01 -0.14798683905E+03  0.15591789896E+03  0.47000000000E+01 0.  1.
         11    1    4    4    0    0 -0.16767970867E+02 -0.14010832211E+02 -0.58507981049E-01  0.21851125587E+02  0.00000000000E+00 0. -1.
        -12    1    4    4    0    0 -0.64351055538E+02  0.43531906879E+02 -0.14276167890E+03  0.16253301888E+03  0.00000000000E+00 0.  1.
</event>
<event>
12    1  0.8562501E-002  0.1867500E+03  0.7818608E-02  0.1161588E+00
         21   -1    0    0  501  502  0.00000000000E+00  0.00000000000E+00  0.30672009691E+03  0.30672009691E+03  0.00000000000E+00 0.  1.
         21   -1    0    0  502  503 -0.00000000000E+00 -0.00000000000E+00 -0.11338721151E+03  0.11338721151E+03  0.00000000000E+00 0.  1.
         -6    2    1    2    0  503 -0.39081023953E+02  0.61432733791E+02  0.90338917918E+02  0.20745286423E+03  0.17197169411E+03 0.  0.
        -24    2    3    3    0    0  0.31825417468E+02  0.10854310517E+02  0.75154535125E+01  0.87171042698E+02  0.80072688163E+02 0.  0.
          6    2    1    2  501    0  0.39081023953E+02 -0.61432733791E+02  0.10299396749E+03  0.21265444419E+03  0.17120995321E+03 0.  0.
         24    2    5    5    0    0 -0.29718362398E+02 -0.40491264079E+02  0.69384425824E+02  0.13313342805E+03  0.10191951525E+03 0.  0.
          5    1    5    5  501    0  0.68799386351E+02 -0.20941469711E+02  0.33609541666E+02  0.79521016133E+02  0.47000000000E+01 0. -1.
        -11    1    6    6    0    0  0.10281684520E+02 -0.60463211208E+02  0.63082738957E+02  0.87982639767E+02  0.00000000000E+00 0.  1.
         12    1    6    6    0    0 -0.40000046918E+02  0.19971947128E+02  0.63016868668E+01  0.45150788286E+02  0.00000000000E+00 0. -1.
         -5    1    3    3    0  503 -0.70906441421E+02  0.50578423274E+02  0.82823464406E+02  0.12028182154E+03  0.47000000000E+01 0.  1.
         11    1    4    4    0    0  0.35544136376E+02 -0.22157891686E+01 -0.30444228201E+02  0.46852389299E+02  0.00000000000E+00 0. -1.
        -12    1    4    4    0    0 -0.37187189071E+01  0.13070099686E+02  0.37959681713E+02  0.40318653398E+02  0.00000000000E+00 0.  1.
</event>
<event>
12    1  0.8562501E-002  0.1924730E+03  0.7818608E-02  0.1156585E+00
         21   -1    0    0  501  502  0.00000000000E+00  0.00000000000E+00  0.83405413022E+02  0.83405413022E+02  0.00000000000E+00 0.  1.
         21   -1    0    0  502  503 -0.00000000000E+00 -0.00000000000E+00 -0.57280660939E+03  0.57280660939E+03  0.00000000000E+00 0. -1.
         -6    2    1    2    0  503 -0.65549888956E+02  0.46234345007E+02 -0.40301296831E+03  0.44661541099E+03  0.17496133890E+03 0.  0.
        -24    2    3    3    0    0 -0.17578423381E+01 -0.65140594865E+01 -0.79809116547E+02  0.11294695402E+03  0.79636652093E+02 0.  0.
          6    2    1    2  501    0  0.65549888956E+02 -0.46234345007E+02 -0.86388228057E+02  0.20959661142E+03  0.17330150308E+03 0.  0.
         24    2    5    5    0    0  0.78227061248E+02  0.13148409771E+02 -0.12332358248E+02  0.11371447483E+03  0.80539064658E+02 0.  0.
          5    1    5    5  501    0 -0.12677172292E+02 -0.59382754778E+02 -0.74055869810E+02  0.95882136582E+02  0.47000000000E+01 0. -1.
        -11    1    6    6    0    0 -0.73030891514E-01  0.47174969241E+01  0.25791336244E+02  0.26219327528E+02  0.00000000000E+00 0.  1.
         12    1    6    6    0    0  0.78300092139E+02  0.84309128469E+01 -0.38123694492E+02  0.87495147306E+02  0.00000000000E+00 0. -1.
         -5    1    3    3    0  503 -0.63792046618E+02  0.52748404493E+02 -0.32320385176E+03  0.33366845698E+03  0.47000000000E+01 0.  1.
         11    1    4    4    0    0 -0.14723952544E+02  0.24527621372E+02 -0.73296545398E+02  0.78681526142E+02  0.00000000000E+00 0. -1.
        -12    1    4    4    0    0  0.12966110206E+02 -0.31041680858E+02 -0.65125711489E+01  0.34265427873E+02  0.00000000000E+00 0.  1.
</event>
<event>
12    1  0.8562501E-002  0.1786059E+03  0.7818608E-02  0.1170361E+00
         21   -1    0    0  503  502  0.00000000000E+00  0.00000000000E+00  0.16161585093E+03  0.16161585093E+03  0.00000000000E+00 0.  1.
         21   -1    0    0  501  503 -0.00000000000E+00 -0.00000000000E+00 -0.27904415177E+03  0.27904415177E+03  0.00000000000E+00 0.  1.
          6    2    1    2  501    0 -0.16758063351E+02  0.24836246421E+02 -0.18116205695E+03  0.25102337143E+03  0.17115890367E+03 0.  0.
         24    2    3    3    0    0  0.52309291008E+02  0.37984094597E+02 -0.10326416379E+03  0.14598367842E+03  0.80428188303E+02 0.  0.
         -6    2    1    2    0  502  0.16758063351E+02 -0.24836246421E+02  0.63733756109E+02  0.18963663127E+03  0.17607495116E+03 0.  0.
        -24    2    5    5    0    0  0.66166779252E+02  0.23981428096E+02  0.56007783187E+02  0.11959259362E+03  0.78818558100E+02 0.  0.
          5    1    3    3  501    0 -0.69067354359E+02 -0.13147848176E+02 -0.77897893158E+02  0.10503969301E+03  0.47000000000E+01 0. -1.
        -11    1    4    4    0    0  0.23969649816E+02 -0.18050283468E+02 -0.66137487600E+01  0.30726186197E+02  0.00000000000E+00 0.  1.
         12    1    4    4    0    0  0.28339641192E+02  0.56034378065E+02 -0.96650415030E+02  0.11525749222E+03  0.00000000000E+00 0. -1.
         -5    1    5    5    0  502 -0.49408715901E+02 -0.48817674517E+02  0.77259729219E+01  0.70044037647E+02  0.47000000000E+01 0.  1.
         11    1    6    6    0    0  0.56534334730E+02 -0.19404766862E+02  0.41786705505E+02  0.72930136002E+02  0.00000000000E+00 0. -1.
        -12    1    6    6    0    0  0.96324445224E+01  0.43386194958E+02  0.14221077682E+02  0.46662457617E+02  0.00000000000E+00 0.  1.
</event>
<event>
12    1  0.8562501E-002  0.1864860E+03  0.7818608E-02  0.1161772E+00
         21   -1    0    0  501  502  0.00000000000E+00  0.00000000000E+00  0.85614755954E+02  0.85614755954E+02  0.00000000000E+00 0. -1.
         21   -1    0    0  502  503 -0.00000000000E+00 -0.00000000000E+00 -0.53975175955E+03  0.53975175955E+03  0.00000000000E+00 0. -1.
         -6    2    1    2    0  503  0.70423201845E+01 -0.68912912009E+02 -0.70769468428E+02  0.19904775190E+03  0.17266472181E+03 0.  0.
        -24    2    3    3    0    0  0.28077581561E+02 -0.16843869624E+02  0.36828371375E+02  0.77585607479E+02  0.59926046254E+02 0.  0.
          6    2    1    2  501    0 -0.70423201845E+01  0.68912912009E+02 -0.38336753517E+03  0.42631876361E+03  0.17314282390E+03 0.  0.
         24    2    5    5    0    0 -0.55564284269E+02 -0.86572901704E+00 -0.15790706160E+03  0.18532508136E+03  0.79514819404E+02 0.  0.
          5    1    5    5  501    0  0.48521964084E+02  0.69778641027E+02 -0.22546047357E+03  0.24099368225E+03  0.47000000000E+01 0. -1.
        -13    1    6    6    0    0 -0.25135337127E+02 -0.17970181858E+02 -0.14476595182E+03  0.14802666454E+03  0.00000000000E+00 0.  1.
         14    1    6    6    0    0 -0.30428947143E+02  0.17104452841E+02 -0.13141109784E+02  0.37298416824E+02  0.00000000000E+00 0. -1.
         -5    1    3    3    0  503 -0.21035261376E+02 -0.52069042385E+02 -0.10759783980E+03  0.12146214442E+03  0.47000000000E+01 0.  1.
         11    1    4    4    0    0  0.44372371696E+01 -0.32455448471E+02  0.21802702780E+01  0.32829845988E+02  0.00000000000E+00 0. -1.
        -12    1    4    4    0    0  0.23640344391E+02  0.15611578847E+02  0.34648101097E+02  0.44755761491E+02  0.00000000000E+00 0.  1.
</event>
<event>
12    1  0.8562501E-002  0.1871954E+03  0.7818608E-02  0.1161116E+00
         21   -1    0    0  503  502  0.00000000000E+00  0.00000000000E+00  0.22276055108E+03  0.22276055108E+03  0.00000000000E+00 0. -1.
         21   -1    0    0  501  503 -0.00000000000E+00 -0.00000000000E+00 -0.26653546113E+03  0.26653546113E+03  0.00000000000E+00 0. -1.
          6    2    1    2  501    0  0.31562468815E+00  0.69758249376E+02 -0.17874874364E+03  0.25851461846E+03  0.17324081976E+03 0.  0.
         24    2    3    3    0    0 -0.75369653478E+01  0.59438987622E+02 -0.23910878676E+02  0.10306364625E+03  0.80377770334E+02 0.  0.
         -6    2    1    2    0  502 -0.31562468815E+00 -0.69758249376E+02  0.13497383360E+03  0.23078139374E+03  0.17371183888E+03 0.  0.
        -24    2    5    5    0    0 -0.56137202816E+02 -0.38324719379E+02  0.12824230743E+03  0.16619409749E+03  0.80958130975E+02 0.  0.
          5    1    3    3  501    0  0.78525900360E+01  0.10319261754E+02 -0.15483786496E+03  0.15545097221E+03  0.47000000000E+01 0. -1.
        -11    1    4    4    0    0 -0.18363800329E+02 -0.68929798909E-01  0.20874985360E+02  0.27802858264E+02  0.00000000000E+00 0.  1.
         12    1    4    4    0    0  0.10826834981E+02  0.59507917421E+02 -0.44785864036E+02  0.75260787990E+02  0.00000000000E+00 0. -1.
         -5    1    5    5    0  502  0.55821578127E+02 -0.31433529997E+02  0.67315261665E+01  0.64587296253E+02  0.47000000000E+01 0.  1.
         11    1    6    6    0    0 -0.16102815956E+02 -0.36999593482E+02  0.10314817372E+02  0.41649322407E+02  0.00000000000E+00 0. -1.
        -12    1    6    6    0    0 -0.40034386859E+02 -0.13251258971E+01  0.11792749006E+03  0.12454477509E+03  0.00000000000E+00 0.  1.
</event>
<event>
12    1  0.8562501E-002  0.1811573E+03  0.7818608E-02  0.1166795E+00
         21   -1    0    0  503  502  0.00000000000E+00  0.00000000000E+00  0.15284558277E+03  0.15284558277E+03  0.00000000000E+00 0.  1.
         21   -1    0    0  501  503 -0.00000000000E+00 -0.00000000000E+00 -0.44642200073E+03  0.44642200073E+03  0.00000000000E+00 0. -1.
          6    2    1    2  501    0 -0.30098998510E+02 -0.47069026403E+02 -0.36299126803E+03  0.40568536751E+03  0.17232676458E+03 0.  0.
         24    2    3    3    0    0 -0.30532213638E+02 -0.71615514438E+02 -0.13255468832E+03  0.17389704810E+03  0.81292311836E+02 0.  0.
         -6    2    1    2    0  502  0.30098998510E+02  0.47069026403E+02  0.69414850065E+02  0.19358221599E+03  0.17185520062E+03 0.  0.
        -24    2    5    5    0    0 -0.33327656896E+02 -0.17517242787E+01 -0.21676899863E+01  0.86099397115E+02  0.79338553375E+02 0.  0.
          5    1    3    3  501    0  0.43321512830E+00  0.24546488034E+02 -0.23043657970E+03  0.23178831941E+03  0.47000000000E+01 0. -1.
        -13    1    4    4    0    0  0.24067085656E+02 -0.18248313139E+02 -0.14994743575E+02  0.33720437116E+02  0.00000000000E+00 0.  1.
         14    1    4    4    0    0 -0.54599299294E+02 -0.53367201299E+02 -0.11755994475E+03  0.14017661098E+03  0.00000000000E+00 0. -1.
         -5    1    5    5    0  502  0.63426655405E+02  0.48820750682E+02  0.71582540051E+02  0.10748281887E+03  0.47000000000E+01 0.  1.
         11    1    6    6    0    0  0.19785385959E+01 -0.21306512661E+02 -0.30161803258E+02  0.36981298957E+02  0.00000000000E+00 0. -1.
        -12    1    6    6    0    0 -0.35306195491E+02  0.19554788382E+02  0.27994113272E+02  0.49118098158E+02  0.00000000000E+00 0.  1.
</event>
<event>
12    1  0.8562501E-002  0.1809782E+03  0.7818608E-02  0.1166953E+00
         21   -1    0    0  501  502  0.00000000000E+00  0.00000000000E+00  0.10518130401E+04  0.10518130401E+04  0.00000000000E+00 0.  1.
         21   -1    0    0  502  503 -0.00000000000E+00 -0.00000000000E+00 -0.38887555963E+02  0.38887555963E+02  0.00000000000E+00 0.  1.
         -6    2    1    2    0  503  0.49435329614E+02  0.22721024252E+02  0.26155715368E+03  0.31784388732E+03  0.17219899916E+03 0.  0.
        -24    2    3    3    0    0  0.52711002317E+02 -0.48101164118E+02  0.13745018032E+03  0.17483639370E+03  0.81135939852E+02 0.  0.
          6    2    1    2  501    0 -0.49435329614E+02 -0.22721024252E+02  0.75136833043E+03  0.77285670871E+03  0.17260656845E+03 0.  0.
         24    2    5    5    0    0 -0.69549979732E+02 -0.70693511312E+02  0.53966695835E+03  0.55480735740E+03  0.82073172693E+02 0.  0.
          5    1    5    5  501    0  0.20114650118E+02  0.47972487060E+02  0.21170137208E+03  0.21804935131E+03  0.47000000000E+01 0. -1.
        -13    1    6    6    0    0 -0.54173925723E+02 -0.38750520199E+02  0.15757006462E+03  0.17106940786E+03  0.00000000000E+00 0.  1.
         14    1    6    6    0    0 -0.15376054009E+02 -0.31942991113E+02  0.38209689373E+03  0.38373794954E+03  0.00000000000E+00 0. -1.
         -5    1    3    3    0  503 -0.32756727028E+01  0.70822188370E+02  0.12410697335E+03  0.14300749362E+03  0.47000000000E+01 0.  1.
         11    1    4    4    0    0  0.57483457273E+01 -0.59322346580E+02  0.71078596628E+02  0.92759641984E+02  0.00000000000E+00 0. -1.
        -12    1    4    4    0    0  0.46962656590E+02  0.11221182461E+02  0.66371583697E+02  0.82076751716E+02  0.00000000000E+00 0.  1.
</event>
<event>
12    1  0.8562501E-002  0.3130787E+03  0.7818608E-02  0.1078922E+00
         21   -1    0    0  501  502  0.00000000000E+00  0.00000000000E+00  0.26966109103E+03  0.26966109103E+03  0.00000000000E+00 0. -1.
         21   -1    0    0  502  503 -0.00000000000E+00 -0.00000000000E+00 -0.83580869470E+03  0.83580869470E+03  0.00000000000E+00 0.  1.
         -6    2    1    2    0  503  0.10172576529E+03 -0.24110901970E+03 -0.69869740876E+03  0.76548780163E+03  0.17120693539E+03 0.  0.
        -24    2    3    3    0    0  0.10781453425E+03 -0.25983350321E+03 -0.66140943109E+03  0.72305947772E+03  0.78836220197E+02 0.  0.
          6    2    1    2  501    0 -0.10172576529E+03  0.24110901970E+03  0.13254980510E+03  0.33998198410E+03  0.17186217728E+03 0.  0.
         24    2    5    5    0    0 -0.62397184751E+02  0.66260061446E+02  0.57725602656E+02  0.14571503704E+03  0.98065398638E+02 0.  0.
          5    1    5    5  501    0 -0.39328580536E+02  0.17484895825E+03  0.74824202441E+02  0.19426694706E+03  0.47000000000E+01 0. -1.
        -13    1    6    6    0    0 -0.11565285008E+02  0.24689187727E+02 -0.27100888039E+02  0.38441773378E+02  0.00000000000E+00 0.  1.
         14    1    6    6    0    0 -0.50831899743E+02  0.41570873719E+02  0.84826490695E+02  0.10727326366E+03  0.00000000000E+00 0. -1.
         -5    1    3    3    0  503 -0.60887689578E+01  0.18724483506E+02 -0.37287977677E+02  0.42428323903E+02  0.47000000000E+01 0.  1.
         11    1    4    4    0    0  0.19343187683E+02 -0.27668290457E+01 -0.58833703854E+02  0.61993700985E+02  0.00000000000E+00 0. -1.
        -12    1    4    4    0    0  0.88471346563E+02 -0.25706667416E+03 -0.60257572723E+03  0.66106577674E+03  0.00000000000E+00 0.  1.
</event>
<event>
12    1  0.8562501E-002  0.2098414E+03  0.7818608E-02  0.1142071E+00
         21   -1    0    0  501  502  0.00000000000E+00  0.00000000000E+00  0.11411258550E+03  0.11411258550E+03  0.00000000000E+00 0. -1.
         21   -1    0    0  502  503 -0.00000000000E+00 -0.00000000000E+00 -0.38766617974E+03  0.38766617974E+03  0.00000000000E+00 0. -1.
         -6    2    1    2    0  503  0.79991133002E+02 -0.88408977233E+02 -0.16667890700E+03  0.26798372437E+03  0.17268089030E+03 0.  0.
        -24    2    3    3    0    0  0.65831368845E+02 -0.12338113663E+03 -0.16315381573E+03  0.22979907926E+03  0.81435712338E+02 0.  0.
          6    2    1    2  501    0 -0.79991133002E+02  0.88408977233E+02 -0.10687468724E+03  0.23379504086E+03  0.17036194923E+03 0.  0.
         24    2    5    5    0    0 -0.46033627489E+02  0.12517160577E+03 -0.95477900240E+02  0.18225302119E+03  0.79455072527E+02 0.  0.
          5    1    5    5  501    0 -0.33957505514E+02 -0.36762628533E+02 -0.11396786999E+02  0.51542019666E+02  0.47000000000E+01 0. -1.
        -11    1    6    6    0    0 -0.56607847527E+02  0.10703185390E+03 -0.10398035528E+03  0.15960006402E+03  0.00000000000E+00 0.  1.
         12    1    6    6    0    0  0.10574220038E+02  0.18139751867E+02  0.85024550368E+01  0.22652957177E+02  0.00000000000E+00 0. -1.
         -5    1    3    3    0  503  0.14159764158E+02  0.34972159396E+02 -0.35250912755E+01  0.38184645112E+02  0.47000000000E+01 0.  1.
         13    1    4    4    0    0 -0.13674869886E+02 -0.54295689166E+02 -0.48112900509E+02  0.73823269528E+02  0.00000000000E+00 0. -1.
        -14    1    4    4    0    0  0.79506238731E+02 -0.69085447463E+02 -0.11504091522E+03  0.15597580973E+03  0.00000000000E+00 0.  1.
</event>
<event>
12    1  0.8562501E-002  0.2423954E+03  0.7818608E-02  0.1118303E+00
         21   -1    0    0  503  502  0.00000000000E+00  0.00000000000E+00  0.13939706686E+04  0.13939706686E+04  0.00000000000E+00 0.  1.
         21   -1    0    0  501  503 -0.00000000000E+00 -0.00000000000E+00 -0.51363243715E+02  0.51363243715E+02  0.00000000000E+00 0.  1.
          6    2    1    2  501    0  0.89361126272E+02 -0.14521467221E+03  0.97970839136E+03  0.10092492654E+04  0.17228707364E+03 0.  0.
         24    2    3    3    0    0 -0.19611740475E+02 -0.66272361664E+02  0.34156233586E+03  0.35705339589E+03  0.77753790625E+02 0.  0.
         -6    2    1    2    0  502 -0.89361126272E+02  0.14521467221E+03  0.36289903352E+03  0.43608464688E+03  0.17146836094E+03 0.  0.
        -24    2    5    5    0    0 -0.39061382608E+02  0.10328538648E+03  0.34157472192E+03  0.36705606237E+03  0.76571532537E+02 0.  0.
          5    1    3    3  501    0  0.10897286675E+03 -0.78942310551E+02  0.63814605550E+03  0.65219586954E+03  0.47000000000E+01 0. -1.
        -13    1    4    4    0    0  0.12582762205E+02 -0.65941642766E+02  0.17555224997E+03  0.18795004290E+03  0.00000000000E+00 0.  1.
         14    1    4    4    0    0 -0.32194502681E+02 -0.33071889804E+00  0.16601008588E+03  0.16910335299E+03  0.00000000000E+00 0. -1.
         -5    1    5    5    0  502 -0.50299743664E+02  0.41929285739E+02  0.21324311601E+02  0.69028584518E+02  0.47000000000E+01 0.  1.
         13    1    6    6    0    0 -0.39830562939E+00  0.94704722226E+02  0.24604919557E+03  0.26364625865E+03  0.00000000000E+00 0. -1.
        -14    1    6    6    0    0 -0.38663076979E+02  0.85806642494E+01  0.95525526347E+02  0.10340980372E+03  0.00000000000E+00 0.  1.
</event>
<event>
12    1  0.8562501E-002  0.2103042E+03  0.7818608E-02  0.1141549E+00
         21   -1    0    0  503  502  0.00000000000E+00  0.00000000000E+00  0.16966074239E+03  0.16966074239E+03  0.00000000000E+00 0.  1.
         21   -1    0    0  501  503 -0.00000000000E+00 -0.00000000000E+00 -0.39121464629E+03  0.39121464629E+03  0.00000000000E+00 0. -1.
          6    2    1    2  501    0  0.77770973350E+02 -0.91799312942E+02 -0.27343297131E+03  0.34426677982E+03  0.17110987037E+03 0.  0.
         24    2    3    3    0    0  0.93804760210E+02 -0.25371180656E+02 -0.11297765894E+03  0.16980252461E+03  0.81399730333E+02 0.  0.
         -6    2    1    2    0  502 -0.77770973350E+02  0.91799312942E+02  0.51879067399E+02  0.21660860886E+03  0.17248887977E+03 0.  0.
        -24    2    5    5    0    0 -0.44897050046E+02  0.11258428890E+03  0.82052819178E+02  0.16715908555E+03  0.80737398634E+02 0.  0.
          5    1    3    3  501    0 -0.16033786860E+02 -0.66428132286E+02 -0.16045531236E+03  0.17446425521E+03  0.47000000000E+01 0. -1.
        -11    1    4    4    0    0  0.66091744439E+02 -0.55130104494E+02 -0.74927135527E+02  0.11411188695E+03  0.00000000000E+00 0.  1.
         12    1    4    4    0    0  0.27713015771E+02  0.29758923838E+02 -0.38050523417E+02  0.55690637664E+02  0.00000000000E+00 0. -1.
         -5    1    5    5    0  502 -0.32873923304E+02 -0.20784975955E+02 -0.30173751779E+02  0.49449523306E+02  0.47000000000E+01 0.  1.
         11    1    6    6    0    0  0.77334420142E+01  0.57792707201E+01  0.39582837366E+02  0.40743184822E+02  0.00000000000E+00 0. -1.
        -12    1    6    6    0    0 -0.52630492060E+02  0.10680501818E+03  0.42469981811E+02  0.12641590073E+03  0.00000000000E+00 0.  1.
</event>
<event>
12    1  0.8562501E-002  0.2794855E+03  0.7818608E-02  0.1095990E+00
         21   -1    0    0  501  502  0.00000000000E+00  0.00000000000E+00  0.11636224677E+04  0.11636224677E+04  0.00000000000E+00 0.  1.
         21   -1    0    0  502  503 -0.00000000000E+00 -0.00000000000E+00 -0.67096302795E+02  0.67096302795E+02  0.00000000000E+00 0. -1.
         -6    2    1    2    0  503  0.19841225817E+03  0.94663451755E+02  0.54491261893E+03  0.61240664037E+03  0.17257907639E+03 0.  0.
        -24    2    3    3    0    0  0.93996641138E+02 -0.17935369455E+02  0.27539499868E+03  0.30217615631E+03  0.79441664873E+02 0.  0.
          6    2    1    2  501    0 -0.19841225817E+03 -0.94663451755E+02  0.55161354600E+03  0.61831213016E+03  0.17234788330E+03 0.  0.
         24    2    5    5    0    0 -0.29921752445E+02 -0.65987747863E+02  0.22127703007E+03  0.24635023658E+03  0.80468757235E+02 0.  0.
          5    1    5    5  501    0 -0.16849050572E+03 -0.28675703892E+02  0.33033651594E+03  0.37196189358E+03  0.47000000000E+01 0. -1.
        -11    1    6    6    0    0 -0.33752749437E+02  0.75915076991E+01  0.71993344332E+02  0.79874405862E+02  0.00000000000E+00 0.  1.
         12    1    6    6    0    0  0.38309969923E+01 -0.73579255562E+02  0.14928368573E+03  0.16647583072E+03  0.00000000000E+00 0. -1.
         -5    1    3    3    0  503  0.10441561703E+03  0.11259882121E+03  0.26951762025E+03  0.31023048407E+03  0.47000000000E+01 0.  1.
         13    1    4    4    0    0  0.13075644583E+02  0.19810225236E+02  0.18166142144E+02  0.29890236292E+02  0.00000000000E+00 0. -1.
        -14    1    4    4    0    0  0.80920996555E+02 -0.37745594691E+02  0.25722885654E+03  0.27228592001E+03  0.00000000000E+00 0.  1.
</event>
<event>
12    1  0.8562501E-002  0.2206466E+03  0.7818608E-02  0.1136618E+00
         21   -1    0    0  503  502  0.00000000000E+00  0.00000000000E+00  0.40902141538E+02  0.40902141538E+02  0.00000000000E+00 0. -1.
         21   -1    0    0  501  503 -0.00000000000E+00 -0.00000000000E+00 -0.11824820526E+04  0.11824820526E+04  0.00000000000E+00 0.  1.
          6    2    1    2  501    0 -0.44856153107E+02  0.13071013189E+03 -0.75072625842E+03  0.78247992133E+03  0.17201075302E+03 0.  0.
         24    2    3    3    0    0 -0.84374014979E+02  0.11264717939E+03 -0.68265821489E+03  0.70158937670E+03  0.79981583629E+02 0.  0.
         -6    2    1    2    0  502  0.44856153107E+02 -0.13071013189E+03 -0.39085365268E+03  0.44090427284E+03  0.15010925004E+03 0.  0.
        -24    2    5    5    0    0 -0.25734893413E+02 -0.51177981177E+02 -0.20477345483E+03  0.22652986001E+03  0.78116190229E+02 0.  0.
          5    1    3    3  501    0  0.39517861872E+02  0.18062952506E+02 -0.68068043530E+02  0.80890544627E+02  0.47000000000E+01 0. -1.
        -11    1    4    4    0    0 -0.10300910332E+02  0.22423230807E+02 -0.31220846165E+03  0.31318210926E+03  0.00000000000E+00 0.  1.
         12    1    4    4    0    0 -0.74073104646E+02  0.90223948580E+02 -0.37044975324E+03  0.38840726745E+03  0.00000000000E+00 0. -1.
         -5    1    5    5    0  502  0.70591046520E+02 -0.79532150716E+02 -0.18608019785E+03  0.21437441283E+03  0.47000000000E+01 0.  1.
         11    1    6    6    0    0 -0.50656578107E+02 -0.26058970303E+02 -0.90804490290E+02  0.10719428294E+03  0.00000000000E+00 0. -1.
        -12    1    6    6    0    0  0.24921684694E+02 -0.25119010874E+02 -0.11396896454E+03  0.11933557706E+03  0.00000000000E+00 0.  1.
</event>
<event>
12    1  0.8562501E-002  0.2202363E+03  0.7818608E-02  0.1133915E+00
         21   -1    0    0  503  502  0.00000000000E+00  0.00000000000E+00  0.23589308876E+03  0.23589308876E+03  0.00000000000E+00 0. -1.
         21   -1    0    0  501  503 -0.00000000000E+00 -0.00000000000E+00 -0.24735857042E+03  0.24735857042E+03  0.00000000000E+00 0. -1.
          6    2    1    2  501    0 -0.13405508933E+03  0.28282469435E+02  0.94741172936E+02  0.23974973989E+03  0.17243370574E+03 0.  0.
         24    2    3    3    0    0 -0.47746609236E+01  0.11079490216E+02  0.38309917031E+01  0.80702191294E+02  0.79703291600E+02 0.  0.
         -6    2    1    2    0  502  0.13405508933E+03 -0.28282469435E+02 -0.10620665459E+03  0.24350191929E+03  0.17100487176E+03 0.  0.
        -24    2    5    5    0    0  0.60724711747E+02  0.41692817760E+02 -0.89935034186E+02  0.14073645464E+03  0.79326273203E+02 0.  0.
          5    1    3    3  501    0 -0.12928042841E+03  0.17202979218E+02  0.90910181233E+02  0.15904754860E+03  0.47000000000E+01 0. -1.
        -13    1    4    4    0    0 -0.28227178678E+01 -0.33934714695E+02  0.93413986601E+01  0.35309974887E+02  0.00000000000E+00 0.  1.
         14    1    4    4    0    0 -0.19519430558E+01  0.45014204911E+02 -0.55104069570E+01  0.45392216407E+02  0.00000000000E+00 0. -1.
         -5    1    5    5    0  502  0.73330377585E+02 -0.69975287195E+02 -0.16271620405E+02  0.10276546465E+03  0.47000000000E+01 0.  1.
         13    1    6    6    0    0  0.75853192231E+02  0.15043961832E+02 -0.68854155278E+02  0.10354188649E+03  0.00000000000E+00 0. -1.
        -14    1    6    6    0    0 -0.15128480483E+02  0.26648855928E+02 -0.21080878907E+02  0.37194568145E+02  0.00000000000E+00 0.  1.
</event>
<event>
12    1  0.8562501E-002  0.2461605E+03  0.7818608E-02  0.1116204E+00
         21   -1    0    0  501  502  0.00000000000E+00  0.00000000000E+00  0.27456800397E+04  0.27456800397E+04  0.00000000000E+00 0. -1.
         21   -1    0    0  502  503 -0.00000000000E+00 -0.00000000000E+00 -0.21878126898E+02  0.21878126898E+02  0.00000000000E+00 0. -1.
         -6    2    1    2    0  503 -0.49095901893E+02  0.16896136049E+03  0.12842418294E+04  0.13071033704E+04  0.16817786873E+03 0.  0.
        -24    2    3    3    0    0  0.44218973492E+01  0.13004377502E+02  0.45752655892E+03  0.46409271574E+03  0.76569116968E+02 0.  0.
          6    2    1    2  501    0  0.49095901893E+02 -0.16896136049E+03  0.14395600833E+04  0.14604547961E+04  0.17215292383E+03 0.  0.
         24    2    5    5    0    0 -0.12338536998E+02 -0.49307323595E+02  0.87672591769E+03  0.88175308816E+03  0.79099444230E+02 0.  0.
          5    1    5    5  501    0  0.61434438891E+02 -0.11965403689E+03  0.56283416562E+03  0.57870170798E+03  0.47000000000E+01 0. -1.
        -11    1    6    6    0    0 -0.18036400808E+02 -0.60026873412E+02  0.40070595291E+03  0.40557834999E+03  0.00000000000E+00 0.  1.
         12    1    6    6    0    0  0.56978638106E+01  0.10719549817E+02  0.47601996479E+03  0.47617473817E+03  0.00000000000E+00 0. -1.
         -5    1    3    3    0  503 -0.53517799243E+02  0.15595698298E+03  0.82671527052E+03  0.84301065467E+03  0.47000000000E+01 0.  1.
         11    1    4    4    0    0  0.34077065606E+01  0.15730874087E+02  0.16478475425E+02  0.23035038873E+02  0.00000000000E+00 0. -1.
        -12    1    4    4    0    0  0.10141907886E+01 -0.27264965855E+01  0.44104808350E+03  0.44105767687E+03  0.00000000000E+00 0.  1.
</event>
<event>
12    1  0.8562501E-002  0.2440576E+03  0.7818608E-02  0.1117167E+00
         21   -1    0    0  503  502  0.00000000000E+00  0.00000000000E+00  0.59794057881E+02  0.59794057881E+02  0.00000000000E+00 0.  1.
         21   -1    0    0  501  503 -0.00000000000E+00 -0.00000000000E+00 -0.11039721908E+04  0.11039721908E+04  0.00000000000E+00 0.  1.
          6    2    1    2  501    0  0.20360133808E+01  0.17296814735E+03 -0.70466090010E+03  0.74563219403E+03  0.17175057292E+03 0.  0.
         24    2    3    3    0    0  0.52721053065E+02  0.16401604160E+03 -0.50732589268E+03  0.54164124179E+03  0.79466358170E+02 0.  0.
         -6    2    1    2    0  502 -0.20360133808E+01 -0.17296814735E+03 -0.33951723282E+03  0.41813405465E+03  0.17216855383E+03 0.  0.
        -24    2    5    5    0    0  0.50005105193E+02 -0.11779954382E+03 -0.29139462152E+03  0.32819113632E+03  0.80133347885E+02 0.  0.
          5    1    3    3  501    0 -0.50685039684E+02  0.89521057535E+01 -0.19733500741E+03  0.20399095224E+03  0.47000000000E+01 0. -1.
        -11    1    4    4    0    0  0.15346018914E+02  0.24187152353E+01 -0.13085704975E+02  0.20312216880E+02  0.00000000000E+00 0.  1.
         12    1    4    4    0    0  0.37375034151E+02  0.16159732636E+03 -0.49424018771E+03  0.52132902491E+03  0.00000000000E+00 0. -1.
         -5    1    5    5    0  502 -0.52041118574E+02 -0.55168603535E+02 -0.48122611300E+02  0.89942918325E+02  0.47000000000E+01 0.  1.
         13    1    6    6    0    0  0.59505743119E+02 -0.11565911026E+03 -0.21576812538E+03  0.25194016587E+03  0.00000000000E+00 0. -1.
        -14    1    6    6    0    0 -0.95006379253E+01 -0.21404335594E+01 -0.75626496137E+02  0.76250970451E+02  0.00000000000E+00 0.  1.
</event>
<event>
12    1  0.8562501E-002  0.2206852E+03  0.7818608E-02  0.1133760E+00
         21   -1    0    0  501  502  0.00000000000E+00  0.00000000000E+00  0.70391727065E+03  0.70391727065E+03  0.00000000000E+00 0.  1.
         21   -1    0    0  502  503 -0.00000000000E+00 -0.00000000000E+00 -0.72319103148E+02  0.72319103148E+02  0.00000000000E+00 0.  1.
         -6    2    1    2    0  503  0.19296336895E+02  0.13850480687E+03  0.22847400828E+03  0.31765124644E+03  0.17072203068E+03 0.  0.
        -24    2    3    3    0    0 -0.50617581792E+02  0.52817999758E+02  0.87209937081E+02  0.13818589393E+03  0.78344670971E+02 0.  0.
          6    2    1    2  501    0 -0.19296336895E+02 -0.13850480687E+03  0.40312415922E+03  0.45858512736E+03  0.16803363100E+03 0.  0.
         24    2    5    5    0    0 -0.54353783171E+02 -0.89794886504E+02  0.36317205580E+03  0.38633596509E+03  0.79649735841E+02 0.  0.
          5    1    5    5  501    0  0.35057446276E+02 -0.48709920365E+02  0.39952103416E+02  0.72249162270E+02  0.47000000000E+01 0. -1.
        -11    1    6    6    0    0 -0.70511703193E+02 -0.46907648155E+02  0.20932829510E+03  0.22581090069E+03  0.00000000000E+00 0.  1.
         12    1    6    6    0    0  0.16157920022E+02 -0.42887238349E+02  0.15384376070E+03  0.16052506440E+03  0.00000000000E+00 0. -1.
         -5    1    3    3    0  503  0.69913918687E+02  0.85686807111E+02  0.14126407120E+03  0.17946535251E+03  0.47000000000E+01 0.  1.
         11    1    4    4    0    0 -0.29751476796E+02  0.59314732776E+02  0.94213478732E+02  0.11523700565E+03  0.00000000000E+00 0. -1.
        -12    1    4    4    0    0 -0.20866104996E+02 -0.64967330178E+01 -0.70035416503E+01  0.22948888279E+02  0.00000000000E+00 0.  1.
</event>
<event>
12    1  0.8562501E-002  0.2067692E+03  0.7818608E-02  0.1144191E+00
         21   -1    0    0  501  502  0.00000000000E+00  0.00000000000E+00  0.29136316141E+02  0.29136316141E+02  0.00000000000E+00 0.  1.
         21   -1    0    0  502  503 -0.00000000000E+00 -0.00000000000E+00 -0.30420027680E+04  0.30420027680E+04  0.00000000000E+00 0.  1.
         -6    2    1    2    0  503  0.22944972564E+02  0.11236308469E+03 -0.26120905760E+04  0.26202615646E+04  0.17205102570E+03 0.  0.
        -24    2    3    3    0    0  0.66051814687E+02  0.69601983160E+02 -0.21399664352E+04  0.21442258455E+04  0.95083406613E+02 0.  0.
          6    2    1    2  501    0 -0.22944972564E+02 -0.11236308469E+03 -0.40077587588E+03  0.45087751950E+03  0.17180599622E+03 0.  0.
         24    2    5    5    0    0  0.27686613961E+02 -0.60447916708E+02 -0.11293242488E+03  0.15400265612E+03  0.80886255179E+02 0.  0.
          5    1    5    5  501    0 -0.50631586526E+02 -0.51915167985E+02 -0.28784345100E+03  0.29687486338E+03  0.47000000000E+01 0. -1.
        -13    1    6    6    0    0 -0.27368864863E+02 -0.33704248990E+02 -0.43903709916E+02  0.61745986981E+02  0.00000000000E+00 0.  1.
         14    1    6    6    0    0  0.55055478825E+02 -0.26743667718E+02 -0.69028714962E+02  0.92256669140E+02  0.00000000000E+00 0. -1.
         -5    1    3    3    0  503 -0.43106842122E+02  0.42761101533E+02 -0.47212414076E+03  0.47603571917E+03  0.47000000000E+01 0.  1.
         11    1    4    4    0    0 -0.84615880710E+01 -0.15215793815E+02 -0.14051407253E+03  0.14158857098E+03  0.00000000000E+00 0. -1.
        -12    1    4    4    0    0  0.74513402757E+02  0.84817776975E+02 -0.19994523627E+04  0.20026372745E+04  0.00000000000E+00 0.  1.
</event>
<event>
12    1  0.8562501E-002  0.1877429E+03  0.7818608E-02  0.1160946E+00
         21   -1    0    0  501  502  0.00000000000E+00  0.00000000000E+00  0.23501454905E+03  0.23501454905E+03  0.00000000000E+00 0. -1.
         21   -1    0    0  502  503 -0.00000000000E+00 -0.00000000000E+00 -0.29248001580E+03  0.29248001580E+03  0.00000000000E+00 0. -1.
         -6    2    1    2    0  503  0.32139655178E+02  0.61871546889E+02 -0.21372083041E+03  0.28323421313E+03  0.17229039551E+03 0.  0.
        -24    2    3    3    0    0 -0.15634540298E+02  0.20985967274E+02 -0.28360571657E+02  0.87442180861E+02  0.78466319502E+02 0.  0.
          6    2    1    2  501    0 -0.32139655178E+02 -0.61871546889E+02  0.15625536366E+03  0.24426035172E+03  0.17431676626E+03 0.  0.
         24    2    5    5    0    0 -0.74371830990E+02 -0.64442077989E+02  0.15865854639E+03  0.20162199350E+03  0.76124524700E+02 0.  0.
          5    1    5    5  501    0  0.42232175812E+02  0.25705311001E+01 -0.24031827310E+01  0.42638358214E+02  0.47000000000E+01 0. -1.
        -11    1    6    6    0    0 -0.26386760220E+02  0.33714998073E+01  0.51771352714E+01  0.27100384785E+02  0.00000000000E+00 0.  1.
         12    1    6    6    0    0 -0.47985070770E+02 -0.67813577797E+02  0.15348141112E+03  0.17452160872E+03  0.00000000000E+00 0. -1.
         -5    1    3    3    0  503  0.47774195476E+02  0.40885579616E+02 -0.18536025875E+03  0.19579203227E+03  0.47000000000E+01 0.  1.
         11    1    4    4    0    0  0.53420536430E+01  0.35269662318E+02 -0.44752988965E+02  0.57230382128E+02  0.00000000000E+00 0. -1.
        -12    1    4    4    0    0 -0.20976593941E+02 -0.14283695044E+02  0.16392417308E+02  0.30211798733E+02  0.00000000000E+00 0.  1.
</event>
<event>
12    1  0.8562501E-002  0.2848616E+03  0.7818608E-02  0.1093167E+00
         21   -1    0    0  501  502  0.00000000000E+00  0.00000000000E+00  0.85956139324E+03  0.85956139324E+03  0.00000000000E+00 0.  1.
         21   -1    0    0  502  503 -0.00000000000E+00 -0.00000000000E+00 -0.27336551240E+03  0.27336551240E+03  0.00000000000E+00 0. -1.
         -6    2    1    2    0  503  0.21659844128E+03  0.68093038758E+02 -0.16542559639E+03  0.32941120430E+03  0.17203071495E+03 0.  0.
        -24    2    3    3    0    0  0.22822270151E+03  0.58648167688E+02 -0.18041944250E+03  0.30770326943E+03  0.81270644911E+02 0.  0.
          6    2    1    2  501    0 -0.21659844128E+03 -0.68093038758E+02  0.75162147722E+03  0.80351570134E+03  0.17073690455E+03 0.  0.
         24    2    5    5    0    0 -0.11465374851E+03 -0.10213589607E+03  0.40166922681E+03  0.43740054993E+03  0.80024058878E+02 0.  0.
          5    1    5    5  501    0 -0.10194469277E+03  0.34042857316E+02  0.34995225042E+03  0.36611515141E+03  0.47000000000E+01 0. -1.
        -11    1    6    6    0    0 -0.54304441771E+02 -0.34474684266E+02  0.26986006144E+03  0.27742013087E+03  0.00000000000E+00 0.  1.
         12    1    6    6    0    0 -0.60349306742E+02 -0.67661211809E+02  0.13180916537E+03  0.15998041906E+03  0.00000000000E+00 0. -1.
         -5    1    3    3    0  503 -0.11624260232E+02  0.94448710702E+01  0.14993846109E+02  0.21707934877E+02  0.47000000000E+01 0.  1.
         11    1    4    4    0    0  0.94637217801E+02  0.65420399895E+02 -0.92708113674E+02  0.14775258393E+03  0.00000000000E+00 0. -1.
        -12    1    4    4    0    0  0.13358548371E+03 -0.67722322074E+01 -0.87711328823E+02  0.15995068550E+03  0.00000000000E+00 0.  1.
</event>
<event>
12    1  0.8562501E-002  0.1810760E+03  0.7818608E-02  0.1166795E+00
         21   -1    0    0  503  502  0.00000000000E+00  0.00000000000E+00  0.30067573368E+03  0.30067573368E+03  0.00000000000E+00 0.  1.
         21   -1    0    0  501  503 -0.00000000000E+00 -0.00000000000E+00 -0.18006170128E+03  0.18006170128E+03  0.00000000000E+00 0.  1.
          6    2    1    2  501    0  0.43890193997E+02  0.35803860040E+02 -0.90709949455E+02  0.20252609628E+03  0.17198912530E+03 0.  0.
         24    2    3    3    0    0  0.32310192247E+02  0.20288927484E+02 -0.13060527212E+03  0.15793308850E+03  0.80184376499E+02 0.  0.
         -6    2    1    2    0  502 -0.43890193997E+02 -0.35803860040E+02  0.21132398186E+03  0.27821133868E+03  0.17185883201E+03 0.  0.
        -24    2    5    5    0    0  0.13591551366E+01  0.42088594527E+02  0.44527304239E+02  0.88585497246E+02  0.63964149393E+02 0.  0.
          5    1    3    3  501    0  0.11580001750E+02  0.15514932556E+02  0.39895322666E+02  0.44593007786E+02  0.47000000000E+01 0. -1.
        -13    1    4    4    0    0  0.73153198473E+01  0.36779046655E+02 -0.12070289212E+03  0.12639383032E+03  0.00000000000E+00 0.  1.
         14    1    4    4    0    0  0.24994872400E+02 -0.16490119170E+02 -0.99023800025E+01  0.31539258176E+02  0.00000000000E+00 0. -1.
         -5    1    5    5    0  502 -0.45249349134E+02 -0.77892454567E+02  0.16679667762E+03  0.18962584144E+03  0.47000000000E+01 0.  1.
         11    1    6    6    0    0 -0.25650341402E+02  0.18526370618E+02  0.28005630688E+00  0.31642453348E+02  0.00000000000E+00 0. -1.
        -12    1    6    6    0    0  0.27009496539E+02  0.23562223910E+02  0.44247247932E+02  0.56943043898E+02  0.00000000000E+00 0.  1.
</event>
<event>
12    1  0.8562501E-002  0.2059496E+03  0.7818608E-02  0.1144990E+00
         21   -1    0    0  503  502  0.00000000000E+00  0.00000000000E+00  0.19731166618E+03  0.19731166618E+03  0.00000000000E+00 0.  1.
         21   -1    0    0  501  503 -0.00000000000E+00 -0.00000000000E+00 -0.21787599041E+03  0.21787599041E+03  0.00000000000E+00 0. -1.
          6    2    1    2  501    0 -0.10913409221E+03 -0.27742088206E+02 -0.37751321593E+02  0.20938098196E+03  0.17243943802E+03 0.  0.
         24    2    3    3    0    0 -0.43068759210E+02 -0.69387287639E+02 -0.58718408550E+02  0.12838308325E+03  0.79780015400E+02 0.  0.
         -6    2    1    2    0  502  0.10913409221E+03  0.27742088206E+02  0.17186997364E+02  0.20580667462E+03  0.17140922058E+03 0.  0.
        -24    2    5    5    0    0  0.14113726611E+02  0.17166448144E+02 -0.43659640655E+02  0.92382173749E+02  0.78322522838E+02 0.  0.
          5    1    3    3  501    0 -0.66065332995E+02  0.41645199432E+02  0.20967086956E+02  0.80997898707E+02  0.47000000000E+01 0. -1.
        -13    1    4    4    0    0 -0.83640054392E+01 -0.59199687278E+02 -0.43536712947E+00  0.59789205592E+02  0.00000000000E+00 0.  1.
         14    1    4    4    0    0 -0.34704753771E+02 -0.10187600361E+02 -0.58283041420E+02  0.68593877661E+02  0.00000000000E+00 0. -1.
         -5    1    5    5    0  502  0.95020365594E+02  0.10575640062E+02  0.60846638018E+02  0.11342450087E+03  0.47000000000E+01 0.  1.
         11    1    6    6    0    0  0.20143600915E+02  0.41279292914E+02 -0.47035500009E+01  0.46172156804E+02  0.00000000000E+00 0. -1.
        -12    1    6    6    0    0 -0.60298743034E+01 -0.24112844770E+02 -0.38956090654E+02  0.46210016945E+02  0.00000000000E+00 0.  1.
</event>
<event>
12    1  0.8562501E-002  0.2149538E+03  0.7818608E-02  0.1137783E+00
         21   -1    0    0  501  502  0.00000000000E+00  0.00000000000E+00  0.88855317148E+02  0.88855317148E+02  0.00000000000E+00 0.  1.
         21   -1    0    0  502  503 -0.00000000000E+00 -0.00000000000E+00 -0.53406445180E+03  0.53406445180E+03  0.00000000000E+00 0.  1.
         -6    2    1    2    0  503  0.35372345202E+02  0.12326455145E+03 -0.27471751505E+03  0.34856136153E+03  0.17198824734E+03 0.  0.
        -24    2    3    3    0    0  0.84801090311E+02  0.51590665232E+02 -0.18679481850E+03  0.22473552667E+03  0.75900797570E+02 0.  0.
          6    2    1    2  501    0 -0.35372345202E+02 -0.12326455145E+03 -0.17049161960E+03  0.27435840742E+03  0.17251026323E+03 0.  0.
         24    2    5    5    0    0 -0.46031188941E+02 -0.30127551662E+02 -0.23546471023E+02  0.99993622070E+02  0.80110850904E+02 0.  0.
          5    1    5    5  501    0  0.10658843739E+02 -0.93136999792E+02 -0.14694514858E+03  0.17436478535E+03  0.47000000000E+01 0. -1.
        -13    1    6    6    0    0 -0.24863526620E+02 -0.54196324951E+02  0.97705530672E+00  0.59635486342E+02  0.00000000000E+00 0.  1.
         14    1    6    6    0    0 -0.21167662321E+02  0.24068773289E+02 -0.24523526329E+02  0.40358135728E+02  0.00000000000E+00 0. -1.
         -5    1    3    3    0  503 -0.49428745109E+02  0.71673886222E+02 -0.87922696551E+02  0.12382583486E+03  0.47000000000E+01 0.  1.
         13    1    4    4    0    0 -0.41830892636E+01  0.14717550101E+02 -0.85036353453E+00  0.15324086756E+02  0.00000000000E+00 0. -1.
        -14    1    4    4    0    0  0.88984179575E+02  0.36873115131E+02 -0.18594445496E+03  0.20941143991E+03  0.00000000000E+00 0.  1.
</event>
<event>
12    1  0.8562501E-002  0.1859203E+03  0.7818608E-02  0.1162204E+00
         21   -1    0    0  503  502  0.00000000000E+00  0.00000000000E+00  0.47595484896E+03  0.47595484896E+03  0.00000000000E+00 0.  1.
         21   -1    0    0  501  503 -0.00000000000E+00 -0.00000000000E+00 -0.79596968896E+02  0.79596968896E+02  0.00000000000E+00 0.  1.
          6    2    1    2  501    0 -0.42101054872E+01 -0.67938965401E+02  0.11588603351E+03  0.21907970441E+03  0.17301131788E+03 0.  0.
         24    2    3    3    0    0  0.55955465176E+02 -0.62117077625E+02  0.10650526036E+03  0.15772924251E+03  0.80904870328E+02 0.  0.
         -6    2    1    2    0  502  0.42101054872E+01  0.67938965401E+02  0.28047184656E+03  0.33647211345E+03  0.17296126274E+03 0.  0.
        -24    2    5    5    0    0  0.72386640770E+02  0.63069113706E+02  0.13553556387E+03  0.17615875949E+03  0.58689697606E+02 0.  0.
          5    1    3    3  501    0 -0.60165570663E+02 -0.58218877765E+01  0.93807731486E+01  0.61350461900E+02  0.47000000000E+01 0. -1.
        -11    1    4    4    0    0  0.18816928916E+01  0.21036959845E+01 -0.12095934437E+02  0.12420866912E+02  0.00000000000E+00 0.  1.
         12    1    4    4    0    0  0.54073772284E+02 -0.64220773609E+02  0.11860119479E+03  0.14530837560E+03  0.00000000000E+00 0. -1.
         -5    1    5    5    0  502 -0.68176535283E+02  0.48698516949E+01  0.14493628269E+03  0.16031335396E+03  0.47000000000E+01 0.  1.
         11    1    6    6    0    0  0.17505064956E+02  0.17779801306E+01  0.66412289364E+02  0.68703571167E+02  0.00000000000E+00 0. -1.
        -12    1    6    6    0    0  0.54881575814E+02  0.61291133576E+02  0.69123274510E+02  0.10745518832E+03  0.00000000000E+00 0.  1.
</event>
<event>
12    1  0.8562501E-002  0.1774427E+03  0.7818608E-02  0.1170464E+00
         21   -1    0    0  501  502  0.00000000000E+00  0.00000000000E+00  0.19879558380E+03  0.19879558380E+03  0.00000000000E+00 0. -1.
         21   -1    0    0  502  503 -0.00000000000E+00 -0.00000000000E+00 -0.27598205750E+03  0.27598205750E+03  0.00000000000E+00 0. -1.
         -6    2    1    2    0  503 -0.29258701717E+02 -0.28695952038E+02 -0.19398029558E+03  0.26289595748E+03  0.17264530141E+03 0.  0.
        -24    2    3    3    0    0 -0.34743566637E+02  0.41491267186E+02 -0.15435535458E+03  0.18197281225E+03  0.79748907417E+02 0.  0.
          6    2    1    2  501    0  0.29258701717E+02  0.28695952038E+02  0.11679382188E+03  0.21188168382E+03  0.17196953747E+03 0.  0.
         24    2    5    5    0    0 -0.10775083754E+02 -0.40300590063E+02  0.89945857399E+02  0.12758381909E+03  0.80294044867E+02 0.  0.
          5    1    5    5  501    0  0.40033785471E+02  0.68996542101E+02  0.26847964481E+02  0.84297864729E+02  0.47000000000E+01 0. -1.
        -13    1    6    6    0    0 -0.14987517693E+02  0.21718501471E+02  0.15521728152E+02  0.30614425318E+02  0.00000000000E+00 0.  1.
         14    1    6    6    0    0  0.42124339391E+01 -0.62019091533E+02  0.74424129247E+02  0.96969393772E+02  0.00000000000E+00 0. -1.
         -5    1    3    3    0  503  0.54848649199E+01 -0.70187219225E+02 -0.39624940997E+02  0.80923145235E+02  0.47000000000E+01 0.  1.
         13    1    4    4    0    0 -0.47170275308E+02  0.68704047719E+01 -0.41255364807E+02  0.63041593093E+02  0.00000000000E+00 0. -1.
        -14    1    4    4    0    0  0.12426708672E+02  0.34620862414E+02 -0.11309998977E+03  0.11893121915E+03  0.00000000000E+00 0.  1.
</event>
<event>
12    1  0.8562501E-002  0.3576004E+03  0.7818608E-02  0.1059679E+00
         21   -1    0    0  501  502  0.00000000000E+00  0.00000000000E+00  0.16672576320E+04  0.16672576320E+04  0.00000000000E+00 0. -1.
         21   -1    0    0  502  503 -0.00000000000E+00 -0.00000000000E+00 -0.94195153304E+02  0.94195153304E+02  0.00000000000E+00 0.  1.
         -6    2    1    2    0  503  0.30726363197E+03 -0.60984957397E+02  0.40243572131E+03  0.53742457413E+03  0.16953040592E+03 0.  0.
        -24    2    3    3    0    0  0.22529374889E+03 -0.10480295583E+03  0.27474362259E+03  0.37941685028E+03  0.82049712292E+02 0.  0.
          6    2    1    2  501    0 -0.30726363197E+03  0.60984957397E+02  0.11706267574E+04  0.12240282111E+04  0.17247594639E+03 0.  0.
         24    2    5    5    0    0 -0.19535791528E+03 -0.44937572135E+01  0.53023551775E+03  0.57062681747E+03  0.79248669488E+02 0.  0.
          5    1    5    5  501    0 -0.11190571669E+03  0.65478714610E+02  0.64039123961E+03  0.65340139368E+03  0.47000000000E+01 0. -1.
        -13    1    6    6    0    0 -0.20709276112E+02  0.25963888863E+02  0.96666334934E+02  0.10221241584E+03  0.00000000000E+00 0.  1.
         14    1    6    6    0    0 -0.17464863916E+03 -0.30457646077E+02  0.43356918282E+03  0.46841440163E+03  0.00000000000E+00 0. -1.
         -5    1    3    3    0  503  0.81969883083E+02  0.43817998432E+02  0.12769209873E+03  0.15800772385E+03  0.47000000000E+01 0.  1.
         13    1    4    4    0    0 -0.33002007080E+01  0.16966183781E+00 -0.31633396102E+01  0.45745849366E+01  0.00000000000E+00 0. -1.
        -14    1    4    4    0    0  0.22859394959E+03 -0.10497261767E+03  0.27790696220E+03  0.37484226534E+03  0.00000000000E+00 0.  1.
</event>
<event>
12    1  0.8562501E-002  0.2199767E+03  0.7818608E-02  0.1134119E+00
         21   -1    0    0  501  502  0.00000000000E+00  0.00000000000E+00  0.57195995918E+02  0.57195995918E+02  0.00000000000E+00 0.  1.
         21   -1    0    0  502  503 -0.00000000000E+00 -0.00000000000E+00 -0.86886641383E+03  0.86886641383E+03  0.00000000000E+00 0.  1.
         -6    2    1    2    0  503  0.16295630053E+02 -0.13472078129E+03 -0.32476037500E+03  0.39224869633E+03  0.17313145911E+03 0.  0.
        -24    2    3    3    0    0  0.19050075608E+02  0.46257510519E+01 -0.15736879069E+03  0.17437929613E+03  0.72518271367E+02 0.  0.
          6    2    1    2  501    0 -0.16295630053E+02  0.13472078129E+03 -0.48691004291E+03  0.53381371341E+03  0.17164047971E+03 0.  0.
         24    2    5    5    0    0  0.55827601686E+02  0.68692702051E+02 -0.24570036206E+03  0.27349531618E+03  0.81213371009E+02 0.  0.
          5    1    5    5  501    0 -0.72123231739E+02  0.66028079236E+02 -0.24120968085E+03  0.26031839723E+03  0.47000000000E+01 0. -1.
        -13    1    6    6    0    0 -0.39832365227E+01  0.42700370751E+02 -0.16090714814E+03  0.16652416689E+03  0.00000000000E+00 0.  1.
         14    1    6    6    0    0  0.59810838209E+02  0.25992331301E+02 -0.84793213920E+02  0.10697114929E+03  0.00000000000E+00 0. -1.
         -5    1    3    3    0  503 -0.27544455553E+01 -0.13934653234E+03 -0.16739158431E+03  0.21786940020E+03  0.47000000000E+01 0.  1.
         11    1    4    4    0    0 -0.16628875633E+02  0.18385951495E+02 -0.11353260358E+03  0.11620763655E+03  0.00000000000E+00 0. -1.
        -12    1    4    4    0    0  0.35678951242E+02 -0.13760200443E+02 -0.43836187117E+02  0.58171659585E+02  0.00000000000E+00 0.  1.
</event>
<event>
12    1  0.8562501E-002  0.2135361E+03  0.7818608E-02  0.1140576E+00
         21   -1    0    0  501  502  0.00000000000E+00  0.00000000000E+00  0.20957068151E+03  0.20957068151E+03  0.00000000000E+00 0. -1.
         21   -1    0    0  502  503 -0.00000000000E+00 -0.00000000000E+00 -0.20852460626E+03  0.20852460626E+03  0.00000000000E+00 0. -1.
         -6    2    1    2    0  503 -0.10350690006E+03  0.37937983018E+02 -0.27862750987E+00  0.20455506981E+03  0.17230708063E+03 0.  0.
        -24    2    3    3    0    0 -0.13626121995E+03  0.26473793296E+02  0.23758565497E+02  0.16207978564E+03  0.80233444922E+02 0.  0.
          6    2    1    2  501    0  0.10350690006E+03 -0.37937983018E+02  0.13247027623E+01  0.21354021796E+03  0.18287892425E+03 0.  0.
         24    2    5    5    0    0  0.13244518236E+03 -0.69001543298E+02 -0.90891225502E+01  0.16957538296E+03  0.79813902611E+02 0.  0.
          5    1    5    5  501    0 -0.28938282294E+02  0.31063560280E+02  0.10413825313E+02  0.43964835005E+02  0.47000000000E+01 0. -1.
        -13    1    6    6    0    0  0.30874246088E+02 -0.59718144639E+02 -0.61774067244E+00  0.67229885275E+02  0.00000000000E+00 0.  1.
         14    1    6    6    0    0  0.10157093627E+03 -0.92833986587E+01 -0.84713818778E+01  0.10234549768E+03  0.00000000000E+00 0. -1.
         -5    1    3    3    0  503  0.32754319892E+02  0.11464189721E+02 -0.24037193007E+02  0.42475284168E+02  0.47000000000E+01 0.  1.
         11    1    4    4    0    0 -0.48021253383E+02 -0.28897363887E+02  0.54614362789E+01  0.56310973197E+02  0.00000000000E+00 0. -1.
        -12    1    4    4    0    0 -0.88239966570E+02  0.55371157184E+02  0.18297129218E+02  0.10576881244E+03  0.00000000000E+00 0.  1.
</event>
<event>
12    1  0.8562501E-002  0.2322142E+03  0.7818608E-02  0.1125233E+00
         21   -1    0    0  501  502  0.00000000000E+00  0.00000000000E+00  0.75775876518E+02  0.75775876518E+02  0.00000000000E+00 0. -1.
         21   -1    0    0  502  503 -0.00000000000E+00 -0.00000000000E+00 -0.10885906179E+04  0.10885906179E+04  0.00000000000E+00 0. -1.
         -6    2    1    2    0  503 -0.13153525167E+03 -0.78124283632E+02 -0.84955425760E+03  0.88050488535E+03  0.17361304792E+03 0.  0.
        -24    2    3    3    0    0 -0.48965314486E+02 -0.70088438288E+02 -0.69662100310E+03  0.70645592768E+03  0.80555351089E+02 0.  0.
          6    2    1    2  501    0  0.13153525167E+03  0.78124283632E+02 -0.16326048379E+03  0.28386160907E+03  0.17469545332E+03 0.  0.
         24    2    5    5    0    0  0.16085736016E+03  0.40471201970E+02 -0.12183219382E+03  0.22049021319E+03  0.79119164279E+02 0.  0.
          5    1    5    5  501    0 -0.29322108495E+02  0.37653081661E+02 -0.41428289972E+02  0.63371395875E+02  0.47000000000E+01 0. -1.
        -13    1    6    6    0    0  0.12045807463E+02 -0.12924205051E+02  0.43655985098E+01  0.18198763803E+02  0.00000000000E+00 0.  1.
         14    1    6    6    0    0  0.14881155270E+03  0.53395407021E+02 -0.12619779233E+03  0.20229144939E+03  0.00000000000E+00 0. -1.
         -5    1    3    3    0  503 -0.82569937183E+02 -0.80358453440E+01 -0.15293325450E+03  0.17404895768E+03  0.47000000000E+01 0.  1.
         11    1    4    4    0    0 -0.16371904965E+02 -0.78652044203E+02 -0.56035255402E+03  0.56608229801E+03  0.00000000000E+00 0. -1.
        -12    1    4    4    0    0 -0.32593409521E+02  0.85636059151E+01 -0.13626844908E+03  0.14037362966E+03  0.00000000000E+00 0.  1.
</event>
<event>
12    1  0.8562501E-002  0.2277585E+03  0.7818608E-02  0.1128988E+00
         21   -1    0    0  501  502  0.00000000000E+00  0.00000000000E+00  0.42532337541E+03  0.42532337541E+03  0.00000000000E+00 0.  1.
         21   -1    0    0  502  503 -0.00000000000E+00 -0.00000000000E+00 -0.13057092209E+03  0.13057092209E+03  0.00000000000E+00 0. -1.
         -6    2    1    2    0  503  0.99029815008E+02  0.11049483624E+03  0.22879366588E+03  0.32283194730E+03  0.17279441992E+03 0.  0.
        -24    2    3    3    0    0  0.60851369791E+02 -0.81202537826E+01  0.12556116020E+03  0.16094873789E+03  0.79812677883E+02 0.  0.
          6    2    1    2  501    0 -0.99029815008E+02 -0.11049483624E+03  0.65958787450E+02  0.23306235020E+03  0.16718697419E+03 0.  0.
         24    2    5    5    0    0 -0.50486206792E+02 -0.85332056913E+02  0.10650468732E+03  0.16482960616E+03  0.77428248286E+02 0.  0.
          5    1    5    5  501    0 -0.48543608216E+02 -0.25162779332E+02 -0.40545899871E+02  0.68232744036E+02  0.47000000000E+01 0. -1.
        -11    1    6    6    0    0  0.87775325015E+01  0.77251331939E+01  0.30772664409E+00  0.11696899391E+02  0.00000000000E+00 0.  1.
         12    1    6    6    0    0 -0.59263739293E+02 -0.93057190107E+02  0.10619696068E+03  0.15313270677E+03  0.00000000000E+00 0. -1.
         -5    1    3    3    0  503  0.38178445217E+02  0.11861509003E+03  0.10323250568E+03  0.16188320941E+03  0.47000000000E+01 0.  1.
         11    1    4    4    0    0  0.24376441211E+02  0.12638241324E+02 -0.11361071355E+01  0.27481389508E+02  0.00000000000E+00 0. -1.
        -12    1    4    4    0    0  0.36474928580E+02 -0.20758495107E+02  0.12669726733E+03  0.13346734838E+03  0.00000000000E+00 0.  1.
</event>
<event>
12    1  0.8562501E-002  0.1840323E+03  0.7818608E-02  0.1164982E+00
         21   -1    0    0  501  502  0.00000000000E+00  0.00000000000E+00  0.11238492122E+04  0.11238492122E+04  0.00000000000E+00 0. -1.
         21   -1    0    0  502  503 -0.00000000000E+00 -0.00000000000E+00 -0.45179553875E+02  0.45179553875E+02  0.00000000000E+00 0.  1.
         -6    2    1    2    0  503 -0.44905871012E+02  0.49430006220E+02  0.19844895246E+03  0.27064711856E+03  0.17148764762E+03 0.  0.
        -24    2    3    3    0    0 -0.35417522685E+02  0.10062766341E+02  0.21141494936E+03  0.22786843924E+03  0.76629528312E+02 0.  0.
          6    2    1    2  501    0  0.44905871012E+02 -0.49430006220E+02  0.88022070582E+03  0.89838164747E+03  0.16685691712E+03 0.  0.
         24    2    5    5    0    0  0.88548366218E+02 -0.59315451710E+02  0.70275864469E+03  0.71530444364E+03  0.80197247072E+02 0.  0.
          5    1    5    5  501    0 -0.43642495207E+02  0.98854454906E+01  0.17746206113E+03  0.18307720383E+03  0.47000000000E+01 0. -1.
        -11    1    6    6    0    0  0.71475034140E+00  0.19570381648E+01 -0.17387240577E+01  0.27136742210E+01  0.00000000000E+00 0.  1.
         12    1    6    6    0    0  0.87833615877E+02 -0.61272489875E+02  0.70449736875E+03  0.71259076942E+03  0.00000000000E+00 0. -1.
         -5    1    3    3    0  503 -0.94883483270E+01  0.39367239879E+02 -0.12965996891E+02  0.42778679328E+02  0.47000000000E+01 0.  1.
         11    1    4    4    0    0 -0.46687398028E+02 -0.11458842084E+02  0.73466662476E+02  0.87797315972E+02  0.00000000000E+00 0. -1.
        -12    1    4    4    0    0  0.11269875343E+02  0.21521608425E+02  0.13794828688E+03  0.14007112326E+03  0.00000000000E+00 0.  1.
</event>
<event>
12    1  0.8562501E-002  0.2495585E+03  0.7818608E-02  0.1113678E+00
         21   -1    0    0  503  502  0.00000000000E+00  0.00000000000E+00  0.22179096896E+03  0.22179096896E+03  0.00000000000E+00 0.  1.
         21   -1    0    0  501  503 -0.00000000000E+00 -0.00000000000E+00 -0.34444838912E+03  0.34444838912E+03  0.00000000000E+00 0.  1.
          6    2    1    2  501    0  0.13577656998E+03  0.11787950427E+03 -0.18360456932E+03  0.30934642336E+03  0.17220254727E+03 0.  0.
         24    2    3    3    0    0  0.16227113596E+03  0.11783594493E+03 -0.18578796824E+03  0.28234973551E+03  0.70618499787E+02 0.  0.
         -6    2    1    2    0  502 -0.13577656998E+03 -0.11787950427E+03  0.60947149157E+02  0.25689293473E+03  0.17305655273E+03 0.  0.
        -24    2    5    5    0    0 -0.30784903437E+02 -0.59149225319E+01  0.57582678824E+02  0.10329369232E+03  0.79819329647E+02 0.  0.
          5    1    3    3  501    0 -0.26494565982E+02  0.43559337783E-01  0.21833989235E+01  0.26996687849E+02  0.47000000000E+01 0. -1.
        -13    1    4    4    0    0  0.13757219953E+03  0.80208943080E+02 -0.10779142932E+03  0.19229814577E+03  0.00000000000E+00 0.  1.
         14    1    4    4    0    0  0.24698936433E+02  0.37627001853E+02 -0.77996538922E+02  0.90051589731E+02  0.00000000000E+00 0. -1.
         -5    1    5    5    0  502 -0.10499166654E+03 -0.11196458174E+03  0.33644703331E+01  0.15359924241E+03  0.47000000000E+01 0.  1.
         11    1    6    6    0    0  0.24303717829E+02  0.31818571918E+01  0.35742351019E+02  0.43339480522E+02  0.00000000000E+00 0. -1.
        -12    1    6    6    0    0 -0.55088621266E+02 -0.90967797236E+01  0.21840327805E+02  0.59954211803E+02  0.00000000000E+00 0.  1.
</event>
<event>
12    1  0.8562501E-002  0.2394696E+03  0.7818608E-02  0.1120171E+00
         21   -1    0    0  503  502  0.00000000000E+00  0.00000000000E+00  0.14204035285E+03  0.14204035285E+03  0.00000000000E+00 0.  1.
         21   -1    0    0  501  503 -0.00000000000E+00 -0.00000000000E+00 -0.41461842612E+03  0.41461842612E+03  0.00000000000E+00 0. -1.
          6    2    1    2  501    0  0.87962311056E+02  0.14184793018E+03 -0.18186769885E+03  0.30058440498E+03  0.17151361803E+03 0.  0.
         24    2    3    3    0    0  0.95684195567E+02  0.41329510263E+02 -0.65542973268E+02  0.14658079455E+03  0.79539011098E+02 0.  0.
         -6    2    1    2    0  502 -0.87962311056E+02 -0.14184793018E+03 -0.90710374414E+02  0.25607437398E+03  0.17171927534E+03 0.  0.
        -24    2    5    5    0    0 -0.10862911928E+03 -0.48533732995E+02 -0.68444458921E+02  0.15782714832E+03  0.77903504380E+02 0.  0.
          5    1    3    3  501    0 -0.77218845107E+01  0.10051841992E+03 -0.11632472558E+03  0.15400361043E+03  0.47000000000E+01 0. -1.
        -13    1    4    4    0    0  0.95482789432E+02  0.33190120836E+02 -0.80717865106E+02  0.12935965734E+03  0.00000000000E+00 0.  1.
         14    1    4    4    0    0  0.20140613542E+00  0.81393894275E+01  0.15174891838E+02  0.17221137215E+02  0.00000000000E+00 0. -1.
         -5    1    5    5    0  502  0.20666808222E+02 -0.93314197189E+02 -0.22265915493E+02  0.98247225670E+02  0.47000000000E+01 0.  1.
         11    1    6    6    0    0 -0.33351520739E+02 -0.29994306283E+02 -0.66577249616E+02  0.80277721140E+02  0.00000000000E+00 0. -1.
        -12    1    6    6    0    0 -0.75277598539E+02 -0.18539426712E+02 -0.18672093056E+01  0.77549427175E+02  0.00000000000E+00 0.  1.
</event>
<event>
12    1  0.8562501E-002  0.1864536E+03  0.7818608E-02  0.1162358E+00
         21   -1    0    0  503  502  0.00000000000E+00  0.00000000000E+00  0.32595489684E+03  0.32595489684E+03  0.00000000000E+00 0. -1.
         21   -1    0    0  501  503 -0.00000000000E+00 -0.00000000000E+00 -0.13951388264E+03  0.13951388264E+03  0.00000000000E+00 0. -1.
          6    2    1    2  501    0 -0.69206808030E+02  0.13857830248E+02 -0.22995020195E+02  0.18506124167E+03  0.16952070811E+03 0.  0.
         24    2    3    3    0    0  0.12085646319E+02  0.32096166305E+02  0.22743351023E+02  0.89902486749E+02  0.79931035082E+02 0.  0.
         -6    2    1    2    0  502  0.69206808030E+02 -0.13857830248E+02  0.20943603440E+03  0.28040753781E+03  0.17257842571E+03 0.  0.
        -24    2    5    5    0    0 -0.24117130133E+02 -0.18850888869E+02  0.13780831739E+03  0.16256481248E+03  0.80617578346E+02 0.  0.
          5    1    3    3  501    0 -0.81292454349E+02 -0.18238336057E+02 -0.45738371219E+02  0.95158754921E+02  0.47000000000E+01 0. -1.
        -13    1    4    4    0    0  0.14200335118E+02 -0.21164182992E+02  0.26118878995E+02  0.36493396651E+02  0.00000000000E+00 0.  1.
         14    1    4    4    0    0 -0.21146887991E+01  0.53260349297E+02 -0.33755279719E+01  0.53409090097E+02  0.00000000000E+00 0. -1.
         -5    1    5    5    0  502  0.93323938163E+02  0.49930586209E+01  0.71627717005E+02  0.11784272532E+03  0.47000000000E+01 0.  1.
         13    1    6    6    0    0  0.79401912903E+01 -0.13608991078E+02  0.12752243989E+03  0.12849211630E+03  0.00000000000E+00 0. -1.
        -14    1    6    6    0    0 -0.32057321423E+02 -0.52418977915E+01  0.10285877503E+02  0.34072696184E+02  0.00000000000E+00 0.  1.
</event>
<event>
12    1  0.8562501E-002  0.2130140E+03  0.7818608E-02  0.1139614E+00
         21   -1    0    0  503  502  0.00000000000E+00  0.00000000000E+00  0.92948642167E+03  0.92948642167E+03  0.00000000000E+00 0. -1.
         21   -1    0    0  501  503 -0.00000000000E+00 -0.00000000000E+00 -0.56208076209E+02  0.56208076209E+02  0.00000000000E+00 0.  1.
          6    2    1    2  501    0 -0.10225879423E+03  0.64479096600E+02  0.62296880286E+03  0.65838065822E+03  0.17538684924E+03 0.  0.
         24    2    3    3    0    0 -0.50222016087E+02  0.27890002187E+02  0.13974185166E+03  0.17096198349E+03  0.80000697319E+02 0.  0.
         -6    2    1    2    0  502  0.10225879423E+03 -0.64479096600E+02  0.25030954260E+03  0.32731383966E+03  0.17281512555E+03 0.  0.
        -24    2    5    5    0    0  0.18514935868E+01 -0.34214747301E+02  0.54281774648E+02  0.10494807640E+03  0.83027168562E+02 0.  0.
          5    1    3    3  501    0 -0.52036778148E+02  0.36589094413E+02  0.48322695121E+03  0.48741867474E+03  0.47000000000E+01 0. -1.
        -13    1    4    4    0    0 -0.32688502025E+02 -0.25988685416E+02  0.56141457245E+02  0.69970087580E+02  0.00000000000E+00 0.  1.
         14    1    4    4    0    0 -0.17533514062E+02  0.53878687603E+02  0.83600394413E+02  0.10099189591E+03  0.00000000000E+00 0. -1.
         -5    1    5    5    0  502  0.10040730065E+03 -0.30264349299E+02  0.19602776795E+03  0.22236576326E+03  0.47000000000E+01 0.  1.
         13    1    6    6    0    0 -0.11288125676E+02 -0.40988239800E+02  0.70922866789E+02  0.82689241239E+02  0.00000000000E+00 0. -1.
        -14    1    6    6    0    0  0.13139619263E+02  0.67734924990E+01 -0.16641092141E+02  0.22258835159E+02  0.00000000000E+00 0.  1.
</event>
<event>
12    1  0.8562501E-002  0.1881234E+03  0.7818608E-02  0.1160518E+00
         21   -1    0    0  503  502  0.00000000000E+00  0.00000000000E+00  0.21511267687E+04  0.21511267687E+04  0.00000000000E+00 0. -1.
         21   -1    0    0  501  503 -0.00000000000E+00 -0.00000000000E+00 -0.16368697481E+02  0.16368697481E+02  0.00000000000E+00 0. -1.
          6    2    1    2  501    0 -0.41308138611E+02  0.60820936375E+02  0.10026054156E+04  0.10198195300E+04  0.17148966678E+03 0.  0.
         24    2    3    3    0    0 -0.47961742771E+02  0.80222225773E+02  0.98446341527E+03  0.99203639387E+03  0.78943375144E+02 0.  0.
         -6    2    1    2    0  502  0.41308138611E+02 -0.60820936375E+02  0.11321526556E+04  0.11476759362E+04  0.17316139925E+03 0.  0.
        -24    2    5    5    0    0  0.85896603669E+02 -0.12583794822E+02  0.55594023153E+03  0.56771231599E+03  0.75439739391E+02 0.  0.
          5    1    3    3  501    0  0.66536041601E+01 -0.19401289398E+02  0.18142000330E+02  0.27783136155E+02  0.47000000000E+01 0. -1.
        -13    1    4    4    0    0  0.11266307430E+02 -0.89853342207E+01  0.16019248495E+03  0.16083935510E+03  0.00000000000E+00 0.  1.
         14    1    4    4    0    0 -0.59228050201E+02  0.89207559994E+02  0.82427093032E+03  0.83119703877E+03  0.00000000000E+00 0. -1.
         -5    1    5    5    0  502 -0.44588465058E+02 -0.48237141553E+02  0.57621242409E+03  0.57996362016E+03  0.47000000000E+01 0.  1.
         13    1    6    6    0    0 -0.12800596522E+02 -0.26626143193E+01  0.11563431971E+03  0.11637113336E+03  0.00000000000E+00 0. -1.
        -14    1    6    6    0    0  0.98697200191E+02 -0.99211805027E+01  0.44030591182E+03  0.45134118263E+03  0.00000000000E+00 0.  1.
</event>
<event>
12    1  0.8562501E-002  0.2030292E+03  0.7818608E-02  0.1147604E+00
         21   -1    0    0  503  502  0.00000000000E+00  0.00000000000E+00  0.93041515475E+03  0.93041515475E+03  0.00000000000E+00 0. -1.
         21   -1    0    0  501  503 -0.00000000000E+00 -0.00000000000E+00 -0.45214576001E+02  0.45214576001E+02  0.00000000000E+00 0. -1.
          6    2    1    2  501    0 -0.10117262642E+03 -0.38841538330E+02  0.52409468649E+03  0.56136130088E+03  0.16943052939E+03 0.  0.
         24    2    3    3    0    0 -0.70272698960E+02 -0.48395982144E+02  0.17799413254E+03  0.21372100351E+03  0.81941032558E+02 0.  0.
         -6    2    1    2    0  502  0.10117262642E+03  0.38841538330E+02  0.36110589226E+03  0.41426842987E+03  0.17168663641E+03 0.  0.
        -24    2    5    5    0    0  0.93232891622E+02  0.77263246544E+02  0.33881479062E+03  0.36890048674E+03  0.81425582173E+02 0.  0.
          5    1    3    3  501    0 -0.30899927456E+02  0.95544438136E+01  0.34610055395E+03  0.34764029737E+03  0.47000000000E+01 0. -1.
        -11    1    4    4    0    0 -0.39893757384E+02 -0.69930303959E+02  0.13100292340E+03  0.15376451226E+03  0.00000000000E+00 0.  1.
         12    1    4    4    0    0 -0.30378941576E+02  0.21534321815E+02  0.46991209137E+02  0.59956491254E+02  0.00000000000E+00 0. -1.
         -5    1    5    5    0  502  0.79397347939E+01 -0.38421708214E+02  0.22291101644E+02  0.45367943123E+02  0.47000000000E+01 0.  1.
         13    1    6    6    0    0 -0.67411161450E+01  0.16756404948E+02  0.11652191854E+02  0.21494030071E+02  0.00000000000E+00 0. -1.
        -14    1    6    6    0    0  0.99974007767E+02  0.60506841596E+02  0.32716259876E+03  0.34740645667E+03  0.00000000000E+00 0.  1.
</event>
<event>
12    1  0.8562501E-002  0.1921543E+03  0.7818608E-02  0.1156757E+00
         21   -1    0    0  501  502  0.00000000000E+00  0.00000000000E+00  0.44626293447E+03  0.44626293447E+03  0.00000000000E+00 0.  1.
         21   -1    0    0  502  503 -0.00000000000E+00 -0.00000000000E+00 -0.13764137812E+03  0.13764137812E+03  0.00000000000E+00 0. -1.
         -6    2    1    2    0  503 -0.19179365519E+02  0.80655095983E+02 -0.31045365534E+02  0.19365198944E+03  0.17223294030E+03 0.  0.
        -24    2    3    3    0    0 -0.39029971128E+02  0.10841151691E+03  0.97443881984E+01  0.14026323168E+03  0.79387816544E+02 0.  0.
          6    2    1    2  501    0  0.19179365519E+02 -0.80655095983E+02  0.33966692189E+03  0.39025232315E+03  0.17334983510E+03 0.  0.
         24    2    5    5    0    0  0.88649434645E+01 -0.73545518849E+02  0.35395442996E+03  0.37067794509E+03  0.81430153611E+02 0.  0.
          5    1    5    5  501    0  0.10314422054E+02 -0.71095771347E+01 -0.14287508078E+02  0.19574378060E+02  0.47000000000E+01 0. -1.
        -11    1    6    6    0    0  0.13035863517E+02  0.20017695474E+00  0.19461104120E+03  0.19504725367E+03  0.00000000000E+00 0.  1.
         12    1    6    6    0    0 -0.41709200528E+01 -0.73745695803E+02  0.15934338877E+03  0.17563069142E+03  0.00000000000E+00 0. -1.
         -5    1    3    3    0  503  0.19850605609E+02 -0.27756420928E+02 -0.40789753732E+02  0.53388757762E+02  0.47000000000E+01 0.  1.
         13    1    4    4    0    0 -0.61820015288E+02  0.78720727585E+02  0.18585671893E+02  0.10180419658E+03  0.00000000000E+00 0. -1.
        -14    1    4    4    0    0  0.22790044160E+02  0.29690789327E+02 -0.88412836949E+01  0.38459035103E+02  0.00000000000E+00 0.  1.
</event>
<event>
12    1  0.8562501E-002  0.1798036E+03  0.7818608E-02  0.1168113E+00
         21   -1    0    0  501  502  0.00000000000E+00  0.00000000000E+00  0.94266040480E+02  0.94266040480E+02  0.00000000000E+00 0.  1.
         21   -1    0    0  502  503 -0.00000000000E+00 -0.00000000000E+00 -0.41945107306E+03  0.41945107306E+03  0.00000000000E+00 0.  1.
         -6    2    1    2    0  503  0.34562080236E+02  0.40015730365E+02 -0.27313627262E+03  0.32700573020E+03  0.17185321672E+03 0.  0.
        -24    2    3    3    0    0 -0.22472987178E+01 -0.33644369837E+02 -0.83317821554E+02  0.12004226698E+03  0.79569419383E+02 0.  0.
          6    2    1    2  501    0 -0.34562080236E+02 -0.40015730365E+02 -0.52048759960E+02  0.18671138334E+03  0.17133671874E+03 0.  0.
         24    2    5    5    0    0  0.23564431125E+02 -0.55348253084E+02 -0.72141049158E+02  0.12315379008E+03  0.79648060266E+02 0.  0.
          5    1    5    5  501    0 -0.58126511361E+02  0.15332522719E+02  0.20092289198E+02  0.63557593261E+02  0.47000000000E+01 0. -1.
        -13    1    6    6    0    0 -0.24697231155E+02 -0.40049176277E+02 -0.22154923725E+02  0.52007022530E+02  0.00000000000E+00 0.  1.
         14    1    6    6    0    0  0.48261662280E+02 -0.15299076807E+02 -0.49986125433E+02  0.71146767551E+02  0.00000000000E+00 0. -1.
         -5    1    3    3    0  503  0.36809378953E+02  0.73660100202E+02 -0.18981845107E+03  0.20696346322E+03  0.47000000000E+01 0.  1.
         13    1    4    4    0    0  0.16457355434E+02 -0.47068732366E+02 -0.83224461392E+02  0.97018663609E+02  0.00000000000E+00 0. -1.
        -14    1    4    4    0    0 -0.18704654152E+02  0.13424362529E+02 -0.93360161898E-01  0.23023603375E+02  0.00000000000E+00 0.  1.
</event>
<event>
12    1  0.8562501E-002  0.2526087E+03  0.7818608E-02  0.1112127E+00
         21   -1    0    0  503  502  0.00000000000E+00  0.00000000000E+00  0.59662674616E+03  0.59662674616E+03  0.00000000000E+00 0.  1.
         21   -1    0    0  501  503 -0.00000000000E+00 -0.00000000000E+00 -0.20941809874E+03  0.20941809874E+03  0.00000000000E+00 0.  1.
          6    2    1    2  501    0 -0.13020086879E+03  0.12671571931E+03 -0.89430024137E+02  0.26797180594E+03  0.17550504212E+03 0.  0.
         24    2    3    3    0    0 -0.12340913163E+03  0.25440357212E+02 -0.67131246376E+02  0.16394223249E+03  0.80581795772E+02 0.  0.
         -6    2    1    2    0  502  0.13020086879E+03 -0.12671571931E+03  0.47663867156E+03  0.53807303896E+03  0.17125721085E+03 0.  0.
        -24    2    5    5    0    0  0.12028037591E+03 -0.36353731457E+02  0.36452368762E+03  0.39365848064E+03  0.79375801892E+02 0.  0.
          5    1    3    3  501    0 -0.67917371576E+01  0.10127536210E+03 -0.22298777762E+02  0.10402957345E+03  0.47000000000E+01 0. -1.
        -13    1    4    4    0    0  0.12002888908E+00 -0.10299132082E+02 -0.27520130117E+02  0.29384419174E+02  0.00000000000E+00 0.  1.
         14    1    4    4    0    0 -0.12352916052E+03  0.35739489295E+02 -0.39611116259E+02  0.13455781332E+03  0.00000000000E+00 0. -1.
         -5    1    5    5    0  502  0.99204928748E+01 -0.90361987856E+02  0.11211498394E+03  0.14441455831E+03  0.47000000000E+01 0.  1.
         13    1    6    6    0    0  0.50510467619E+02 -0.76811046839E+01  0.54969870029E+02  0.75046607647E+02  0.00000000000E+00 0. -1.
        -14    1    6    6    0    0  0.69769908293E+02 -0.28672626773E+02  0.30955381759E+03  0.31861187300E+03  0.00000000000E+00 0.  1.
</event>
<event>
12    1  0.8562501E-002  0.2092692E+03  0.7818608E-02  0.1142232E+00
         21   -1    0    0  501  502  0.00000000000E+00  0.00000000000E+00  0.16757076040E+03  0.16757076040E+03  0.00000000000E+00 0. -1.
         21   -1    0    0  502  503 -0.00000000000E+00 -0.00000000000E+00 -0.26664930625E+03  0.26664930625E+03  0.00000000000E+00 0. -1.
         -6    2    1    2    0  503  0.47561685471E+02 -0.10946087272E+03 -0.81739503507E+02  0.22466633715E+03  0.17190061092E+03 0.  0.
        -24    2    3    3    0    0 -0.16364787604E+02 -0.10241147162E+03 -0.90805076999E+02  0.15954673458E+03  0.80334816328E+02 0.  0.
          6    2    1    2  501    0 -0.47561685471E+02  0.10946087272E+03 -0.17339042344E+02  0.20955372950E+03  0.17137189552E+03 0.  0.
         24    2    5    5    0    0 -0.44279780738E+02  0.18938833774E+02  0.42534754239E+02  0.10087083319E+03  0.77758223118E+02 0.  0.
          5    1    5    5  501    0 -0.32819047333E+01  0.90522038945E+02 -0.59873796583E+02  0.10868289631E+03  0.47000000000E+01 0. -1.
        -11    1    6    6    0    0  0.10137902613E+02 -0.19984761225E+02  0.20661866914E+02  0.30480821757E+02  0.00000000000E+00 0.  1.
         12    1    6    6    0    0 -0.54417683351E+02  0.38923594999E+02  0.21872887324E+02  0.70390011428E+02  0.00000000000E+00 0. -1.
         -5    1    3    3    0  503  0.63926473075E+02 -0.70494010984E+01  0.90655734917E+01  0.65119602566E+02  0.47000000000E+01 0.  1.
         11    1    4    4    0    0  0.14166498878E+02 -0.97188837427E+02 -0.56420953759E+02  0.11326819427E+03  0.00000000000E+00 0. -1.
        -12    1    4    4    0    0 -0.30531286482E+02 -0.52226341927E+01 -0.34384123240E+02  0.46278540309E+02  0.00000000000E+00 0.  1.
</event>
<event>
12    1  0.8562501E-002  0.2329842E+03  0.7818608E-02  0.1124727E+00
         21   -1    0    0  501  502  0.00000000000E+00  0.00000000000E+00  0.36639179516E+03  0.36639179516E+03  0.00000000000E+00 0.  1.
         21   -1    0    0  502  503 -0.00000000000E+00 -0.00000000000E+00 -0.14940354164E+03  0.14940354164E+03  0.00000000000E+00 0. -1.
         -6    2    1    2    0  503  0.12173889119E+03 -0.99004382328E+02  0.13761857788E+03  0.27059286658E+03  0.17221904981E+03 0.  0.
        -24    2    3    3    0    0  0.11360425279E+03 -0.37194784606E+02  0.44819109030E+02  0.15869813868E+03  0.94270718849E+02 0.  0.
          6    2    1    2  501    0 -0.12173889119E+03  0.99004382328E+02  0.79369675634E+02  0.24520247022E+03  0.17088733319E+03 0.  0.
         24    2    5    5    0    0 -0.17008890726E+02  0.97637748276E+02  0.39115920936E+02  0.13289621281E+03  0.79428684095E+02 0.  0.
          5    1    5    5  501    0 -0.10473000046E+03  0.13666340523E+01  0.40253754697E+02  0.11230625741E+03  0.47000000000E+01 0. -1.
        -13    1    6    6    0    0 -0.15036156807E+02  0.78130817728E+02  0.63364225970E+02  0.10171300715E+03  0.00000000000E+00 0.  1.
         14    1    6    6    0    0 -0.19727339184E+01  0.19506930547E+02 -0.24248305033E+02  0.31183205664E+02  0.00000000000E+00 0. -1.
         -5    1    3    3    0  503  0.81346384034E+01 -0.61809597722E+02  0.92799468854E+02  0.11189472790E+03  0.47000000000E+01 0.  1.
         11    1    4    4    0    0  0.41676453443E+02 -0.48324605086E+02 -0.13746447630E+02  0.65277553958E+02  0.00000000000E+00 0. -1.
        -12    1    4    4    0    0  0.71927799344E+02  0.11129820481E+02  0.58565556660E+02  0.93420584719E+02  0.00000000000E+00 0.  1.
</event>
<event>
12    1  0.8562501E-002  0.1863862E+03  0.7818608E-02  0.1163163E+00
         21   -1    0    0  501  502  0.00000000000E+00  0.00000000000E+00  0.45652253718E+02  0.45652253718E+02  0.00000000000E+00 0. -1.
         21   -1    0    0  502  503 -0.00000000000E+00 -0.00000000000E+00 -0.21332519588E+04  0.21332519588E+04  0.00000000000E+00 0. -1.
         -6    2    1    2    0  503 -0.31361090659E+02  0.44918102484E+02 -0.19193465068E+04  0.19278086764E+04  0.17191313458E+03 0.  0.
        -24    2    3    3    0    0 -0.49310479823E+02  0.87930562655E+02 -0.15802853502E+04  0.15855269063E+04  0.80190242854E+02 0.  0.
          6    2    1    2  501    0  0.31361090659E+02 -0.44918102484E+02 -0.16825319835E+03  0.25109553615E+03  0.17815351689E+03 0.  0.
         24    2    5    5    0    0 -0.41371219511E+02  0.30383875173E+01 -0.12516649646E+03  0.15378999800E+03  0.79144816916E+02 0.  0.
          5    1    5    5  501    0  0.72732310170E+02 -0.47956490001E+02 -0.43086701889E+02  0.97305538155E+02  0.47000000000E+01 0. -1.
        -13    1    6    6    0    0 -0.39932778642E+00 -0.32561197396E+02 -0.65380276803E+02  0.73040890146E+02  0.00000000000E+00 0.  1.
         14    1    6    6    0    0 -0.40971891725E+02  0.35599584913E+02 -0.59786219658E+02  0.80749107849E+02  0.00000000000E+00 0. -1.
         -5    1    3    3    0  503  0.17949389165E+02 -0.43012460171E+02 -0.33906115653E+03  0.34228177013E+03  0.47000000000E+01 0.  1.
         13    1    4    4    0    0 -0.57207739178E+02  0.21593221928E+02 -0.66410251529E+03  0.66691164593E+03  0.00000000000E+00 0. -1.
        -14    1    4    4    0    0  0.78972593548E+01  0.66337340727E+02 -0.91618283493E+03  0.91861526033E+03  0.00000000000E+00 0.  1.
</event>
<event>
12    1  0.8562501E-002  0.1879520E+03  0.7818608E-02  0.1160517E+00
         21   -1    0    0  503  502  0.00000000000E+00  0.00000000000E+00  0.15696718084E+03  0.15696718084E+03  0.00000000000E+00 0. -1.
         21   -1    0    0  501  503 -0.00000000000E+00 -0.00000000000E+00 -0.61499969860E+03  0.61499969860E+03  0.00000000000E+00 0. -1.
          6    2    1    2  501    0  0.32421597808E+02 -0.66347461731E+02 -0.53657863067E+03  0.56826255332E+03  0.17190857143E+03 0.  0.
         24    2    3    3    0    0 -0.22212259311E+02 -0.74775558204E+02 -0.21794073778E+03  0.24483081718E+03  0.79744562764E+02 0.  0.
         -6    2    1    2    0  502 -0.32421597808E+02  0.66347461731E+02  0.78546112907E+02  0.20370432612E+03  0.17283753917E+03 0.  0.
        -24    2    5    5    0    0 -0.18005916871E+02  0.10173037365E+03  0.94182507921E+02  0.16215496799E+03  0.82162076891E+02 0.  0.
          5    1    3    3  501    0  0.54633857119E+02  0.84280964726E+01 -0.31863789289E+03  0.32343173614E+03  0.47000000000E+01 0. -1.
        -13    1    4    4    0    0 -0.51306411869E+02 -0.40616420615E+02 -0.11091033239E+03  0.12877555417E+03  0.00000000000E+00 0.  1.
         14    1    4    4    0    0  0.29094152558E+02 -0.34159137590E+02 -0.10703040539E+03  0.11605526301E+03  0.00000000000E+00 0. -1.
         -5    1    5    5    0  502 -0.14415680937E+02 -0.35382911917E+02 -0.15636395015E+02  0.41549358138E+02  0.47000000000E+01 0.  1.
         13    1    6    6    0    0  0.27962207909E+02  0.66534336390E+02  0.65854063727E+02  0.97700873585E+02  0.00000000000E+00 0. -1.
        -14    1    6    6    0    0 -0.45968124780E+02  0.35196037259E+02  0.28328444194E+02  0.64454094400E+02  0.00000000000E+00 0.  1.
</event>
<event>
12    1  0.8562501E-002  0.4481792E+03  0.7818608E-02  0.1028357E+00
         21   -1    0    0  501  502  0.00000000000E+00  0.00000000000E+00  0.16570283361E+03  0.16570283361E+03  0.00000000000E+00 0.  1.
         21   -1    0    0  502  503 -0.00000000000E+00 -0.00000000000E+00 -0.12155117558E+04  0.12155117558E+04  0.00000000000E+00 0. -1.
         -6    2    1    2    0  503 -0.36705178815E+03 -0.19225758013E+03 -0.57498133997E+03  0.72827825231E+03  0.16761765766E+03 0.  0.
        -24    2    3    3    0    0 -0.33359263394E+03 -0.20625304710E+03 -0.56106379760E+03  0.68914800720E+03  0.79423082288E+02 0.  0.
          6    2    1    2  501    0  0.36705178815E+03  0.19225758013E+03 -0.47482758225E+03  0.65293633714E+03  0.17080584060E+03 0.  0.
         24    2    5    5    0    0  0.10889624498E+03  0.41032277678E+02 -0.15047509129E+03  0.21164277842E+03  0.92778621331E+02 0.  0.
          5    1    5    5  501    0  0.25815554317E+03  0.15122530246E+03 -0.32435249096E+03  0.44129355872E+03  0.47000000000E+01 0. -1.
        -13    1    6    6    0    0  0.85267265765E+02  0.49821611551E+02 -0.15711318620E+03  0.18557276974E+03  0.00000000000E+00 0.  1.
         14    1    6    6    0    0  0.23628979211E+02 -0.87893338725E+01  0.66380949151E+01  0.26070008680E+02  0.00000000000E+00 0. -1.
         -5    1    3    3    0  503 -0.33459154210E+02  0.13995466963E+02 -0.13917542374E+02  0.39130245102E+02  0.47000000000E+01 0.  1.
         11    1    4    4    0    0 -0.20187862841E+03 -0.15267779533E+03 -0.30590037916E+03  0.39703971056E+03  0.00000000000E+00 0. -1.
        -12    1    4    4    0    0 -0.13171400553E+03 -0.53575251763E+02 -0.25516341844E+03  0.29210829664E+03  0.00000000000E+00 0.  1.
</event>
<event>
12    1  0.8562501E-002  0.1814729E+03  0.7818608E-02  0.1167069E+00
         21   -1    0    0  501  502  0.00000000000E+00  0.00000000000E+00  0.46480118250E+02  0.46480118250E+02  0.00000000000E+00 0.  1.
         21   -1    0    0  502  503 -0.00000000000E+00 -0.00000000000E+00 -0.76488318676E+03  0.76488318676E+03  0.00000000000E+00 0.  1.
         -6    2    1    2    0  503  0.11465764890E+02  0.50227356809E+02 -0.47702302500E+03  0.50937534740E+03  0.17104977937E+03 0.  0.
        -24    2    3    3    0    0 -0.21600106878E+02  0.56275316921E+02 -0.46133300905E+03  0.47198288429E+03  0.79411723972E+02 0.  0.
          6    2    1    2  501    0 -0.11465764890E+02 -0.50227356809E+02 -0.24138004351E+03  0.30198795761E+03  0.17400617805E+03 0.  0.
         24    2    5    5    0    0 -0.42715908117E+02  0.18265835739E+02 -0.73857566366E+02  0.11826599587E+03  0.79834930377E+02 0.  0.
          5    1    5    5  501    0  0.31250143227E+02 -0.68493192547E+02 -0.16752247715E+03  0.18372196174E+03  0.47000000000E+01 0. -1.
        -13    1    6    6    0    0 -0.60218827119E+02 -0.79852499544E+01 -0.46388567833E+02  0.76432784733E+02  0.00000000000E+00 0.  1.
         14    1    6    6    0    0  0.17502919002E+02  0.26251085693E+02 -0.27468998533E+02  0.41833211137E+02  0.00000000000E+00 0. -1.
         -5    1    3    3    0  503  0.33065871768E+02 -0.60479601118E+01 -0.15690015944E+02  0.37392463112E+02  0.47000000000E+01 0.  1.
         11    1    4    4    0    0 -0.24274135041E+02 -0.13241748102E+02 -0.88647818847E+02  0.92860181516E+02  0.00000000000E+00 0. -1.
        -12    1    4    4    0    0  0.26740281632E+01  0.69517065023E+02 -0.37268519021E+03  0.37912270277E+03  0.00000000000E+00 0.  1.
</event>
<event>
12    1  0.8562501E-002  0.1883409E+03  0.7818608E-02  0.1160235E+00
         21   -1    0    0  503  502  0.00000000000E+00  0.00000000000E+00  0.10486748359E+03  0.10486748359E+03  0.00000000000E+00 0.  1.
         21   -1    0    0  501  503 -0.00000000000E+00 -0.00000000000E+00 -0.36845459892E+03  0.36845459892E+03  0.00000000000E+00 0.  1.
          6    2    1    2  501    0  0.82389695233E+01 -0.72474190698E+02 -0.20149300469E+03  0.27500930438E+03  0.17236675324E+03 0.  0.
         24    2    3    3    0    0  0.18486821856E+02 -0.95018258147E+02 -0.21300907471E+03  0.24729715319E+03  0.80079860791E+02 0.  0.
         -6    2    1    2    0  502 -0.82389695233E+01  0.72474190698E+02 -0.62094110642E+02  0.19831277813E+03  0.17364299714E+03 0.  0.
        -24    2    5    5    0    0  0.56548413400E+02  0.40377317616E+02 -0.65723304522E+02  0.12576710082E+03  0.81668598959E+02 0.  0.
          5    1    3    3  501    0 -0.10247852333E+02  0.22544067449E+02  0.11516070026E+02  0.27712151187E+02  0.47000000000E+01 0. -1.
        -13    1    4    4    0    0  0.13491233481E+02 -0.28311425973E+02 -0.90393230043E+01  0.32638314630E+02  0.00000000000E+00 0.  1.
         14    1    4    4    0    0  0.49955883747E+01 -0.66706832173E+02 -0.20396975171E+03  0.21465883856E+03  0.00000000000E+00 0. -1.
         -5    1    5    5    0  502 -0.64787382924E+02  0.32096873083E+02  0.36291938797E+01  0.72545677307E+02  0.47000000000E+01 0.  1.
         11    1    6    6    0    0  0.31580885821E+02  0.11399440216E+01  0.13129873861E+02  0.34220540750E+02  0.00000000000E+00 0. -1.
        -12    1    6    6    0    0  0.24967527579E+02  0.39237373594E+02 -0.78853178382E+02  0.91546560072E+02  0.00000000000E+00 0.  1.
</event>
<event>
12    1  0.8562501E-002  0.2776476E+03  0.7818608E-02  0.1097073E+00
         21   -1    0    0  501  502  0.00000000000E+00  0.00000000000E+00  0.10038052503E+04  0.10038052503E+04  0.00000000000E+00 0. -1.
         21   -1    0    0  502  503 -0.00000000000E+00 -0.00000000000E+00 -0.78893502529E+02  0.78893502529E+02  0.00000000000E+00 0. -1.
         -6    2    1    2    0  503  0.55513096116E+02 -0.21043145199E+03  0.36986567118E+03  0.46208266132E+03  0.17133788649E+03 0.  0.
        -24    2    3    3    0    0  0.53978023487E+02 -0.86918595371E+02  0.96125366201E+02  0.16172682773E+03  0.80293284530E+02 0.  0.
          6    2    1    2  501    0 -0.55513096116E+02  0.21043145199E+03  0.55504607659E+03  0.62061609151E+03  0.17240964611E+03 0.  0.
         24    2    5    5    0    0 -0.99768954093E+02  0.11387759887E+03  0.31490375677E+03  0.35799154717E+03  0.77920601220E+02 0.  0.
          5    1    5    5  501    0  0.44255857977E+02  0.96553853125E+02  0.24014231982E+03  0.26262454434E+03  0.47000000000E+01 0. -1.
        -13    1    6    6    0    0 -0.44390278892E+02  0.19523819057E+02  0.42661227491E+02  0.64588363516E+02  0.00000000000E+00 0.  1.
         14    1    6    6    0    0 -0.55378675201E+02  0.94353779811E+02  0.27224252928E+03  0.29340318365E+03  0.00000000000E+00 0. -1.
         -5    1    3    3    0  503  0.15350726290E+01 -0.12351285662E+03  0.27374030498E+03  0.30035583358E+03  0.47000000000E+01 0.  1.
         11    1    4    4    0    0  0.69486318218E+02 -0.75442257584E+02  0.55188821069E+02  0.11647183617E+03  0.00000000000E+00 0. -1.
        -12    1    4    4    0    0 -0.15508294731E+02 -0.11476337787E+02  0.40936545132E+02  0.45254991568E+02  0.00000000000E+00 0.  1.
</event>
<event>
12    1  0.8562501E-002  0.2005861E+03  0.7818608E-02  0.1149590E+00
         21   -1    0    0  501  502  0.00000000000E+00  0.00000000000E+00  0.31118073711E+03  0.31118073711E+03  0.00000000000E+00 0. -1.
         21   -1    0    0  502  503 -0.00000000000E+00 -0.00000000000E+00 -0.13841380056E+03  0.13841380056E+03  0.00000000000E+00 0. -1.
         -6    2    1    2    0  503 -0.20774684061E+02  0.99060058175E+02  0.25787814163E+02  0.20223695930E+03  0.17317705888E+03 0.  0.
        -24    2    3    3    0    0 -0.91040121165E+01 -0.13889263435E+02  0.31099257179E+02  0.88465015202E+02  0.81136307793E+02 0.  0.
          6    2    1    2  501    0  0.20774684061E+02 -0.99060058175E+02  0.14697912239E+03  0.24735757837E+03  0.17128463602E+03 0.  0.
         24    2    5    5    0    0  0.15708157717E+02 -0.17883249384E+02  0.39194716869E+01  0.82726179075E+02  0.79130914431E+02 0.  0.
          5    1    5    5  501    0  0.50665263435E+01 -0.81176808791E+02  0.14305965070E+03  0.16463139929E+03  0.47000000000E+01 0. -1.
        -11    1    6    6    0    0  0.43247228395E+02  0.20046069766E+00  0.18068884044E+02  0.46870539990E+02  0.00000000000E+00 0.  1.
         12    1    6    6    0    0 -0.27539070678E+02 -0.18083710082E+02 -0.14149412357E+02  0.35855639085E+02  0.00000000000E+00 0. -1.
         -5    1    3    3    0  503 -0.11670671944E+02  0.11294932161E+03 -0.53114430162E+01  0.11377194409E+03  0.47000000000E+01 0.  1.
         11    1    4    4    0    0 -0.17356821543E+01  0.22998517136E+02  0.43182188940E+02  0.48955549478E+02  0.00000000000E+00 0. -1.
        -12    1    4    4    0    0 -0.73683299622E+01 -0.36887780571E+02 -0.12082931761E+02  0.39509465725E+02  0.00000000000E+00 0.  1.
</event>
<event>
12    1  0.8562501E-002  0.2243806E+03  0.7818608E-02  0.1130675E+00
         21   -1    0    0  503  502  0.00000000000E+00  0.00000000000E+00  0.13315545807E+03  0.13315545807E+03  0.00000000000E+00 0. -1.
         21   -1    0    0  501  503 -0.00000000000E+00 -0.00000000000E+00 -0.38945931586E+03  0.38945931586E+03  0.00000000000E+00 0. -1.
          6    2    1    2  501    0 -0.89504274738E+02  0.11295892473E+03 -0.17308931250E+03  0.28338409529E+03  0.17197645621E+03 0.  0.
         24    2    3    3    0    0 -0.10041903802E+03  0.47379375312E+02 -0.16534324127E+03  0.21628788840E+03  0.84340232598E+02 0.  0.
         -6    2    1    2    0  502  0.89504274738E+02 -0.11295892473E+03 -0.83214545291E+02  0.23923067864E+03  0.17186018498E+03 0.  0.
        -24    2    5    5    0    0  0.12132958278E+03 -0.89834946807E+02 -0.98040623163E+02  0.19692853718E+03  0.79860501136E+02 0.  0.
          5    1    3    3  501    0  0.10914763281E+02  0.65579549415E+02 -0.77460712259E+01  0.67096206885E+02  0.47000000000E+01 0. -1.
        -11    1    4    4    0    0 -0.75966897576E+02  0.14609553104E+02 -0.45696020519E+02  0.89847286328E+02  0.00000000000E+00 0.  1.
         12    1    4    4    0    0 -0.24452140443E+02  0.32769822208E+02 -0.11964722075E+03  0.12644060208E+03  0.00000000000E+00 0. -1.
         -5    1    5    5    0  502 -0.31825308038E+02 -0.23123977921E+02  0.14826077872E+02  0.42302141455E+02  0.47000000000E+01 0.  1.
         11    1    6    6    0    0  0.38792246371E+02 -0.62886757454E+02 -0.12303902125E+02  0.74906399253E+02  0.00000000000E+00 0. -1.
        -12    1    6    6    0    0  0.82537336405E+02 -0.26948189353E+02 -0.85736721037E+02  0.12202213793E+03  0.00000000000E+00 0.  1.
</event>
<event>
12    1  0.8562501E-002  0.1949407E+03  0.7818608E-02  0.1155694E+00
         21   -1    0    0  503  502  0.00000000000E+00  0.00000000000E+00  0.53053727075E+02  0.53053727075E+02  0.00000000000E+00 0. -1.
         21   -1    0    0  501  503 -0.00000000000E+00 -0.00000000000E+00 -0.90352124494E+03  0.90352124494E+03  0.00000000000E+00 0. -1.
          6    2    1    2  501    0 -0.40038928869E+02  0.82359268897E+02 -0.65162105496E+03  0.67811172043E+03  0.16382716843E+03 0.  0.
         24    2    3    3    0    0  0.28539396476E+02  0.70374060691E+02 -0.47934838170E+03  0.49224457466E+03  0.82236516682E+02 0.  0.
         -6    2    1    2    0  502  0.40038928869E+02 -0.82359268897E+02 -0.19884646291E+03  0.27846325159E+03  0.17209213136E+03 0.  0.
        -24    2    5    5    0    0 -0.34062140591E+02 -0.83731524529E+02 -0.12637175618E+03  0.17469656765E+03  0.79861582552E+02 0.  0.
          5    1    3    3  501    0 -0.68578325344E+02  0.11985208206E+02 -0.17227267327E+03  0.18586714577E+03  0.47000000000E+01 0. -1.
        -11    1    4    4    0    0  0.34633862449E+02 -0.39979635173E+01 -0.20430069335E+03  0.20725409874E+03  0.00000000000E+00 0.  1.
         12    1    4    4    0    0 -0.60944659736E+01  0.74372024209E+02 -0.27504768835E+03  0.28499047592E+03  0.00000000000E+00 0. -1.
         -5    1    5    5    0  502  0.74101069459E+02  0.13722556320E+01 -0.72474706728E+02  0.10376668394E+03  0.47000000000E+01 0.  1.
         11    1    6    6    0    0 -0.22477165206E+02 -0.61364556329E+02 -0.24558611997E+02  0.69813731833E+02  0.00000000000E+00 0. -1.
        -12    1    6    6    0    0 -0.11584975384E+02 -0.22366968200E+02 -0.10181314418E+03  0.10488283582E+03  0.00000000000E+00 0.  1.
</event>
<event>
12    1  0.8562501E-002  0.2112650E+03  0.7818608E-02  0.1141116E+00
         21   -1    0    0  503  502  0.00000000000E+00  0.00000000000E+00  0.10047125213E+03  0.10047125213E+03  0.00000000000E+00 0.  1.
         21   -1    0    0  501  503 -0.00000000000E+00 -0.00000000000E+00 -0.48860599864E+03  0.48860599864E+03  0.00000000000E+00 0.  1.
          6    2    1    2  501    0 -0.81125409221E+02  0.88209495674E+02 -0.28730541978E+03  0.35498445060E+03  0.17060864219E+03 0.  0.
         24    2    3    3    0    0 -0.10799829925E+03  0.33237165653E+02 -0.16862447610E+03  0.22137544762E+03  0.88343268258E+02 0.  0.
         -6    2    1    2    0  502  0.81125409221E+02 -0.88209495674E+02 -0.10082932674E+03  0.23409280016E+03  0.17398459360E+03 0.  0.
        -24    2    5    5    0    0  0.72047920605E+02 -0.68769873461E+02 -0.13970280271E+03  0.18944375935E+03  0.80323511584E+02 0.  0.
          5    1    3    3  501    0  0.26872890032E+02  0.54972330021E+02 -0.11868094367E+03  0.13360900298E+03  0.47000000000E+01 0. -1.
        -11    1    4    4    0    0 -0.24676502411E+02  0.25316533261E-02  0.56981589976E+01  0.25325852278E+02  0.00000000000E+00 0.  1.
         12    1    4    4    0    0 -0.83321796842E+02  0.33234633999E+02 -0.17432263510E+03  0.19604959534E+03  0.00000000000E+00 0. -1.
         -5    1    5    5    0  502  0.90774886162E+01 -0.19439622212E+02  0.38873475972E+02  0.44649040813E+02  0.47000000000E+01 0.  1.
         13    1    6    6    0    0 -0.16607684020E+01 -0.37740673914E+02 -0.13661491473E+02  0.40171544262E+02  0.00000000000E+00 0. -1.
        -14    1    6    6    0    0  0.73708689007E+02 -0.31029199548E+02 -0.12604131124E+03  0.14927221509E+03  0.00000000000E+00 0.  1.
</event>
<event>
12    1  0.8562501E-002  0.1813269E+03  0.7818608E-02  0.1167017E+00
         21   -1    0    0  501  502  0.00000000000E+00  0.00000000000E+00  0.17336643710E+02  0.17336643710E+02  0.00000000000E+00 0.  1.
         21   -1    0    0  502  503 -0.00000000000E+00 -0.00000000000E+00 -0.19148998975E+04  0.19148998975E+04  0.00000000000E+00 0.  1.
         -6    2    1    2    0  503 -0.11945238821E+02 -0.51422784205E+02 -0.10930281376E+04  0.11079665840E+04  0.17347175594E+03 0.  0.
        -24    2    3    3    0    0 -0.74362307939E+02 -0.34923070597E+02 -0.76157177287E+03  0.77024844291E+03  0.80880930272E+02 0.  0.
          6    2    1    2  501    0  0.11945238821E+02  0.51422784205E+02 -0.80453511617E+03  0.82426995724E+03  0.17133948110E+03 0.  0.
         24    2    5    5    0    0 -0.43496218897E+02  0.74988449555E+02 -0.49543436986E+03  0.50931844162E+03  0.80217650879E+02 0.  0.
          5    1    5    5  501    0  0.55441457719E+02 -0.23565665350E+02 -0.30910074632E+03  0.31495151562E+03  0.47000000000E+01 0. -1.
        -13    1    6    6    0    0  0.89409278752E+01  0.61183276782E+02 -0.31057877555E+03  0.31667413751E+03  0.00000000000E+00 0.  1.
         14    1    6    6    0    0 -0.52437146772E+02  0.13805172773E+02 -0.18485559431E+03  0.19264430410E+03  0.00000000000E+00 0. -1.
         -5    1    3    3    0  503  0.62417069118E+02 -0.16499713608E+02 -0.33145636474E+03  0.33771814105E+03  0.47000000000E+01 0.  1.
         13    1    4    4    0    0 -0.65017484914E+01  0.24320080308E+02 -0.17379233742E+03  0.17560613766E+03  0.00000000000E+00 0. -1.
        -14    1    4    4    0    0 -0.67860559448E+02 -0.59243150905E+02 -0.58777943545E+03  0.59464230525E+03  0.00000000000E+00 0.  1.
</event>
<event>
12    1  0.8562501E-002  0.1784745E+03  0.7818608E-02  0.1169315E+00
         21   -1    0    0  503  502  0.00000000000E+00  0.00000000000E+00  0.28110723806E+03  0.28110723806E+03  0.00000000000E+00 0.  1.
         21   -1    0    0  501  503 -0.00000000000E+00 -0.00000000000E+00 -0.16285229081E+03  0.16285229081E+03  0.00000000000E+00 0.  1.
          6    2    1    2  501    0  0.37672673176E+02 -0.30569175978E+02 -0.63403654085E+02  0.18929698443E+03  0.17163804980E+03 0.  0.
         24    2    3    3    0    0  0.39872917372E+02  0.43669853939E+02 -0.57535853212E+02  0.11464582420E+03  0.79601412788E+02 0.  0.
         -6    2    1    2    0  502 -0.37672673176E+02  0.30569175978E+02  0.18165860133E+03  0.25466254444E+03  0.17175406627E+03 0.  0.
        -24    2    5    5    0    0 -0.74501217243E+02  0.47313645536E+02  0.75173880737E+02  0.14065462963E+03  0.79646720380E+02 0.  0.
          5    1    3    3  501    0 -0.22002441959E+01 -0.74239029917E+02 -0.58678008726E+01  0.74651160236E+02  0.47000000000E+01 0. -1.
        -11    1    4    4    0    0 -0.16253215858E+02 -0.98810523420E+01 -0.22679151564E+02  0.29599765823E+02  0.00000000000E+00 0.  1.
         12    1    4    4    0    0  0.56126133230E+02  0.53550906281E+02 -0.34856701648E+02  0.85046058372E+02  0.00000000000E+00 0. -1.
         -5    1    5    5    0  502  0.36828544067E+02 -0.16744469558E+02  0.10648472060E+03  0.11400791481E+03  0.47000000000E+01 0.  1.
         11    1    6    6    0    0 -0.41361494364E+02 -0.84613760759E+01  0.11637538784E+01  0.42234138138E+02  0.00000000000E+00 0. -1.
        -12    1    6    6    0    0 -0.33139722878E+02  0.55775021612E+02  0.74010126859E+02  0.98420491494E+02  0.00000000000E+00 0.  1.
</event>
<event>
12    1  0.8562501E-002  0.1910265E+03  0.7818608E-02  0.1159567E+00
         21   -1    0    0  501  502  0.00000000000E+00  0.00000000000E+00  0.14120806392E+03  0.14120806392E+03  0.00000000000E+00 0.  1.
         21   -1    0    0  502  503 -0.00000000000E+00 -0.00000000000E+00 -0.40767783784E+03  0.40767783784E+03  0.00000000000E+00 0.  1.
         -6    2    1    2    0  503 -0.58810770147E+02 -0.18719645056E+02 -0.30380214044E+03  0.35424559741E+03  0.17142074247E+03 0.  0.
        -24    2    3    3    0    0  0.11354897731E+02  0.40201950949E+02 -0.16844999538E+03  0.19073025073E+03  0.79104342730E+02 0.  0.
          6    2    1    2  501    0  0.58810770147E+02  0.18719645056E+02  0.37332366524E+02  0.19464030436E+03  0.18078166582E+03 0.  0.
         24    2    5    5    0    0 -0.27675481094E+02  0.22247976438E+02  0.60200632674E+02  0.10498893308E+03  0.78343188506E+02 0.  0.
          5    1    5    5  501    0  0.86486251241E+02 -0.35283313822E+01 -0.22868266151E+02  0.89651371282E+02  0.47000000000E+01 0. -1.
        -11    1    6    6    0    0  0.72944804761E+01 -0.23591376717E+01 -0.15926053959E+02  0.17675241743E+02  0.00000000000E+00 0.  1.
         12    1    6    6    0    0 -0.34969961570E+02  0.24607114110E+02  0.76126686633E+02  0.87313691336E+02  0.00000000000E+00 0. -1.
         -5    1    3    3    0  503 -0.70165667878E+02 -0.58921596004E+02 -0.13535214507E+03  0.16351534667E+03  0.47000000000E+01 0.  1.
         11    1    4    4    0    0  0.66037656796E+00 -0.16050588536E+02 -0.39404716876E+01  0.16540399230E+02  0.00000000000E+00 0. -1.
        -12    1    4    4    0    0  0.10694521163E+02  0.56252539485E+02 -0.16450952369E+03  0.17418985150E+03  0.00000000000E+00 0.  1.
</event>
<event>
12    1  0.8562501E-002  0.2648637E+03  0.7818608E-02  0.1104282E+00
         21   -1    0    0  503  502  0.00000000000E+00  0.00000000000E+00  0.32043073245E+03  0.32043073245E+03  0.00000000000E+00 0. -1.
         21   -1    0    0  501  503 -0.00000000000E+00 -0.00000000000E+00 -0.24047835793E+03  0.24047835793E+03  0.00000000000E+00 0. -1.
          6    2    1    2  501    0 -0.77041877515E+02  0.18516425895E+03 -0.44267686911E+02  0.26836266086E+03  0.17273574024E+03 0.  0.
         24    2    3    3    0    0 -0.98249460966E+02  0.89894884264E+02  0.11610396649E+02  0.15579949828E+03  0.80028966979E+02 0.  0.
         -6    2    1    2    0  502  0.77041877515E+02 -0.18516425895E+03  0.12422006144E+03  0.29254642952E+03  0.17300732956E+03 0.  0.
        -24    2    5    5    0    0  0.50281692155E+02 -0.13261137162E+03  0.15621341582E+03  0.22528887819E+03  0.78983687582E+02 0.  0.
          5    1    3    3  501    0  0.21207583451E+02  0.95269374684E+02 -0.55878083560E+02  0.11256316258E+03  0.47000000000E+01 0. -1.
        -13    1    4    4    0    0  0.47231274795E+01  0.31387284193E+02  0.19246577442E+02  0.37120079276E+02  0.00000000000E+00 0.  1.
         14    1    4    4    0    0 -0.10297258845E+03  0.58507600071E+02 -0.76361807925E+01  0.11867941900E+03  0.00000000000E+00 0. -1.
         -5    1    5    5    0  502  0.26760185360E+02 -0.52552887331E+02 -0.31993354381E+02  0.67257551337E+02  0.47000000000E+01 0.  1.
         13    1    6    6    0    0  0.70997631068E+02 -0.96887189543E+02  0.12629865606E+03  0.17429613202E+03  0.00000000000E+00 0. -1.
        -14    1    6    6    0    0 -0.20715938913E+02 -0.35724182074E+02  0.29914759755E+02  0.50992746162E+02  0.00000000000E+00 0.  1.
</event>
<event>
12    1  0.8562501E-002  0.1793057E+03  0.7818608E-02  0.1169010E+00
         21   -1    0    0  501  502  0.00000000000E+00  0.00000000000E+00  0.42019312583E+02  0.42019312583E+02  0.00000000000E+00 0. -1.
         21   -1    0    0  502  503 -0.00000000000E+00 -0.00000000000E+00 -0.75595904572E+03  0.75595904572E+03  0.00000000000E+00 0. -1.
         -6    2    1    2    0  503 -0.41057616350E+02 -0.68478692174E+01 -0.35898074192E+03  0.40030208690E+03  0.17216842491E+03 0.  0.
        -24    2    3    3    0    0 -0.47000428896E+02  0.68785149113E+01 -0.36992930194E+03  0.38117902207E+03  0.78698183874E+02 0.  0.
          6    2    1    2  501    0  0.41057616350E+02  0.68478692174E+01 -0.35495899121E+03  0.39767627140E+03  0.17440731125E+03 0.  0.
         24    2    5    5    0    0  0.47185587499E+02 -0.42865275128E+02 -0.10579215604E+03  0.14348116818E+03  0.73013381395E+02 0.  0.
          5    1    5    5  501    0 -0.61279711490E+01  0.49713144345E+02 -0.24916683517E+03  0.25419510322E+03  0.47000000000E+01 0. -1.
        -11    1    6    6    0    0  0.16548213922E+02 -0.28841972723E+02 -0.10460833023E+03  0.10976614017E+03  0.00000000000E+00 0.  1.
         12    1    6    6    0    0  0.30637373576E+02 -0.14023302405E+02 -0.11838258102E+01  0.33715028007E+02  0.00000000000E+00 0. -1.
         -5    1    3    3    0  503  0.59428125460E+01 -0.13726384129E+02  0.10948560020E+02  0.19123064836E+02  0.47000000000E+01 0.  1.
         13    1    4    4    0    0 -0.66038332470E+02  0.17987213254E+02 -0.24790254976E+03  0.25717751724E+03  0.00000000000E+00 0. -1.
        -14    1    4    4    0    0  0.19037903575E+02 -0.11108698343E+02 -0.12202675218E+03  0.12400150483E+03  0.00000000000E+00 0.  1.
</event>
<event>
12    1  0.8562501E-002  0.1724877E+03  0.7818608E-02  0.1175805E+00
         21   -1    0    0  503  502  0.00000000000E+00  0.00000000000E+00  0.10400239846E+03  0.10400239846E+03  0.00000000000E+00 0.  1.
         21   -1    0    0  501  503 -0.00000000000E+00 -0.00000000000E+00 -0.33161623495E+03  0.33161623495E+03  0.00000000000E+00 0.  1.
          6    2    1    2  501    0  0.18887243333E+02  0.93644825030E+00 -0.19804898643E+03  0.26263171740E+03  0.17144798937E+03 0.  0.
         24    2    3    3    0    0  0.46107349516E+02 -0.25649493354E+02 -0.48338789811E+02  0.10809052728E+03  0.81013204466E+02 0.  0.
         -6    2    1    2    0  502 -0.18887243333E+02 -0.93644825030E+00 -0.29564850058E+02  0.17298691602E+03  0.16938945616E+03 0.  0.
        -24    2    5    5    0    0 -0.47552003798E+02  0.47483772118E+02 -0.46904354605E+02  0.11391971149E+03  0.79131412882E+02 0.  0.
          5    1    3    3  501    0 -0.27220106182E+02  0.26585941604E+02 -0.14971019662E+03  0.15454119012E+03  0.47000000000E+01 0. -1.
        -11    1    4    4    0    0 -0.19875720318E+02 -0.54282999537E+01  0.46019156566E+01  0.21111331703E+02  0.00000000000E+00 0.  1.
         12    1    4    4    0    0  0.65983069834E+02 -0.20221193400E+02 -0.52940705468E+02  0.86979195574E+02  0.00000000000E+00 0. -1.
         -5    1    5    5    0  502  0.28664760465E+02 -0.48420220368E+02  0.17339504547E+02  0.59067204530E+02  0.47000000000E+01 0.  1.
         13    1    6    6    0    0 -0.55305324104E+02  0.63799623216E+02 -0.31299292363E+02  0.90048411975E+02  0.00000000000E+00 0. -1.
        -14    1    6    6    0    0  0.77533203062E+01 -0.16315851098E+02 -0.15605062242E+02  0.23871299512E+02  0.00000000000E+00 0.  1.
</event>
<event>
12    1  0.8562501E-002  0.1903094E+03  0.7818608E-02  0.1158338E+00
         21   -1    0    0  501  502  0.00000000000E+00  0.00000000000E+00  0.35291549514E+03  0.35291549514E+03  0.00000000000E+00 0. -1.
         21   -1    0    0  502  503 -0.00000000000E+00 -0.00000000000E+00 -0.49600998336E+03  0.49600998336E+03  0.00000000000E+00 0. -1.
         -6    2    1    2    0  503  0.75290589904E+02 -0.29889292224E+02 -0.44970907769E+03  0.48805129157E+03  0.17144610209E+03 0.  0.
        -24    2    3    3    0    0  0.49093531198E+02  0.32697643631E+02 -0.14352927049E+03  0.17440886018E+03  0.79614623773E+02 0.  0.
          6    2    1    2  501    0 -0.75290589904E+02  0.29889292224E+02  0.30661458948E+03  0.36087418693E+03  0.17220809967E+03 0.  0.
         24    2    5    5    0    0  0.12906520886E+01  0.33105268852E+02  0.66137646514E+02  0.10843354197E+03  0.79284425513E+02 0.  0.
          5    1    5    5  501    0 -0.76581241993E+02 -0.32159766273E+01  0.24047694297E+03  0.25244064496E+03  0.47000000000E+01 0. -1.
        -11    1    6    6    0    0  0.38066153668E+02  0.20447961924E+02  0.50631946966E+02  0.66563843455E+02  0.00000000000E+00 0.  1.
         12    1    6    6    0    0 -0.36775501580E+02  0.12657306928E+02  0.15505699547E+02  0.41869698513E+02  0.00000000000E+00 0. -1.
         -5    1    3    3    0  503  0.26197058706E+02 -0.62586935855E+02 -0.30617980720E+03  0.31364243138E+03  0.47000000000E+01 0.  1.
         13    1    4    4    0    0  0.12587310267E+02  0.13787405297E+02 -0.12969299375E+03  0.13102978879E+03  0.00000000000E+00 0. -1.
        -14    1    4    4    0    0  0.36506220931E+02  0.18910238334E+02 -0.13836276745E+02  0.43379071390E+02  0.00000000000E+00 0.  1.
</event>
<event>
12    1  0.8562501E-002  0.2231771E+03  0.7818608E-02  0.1131808E+00
         21   -1    0    0  503  502  0.00000000000E+00  0.00000000000E+00  0.34837923183E+03  0.34837923183E+03  0.00000000000E+00 0. -1.
         21   -1    0    0  501  503 -0.00000000000E+00 -0.00000000000E+00 -0.14203969980E+03  0.14203969980E+03  0.00000000000E+00 0. -1.
          6    2    1    2  501    0  0.14078630158E+03  0.10397469654E+02  0.10548021924E+03  0.24550950202E+03  0.17093843583E+03 0.  0.
         24    2    3    3    0    0  0.11957695520E+03  0.43485311310E+01  0.14594963505E+03  0.19918143658E+03  0.63674098105E+02 0.  0.
         -6    2    1    2    0  502 -0.14078630158E+03 -0.10397469654E+02  0.10085931279E+03  0.24490942960E+03  0.17285582908E+03 0.  0.
        -24    2    5    5    0    0 -0.11762632543E+03  0.50993242481E+02  0.32557869297E+02  0.15008126282E+03  0.70909148818E+02 0.  0.
          5    1    3    3  501    0  0.21209346383E+02  0.60489385228E+01 -0.40469415812E+02  0.46328065440E+02  0.47000000000E+01 0. -1.
        -11    1    4    4    0    0 -0.56277192646E+01  0.60531459038E+01  0.22202558702E+01  0.85581151887E+01  0.00000000000E+00 0.  1.
         12    1    4    4    0    0  0.12520467446E+03 -0.17046147728E+01  0.14372937918E+03  0.19062332139E+03  0.00000000000E+00 0. -1.
         -5    1    5    5    0  502 -0.23159976155E+02 -0.61390712135E+02  0.68301443491E+02  0.94828166780E+02  0.47000000000E+01 0.  1.
         13    1    6    6    0    0 -0.12111340227E+02  0.26624364520E+02 -0.13729058171E+02  0.32311428109E+02  0.00000000000E+00 0. -1.
        -14    1    6    6    0    0 -0.10551498520E+03  0.24368877961E+02  0.46286927468E+02  0.11776983471E+03  0.00000000000E+00 0.  1.
</event>
<event>
12    1  0.8562501E-002  0.2261995E+03  0.7818608E-02  0.1129414E+00
         21   -1    0    0  503  502  0.00000000000E+00  0.00000000000E+00  0.59258560860E+02  0.59258560860E+02  0.00000000000E+00 0.  1.
         21   -1    0    0  501  503 -0.00000000000E+00 -0.00000000000E+00 -0.16866929861E+04  0.16866929861E+04  0.00000000000E+00 0. -1.
          6    2    1    2  501    0 -0.78469051728E+02  0.12304988074E+03 -0.14237983249E+04  0.14415934046E+04  0.17231137239E+03 0.  0.
         24    2    3    3    0    0 -0.80046303973E+02  0.78096675492E+02 -0.58618927820E+03  0.60276429003E+03  0.84855276540E+02 0.  0.
         -6    2    1    2    0  502  0.78469051728E+02 -0.12304988074E+03 -0.20363610036E+03  0.30435814235E+03  0.17282231400E+03 0.  0.
        -24    2    5    5    0    0  0.94027705572E+02 -0.14917890934E+03 -0.18394683169E+03  0.26782657866E+03  0.82456551822E+02 0.  0.
          5    1    3    3  501    0  0.15772522445E+01  0.44953205250E+02 -0.83760904667E+03  0.83882911457E+03  0.47000000000E+01 0. -1.
        -13    1    4    4    0    0 -0.90732494082E+02  0.41150907770E+02 -0.46754679089E+03  0.47804370549E+03  0.00000000000E+00 0.  1.
         14    1    4    4    0    0  0.10686190109E+02  0.36945767722E+02 -0.11864248732E+03  0.12472058454E+03  0.00000000000E+00 0. -1.
         -5    1    5    5    0  502 -0.15558653844E+02  0.26129028601E+02 -0.19689268668E+02  0.36531563692E+02  0.47000000000E+01 0.  1.
         13    1    6    6    0    0  0.27215718625E+02 -0.91494419036E+02 -0.13940957566E+03  0.16895843821E+03  0.00000000000E+00 0. -1.
        -14    1    6    6    0    0  0.66811986947E+02 -0.57684490307E+02 -0.44537256031E+02  0.98868140453E+02  0.00000000000E+00 0.  1.
</event>
<event>
12    1  0.8562501E-002  0.1793764E+03  0.7818608E-02  0.1168655E+00
         21   -1    0    0  501  502  0.00000000000E+00  0.00000000000E+00  0.39937212230E+03  0.39937212230E+03  0.00000000000E+00 0.  1.
         21   -1    0    0  502  503 -0.00000000000E+00 -0.00000000000E+00 -0.98468141306E+02  0.98468141306E+02  0.00000000000E+00 0.  1.
         -6    2    1    2    0  503 -0.42456085880E+02  0.24857938151E+02  0.25827438085E+03  0.31445439272E+03  0.17249774775E+03 0.  0.
        -24    2    3    3    0    0 -0.76832858610E+02 -0.24187691235E+02  0.20230530748E+03  0.23234554156E+03  0.81047397723E+02 0.  0.
          6    2    1    2  501    0  0.42456085880E+02 -0.24857938151E+02  0.42629600143E+02  0.18338587089E+03  0.17144287245E+03 0.  0.
         24    2    5    5    0    0  0.70978658112E+02  0.27525397211E+02  0.55009703965E+02  0.12228834294E+03  0.78311901329E+02 0.  0.
          5    1    5    5  501    0 -0.28522572232E+02 -0.52383335362E+02 -0.12380103822E+02  0.61097527945E+02  0.47000000000E+01 0. -1.
        -11    1    6    6    0    0  0.69435605393E+02  0.49276438654E+02  0.33026941562E+02  0.91324966858E+02  0.00000000000E+00 0.  1.
         12    1    6    6    0    0  0.15430527198E+01 -0.21751041443E+02  0.21982762402E+02  0.30963376082E+02  0.00000000000E+00 0. -1.
         -5    1    3    3    0  503  0.34376772730E+02  0.49045629386E+02  0.55969073368E+02  0.82108851160E+02  0.47000000000E+01 0.  1.
         11    1    4    4    0    0  0.79585962860E+01 -0.22732637733E+02  0.20096287475E+02  0.31368341419E+02  0.00000000000E+00 0. -1.
        -12    1    4    4    0    0 -0.84791454896E+02 -0.14550535019E+01  0.18220902001E+03  0.20097720014E+03  0.00000000000E+00 0.  1.
</event>
<event>
12    1  0.8562501E-002  0.2284257E+03  0.7818608E-02  0.1128211E+00
         21   -1    0    0  503  502  0.00000000000E+00  0.00000000000E+00  0.60157391631E+03  0.60157391631E+03  0.00000000000E+00 0. -1.
         21   -1    0    0  501  503 -0.00000000000E+00 -0.00000000000E+00 -0.21304678482E+03  0.21304678482E+03  0.00000000000E+00 0. -1.
          6    2    1    2  501    0  0.14635647522E+03 -0.62643975409E+01 -0.12100106022E+03  0.25623260723E+03  0.17191402478E+03 0.  0.
         24    2    3    3    0    0  0.18337074675E+02 -0.15923024311E+02  0.92498897969E-01  0.79688006498E+02  0.75897159451E+02 0.  0.
         -6    2    1    2    0  502 -0.14635647522E+03  0.62643975409E+01  0.50952819172E+03  0.55838809390E+03  0.17526786568E+03 0.  0.
        -24    2    5    5    0    0  0.18862574431E+01  0.30811606254E+01  0.19213209269E+03  0.20803339583E+03  0.79687522358E+02 0.  0.
          5    1    3    3  501    0  0.12801940055E+03  0.96586267697E+01 -0.12109355912E+03  0.17654460073E+03  0.47000000000E+01 0. -1.
        -13    1    4    4    0    0  0.34188537427E+02 -0.25584101934E+02 -0.24225344455E+02  0.49094497422E+02  0.00000000000E+00 0.  1.
         14    1    4    4    0    0 -0.15851462752E+02  0.96610776234E+01  0.24317843353E+02  0.30593509076E+02  0.00000000000E+00 0. -1.
         -5    1    5    5    0  502 -0.14824273267E+03  0.31832369154E+01  0.31739609902E+03  0.35035469807E+03  0.47000000000E+01 0.  1.
         11    1    6    6    0    0 -0.14868402776E+02 -0.14895416348E+02  0.17888025519E+03  0.18011409863E+03  0.00000000000E+00 0. -1.
        -12    1    6    6    0    0  0.16754660219E+02  0.17976576974E+02  0.13251837503E+02  0.27919297196E+02  0.00000000000E+00 0.  1.
</event>
<event>
12    1  0.8562501E-002  0.2164781E+03  0.7818608E-02  0.1136818E+00
         21   -1    0    0  501  502  0.00000000000E+00  0.00000000000E+00  0.40897668024E+03  0.40897668024E+03  0.00000000000E+00 0. -1.
         21   -1    0    0  502  503 -0.00000000000E+00 -0.00000000000E+00 -0.11756993434E+03  0.11756993434E+03  0.00000000000E+00 0.  1.
         -6    2    1    2    0  503  0.32801745592E+02  0.12518851441E+03  0.19328100214E+03  0.29020739573E+03  0.17353578332E+03 0.  0.
        -24    2    3    3    0    0  0.68764248570E+02  0.23364053119E+02  0.97247837156E+02  0.14561838745E+03  0.80456025714E+02 0.  0.
          6    2    1    2  501    0 -0.32801745592E+02 -0.12518851441E+03  0.98125743758E+02  0.23633921886E+03  0.17169579531E+03 0.  0.
         24    2    5    5    0    0 -0.31503482603E+02 -0.41472801455E+02 -0.14386107378E+02  0.96014549863E+02  0.79368577052E+02 0.  0.
          5    1    5    5  501    0 -0.12982629890E+01 -0.83715712954E+02  0.11251185114E+03  0.14032466899E+03  0.47000000000E+01 0. -1.
        -13    1    6    6    0    0  0.14519244010E+02 -0.82822145898E+00 -0.29403915851E+02  0.32803729434E+02  0.00000000000E+00 0.  1.
         14    1    6    6    0    0 -0.46022726614E+02 -0.40644579996E+02  0.15017808472E+02  0.63210820429E+02  0.00000000000E+00 0. -1.
         -5    1    3    3    0  503 -0.35962502978E+02  0.10182446129E+03  0.96033164981E+02  0.14458900827E+03  0.47000000000E+01 0.  1.
         11    1    4    4    0    0  0.66437355352E+02  0.48199152976E+02  0.83713740454E+02  0.11723937425E+03  0.00000000000E+00 0. -1.
        -12    1    4    4    0    0  0.23268932184E+01 -0.24835099856E+02  0.13534096702E+02  0.28379013205E+02  0.00000000000E+00 0.  1.
</event>
<event>
12    1  0.8562501E-002  0.2956983E+03  0.7818608E-02  0.1087509E+00
         21   -1    0    0  503  502  0.00000000000E+00  0.00000000000E+00  0.38540516038E+03  0.38540516038E+03  0.00000000000E+00 0. -1.
         21   -1    0    0  501  503 -0.00000000000E+00 -0.00000000000E+00 -0.22790516328E+03  0.22790516328E+03  0.00000000000E+00 0.  1.
          6    2    1    2  501    0 -0.27554162422E+02  0.23848869539E+03  0.52769444404E+02  0.29961308070E+03  0.17131051973E+03 0.  0.
         24    2    3    3    0    0 -0.38285012880E+02  0.80522117935E+02  0.72942876685E+02  0.13993325068E+03  0.79442417511E+02 0.  0.
         -6    2    1    2    0  502  0.27554162422E+02 -0.23848869539E+03  0.10473055270E+03  0.31369724297E+03  0.17263076749E+03 0.  0.
        -24    2    5    5    0    0 -0.42209553203E+01 -0.12875803394E+03  0.12673281537E+03  0.19726414745E+03  0.79091653237E+02 0.  0.
          5    1    3    3  501    0  0.10730850458E+02  0.15796657745E+03 -0.20173432281E+02  0.15967983001E+03  0.47000000000E+01 0. -1.
        -11    1    4    4    0    0 -0.26562675698E+02 -0.91819492827E+01  0.10469144012E+02  0.29991447267E+02  0.00000000000E+00 0.  1.
         12    1    4    4    0    0 -0.11722337183E+02  0.89704067218E+02  0.62473732673E+02  0.10994180342E+03  0.00000000000E+00 0. -1.
         -5    1    5    5    0  502  0.31775117743E+02 -0.10973066144E+03 -0.22002262670E+02  0.11643309551E+03  0.47000000000E+01 0.  1.
         11    1    6    6    0    0  0.14159031566E+02 -0.13168387441E+03  0.10852290173E+03  0.17122599439E+03  0.00000000000E+00 0. -1.
        -12    1    6    6    0    0 -0.18379986887E+02  0.29258404683E+01  0.18209913640E+02  0.26038153067E+02  0.00000000000E+00 0.  1.
</event>
<event>
12    1  0.8562501E-002  0.2116495E+03  0.7818608E-02  0.1140400E+00
         21   -1    0    0  503  502  0.00000000000E+00  0.00000000000E+00  0.66999670717E+02  0.66999670717E+02  0.00000000000E+00 0. -1.
         21   -1    0    0  501  503 -0.00000000000E+00 -0.00000000000E+00 -0.11618604234E+04  0.11618604234E+04  0.00000000000E+00 0. -1.
          6    2    1    2  501    0 -0.21001251079E+02 -0.12116575808E+03 -0.94915822108E+03  0.97246946298E+03  0.17225949702E+03 0.  0.
         24    2    3    3    0    0 -0.41665456988E+02 -0.14586110617E+03 -0.68963288525E+03  0.71091189845E+03  0.82405936391E+02 0.  0.
         -6    2    1    2    0  502  0.21001251079E+02  0.12116575808E+03 -0.14570253165E+03  0.25639063118E+03  0.17141976126E+03 0.  0.
        -24    2    5    5    0    0  0.79056934864E+02  0.76825000508E+02 -0.78279346423E+02  0.15686907016E+03  0.79549792222E+02 0.  0.
          5    1    3    3  501    0  0.20664205910E+02  0.24695348088E+02 -0.25952533584E+03  0.26155756453E+03  0.47000000000E+01 0. -1.
        -13    1    4    4    0    0  0.12678735430E+02 -0.93475414215E+02 -0.31825122218E+03  0.33193710822E+03  0.00000000000E+00 0.  1.
         14    1    4    4    0    0 -0.54344192418E+02 -0.52385691952E+02 -0.37138166306E+03  0.37897479023E+03  0.00000000000E+00 0. -1.
         -5    1    5    5    0  502 -0.58055683786E+02  0.44340757572E+02 -0.67423185222E+02  0.99521561018E+02  0.47000000000E+01 0.  1.
         11    1    6    6    0    0  0.11079362811E+02  0.66218799579E+02 -0.38158524071E+02  0.77225349836E+02  0.00000000000E+00 0. -1.
        -12    1    6    6    0    0  0.67977572054E+02  0.10606200928E+02 -0.40120822352E+02  0.79643720322E+02  0.00000000000E+00 0.  1.
</event>
<event>
12    1  0.8562501E-002  0.2032119E+03  0.7818608E-02  0.1147525E+00
         21   -1    0    0  503  502  0.00000000000E+00  0.00000000000E+00  0.17514620532E+04  0.17514620532E+04  0.00000000000E+00 0.  1.
         21   -1    0    0  501  503 -0.00000000000E+00 -0.00000000000E+00 -0.56257813694E+02  0.56257813694E+02  0.00000000000E+00 0. -1.
          6    2    1    2  501    0 -0.28508000952E+02 -0.10575812514E+03  0.15792930983E+03  0.25736502459E+03  0.17116542240E+03 0.  0.
         24    2    3    3    0    0  0.65306776711E+01 -0.51092445633E+02  0.92695258322E+01  0.95075570541E+02  0.79374758286E+02 0.  0.
         -6    2    1    2    0  502  0.28508000952E+02  0.10575812514E+03  0.15372749296E+04  0.15503548423E+04  0.16848869549E+03 0.  0.
        -24    2    5    5    0    0 -0.48784541890E+02  0.53468827427E+02  0.79631408246E+03  0.80352596302E+03  0.79366291882E+02 0.  0.
          5    1    3    3  501    0 -0.35038678623E+02 -0.54665679509E+02  0.14865978400E+03  0.16228945405E+03  0.47000000000E+01 0. -1.
        -11    1    4    4    0    0 -0.99517291962E+01 -0.57929673076E+02  0.31405992461E+02  0.66642481190E+02  0.00000000000E+00 0.  1.
         12    1    4    4    0    0  0.16482406867E+02  0.68372274423E+01 -0.22136466629E+02  0.28433089351E+02  0.00000000000E+00 0. -1.
         -5    1    5    5    0  502  0.77292542842E+02  0.52289297716E+02  0.74096084717E+03  0.74682887925E+03  0.47000000000E+01 0.  1.
         11    1    6    6    0    0  0.11912330624E+02  0.62977448040E+01  0.25081817195E+02  0.28472140142E+02  0.00000000000E+00 0. -1.
        -12    1    6    6    0    0 -0.60696872513E+02  0.47171082623E+02  0.77123226527E+03  0.77505382288E+03  0.00000000000E+00 0.  1.
</event>
<event>
12    1  0.8562501E-002  0.1981605E+03  0.7818608E-02  0.1151362E+00
         21   -1    0    0  501  502  0.00000000000E+00  0.00000000000E+00  0.69057090451E+02  0.69057090451E+02  0.00000000000E+00 0.  1.
         21   -1    0    0  502  503 -0.00000000000E+00 -0.00000000000E+00 -0.59585040013E+03  0.59585040013E+03  0.00000000000E+00 0.  1.
         -6    2    1    2    0  503  0.53584529669E+02  0.80630567794E+02 -0.19108572871E+03  0.27507782757E+03  0.17257307212E+03 0.  0.
        -24    2    3    3    0    0  0.90839388733E+02  0.15050113417E+02 -0.12546076136E+03  0.17499063129E+03  0.80018859892E+02 0.  0.
          6    2    1    2  501    0 -0.53584529669E+02 -0.80630567794E+02 -0.33570758097E+03  0.38982966301E+03  0.17290169450E+03 0.  0.
         24    2    5    5    0    0  0.70005027097E+01 -0.63142027015E+02 -0.29641001498E+03  0.31537978793E+03  0.87003396712E+02 0.  0.
          5    1    5    5  501    0 -0.60585032379E+02 -0.17488540779E+02 -0.39297565989E+02  0.74449875081E+02  0.47000000000E+01 0. -1.
        -11    1    6    6    0    0 -0.34574549210E+00 -0.81516217724E+02 -0.27202180182E+03  0.28397336839E+03  0.00000000000E+00 0.  1.
         12    1    6    6    0    0  0.73462482018E+01  0.18374190709E+02 -0.24388213167E+02  0.31406419541E+02  0.00000000000E+00 0. -1.
         -5    1    3    3    0  503 -0.37254859063E+02  0.65580454377E+02 -0.65624967351E+02  0.10008719628E+03  0.47000000000E+01 0.  1.
         11    1    4    4    0    0  0.25481917338E+02 -0.20031812464E+02 -0.83944966414E+02  0.89985326626E+02  0.00000000000E+00 0. -1.
        -12    1    4    4    0    0  0.65357471395E+02  0.35081925881E+02 -0.41515794945E+02  0.85005304661E+02  0.00000000000E+00 0.  1.
</event>
<event>
12    1  0.8562501E-002  0.2422011E+03  0.7818608E-02  0.1118402E+00
         21   -1    0    0  503  502  0.00000000000E+00  0.00000000000E+00  0.43969429617E+03  0.43969429617E+03  0.00000000000E+00 0. -1.
         21   -1    0    0  501  503 -0.00000000000E+00 -0.00000000000E+00 -0.16783893128E+03  0.16783893128E+03  0.00000000000E+00 0.  1.
          6    2    1    2  501    0  0.30405497236E+01 -0.16995210310E+03 -0.21819209410E+01  0.24180408597E+03  0.17196363838E+03 0.  0.
         24    2    3    3    0    0 -0.20150082939E+02 -0.13868461050E+03 -0.56421150550E+02  0.17487542571E+03  0.88083036136E+02 0.  0.
         -6    2    1    2    0  502 -0.30405497236E+01  0.16995210310E+03  0.27403728582E+03  0.36572914147E+03  0.17253523875E+03 0.  0.
        -24    2    5    5    0    0 -0.39702953086E+02  0.17082414273E+03  0.26465620616E+03  0.32758485056E+03  0.80695195850E+02 0.  0.
          5    1    3    3  501    0  0.23190632663E+02 -0.31267492598E+02  0.54239229609E+02  0.66928660268E+02  0.47000000000E+01 0. -1.
        -13    1    4    4    0    0  0.32372990222E+02 -0.74749692084E+02 -0.39022942786E+02  0.90323402428E+02  0.00000000000E+00 0.  1.
         14    1    4    4    0    0 -0.52523073161E+02 -0.63934918415E+02 -0.17398207764E+02  0.84552023278E+02  0.00000000000E+00 0. -1.
         -5    1    5    5    0  502  0.36662403362E+02 -0.87203963538E+00  0.93810796624E+01  0.38144290910E+02  0.47000000000E+01 0.  1.
         13    1    6    6    0    0 -0.21905786801E+01  0.14677877935E+03  0.18339752771E+03  0.23491160438E+03  0.00000000000E+00 0. -1.
        -14    1    6    6    0    0 -0.37512374406E+02  0.24045363381E+02  0.81258678457E+02  0.92673246184E+02  0.00000000000E+00 0.  1.
</event>
<event>
12    1  0.8562501E-002  0.1822370E+03  0.7818608E-02  0.1166113E+00
         21   -1    0    0  503  502  0.00000000000E+00  0.00000000000E+00  0.46190994415E+02  0.46190994415E+02  0.00000000000E+00 0.  1.
         21   -1    0    0  501  503 -0.00000000000E+00 -0.00000000000E+00 -0.12953540468E+04  0.12953540468E+04  0.00000000000E+00 0.  1.
          6    2    1    2  501    0  0.52374735285E+02 -0.10047157981E+02 -0.10731192448E+04  0.10881644400E+04  0.17225816859E+03 0.  0.
         24    2    3    3    0    0  0.58710598029E+02 -0.67700918582E+02 -0.81005151523E+03  0.81873760465E+03  0.78214188233E+02 0.  0.
         -6    2    1    2    0  502 -0.52374735285E+02  0.10047157981E+02 -0.17604380759E+03  0.25338060122E+03  0.17425914209E+03 0.  0.
        -24    2    5    5    0    0 -0.12833748490E+02  0.35300442637E+02 -0.18615612136E+03  0.20515646917E+03  0.77616035529E+02 0.  0.
          5    1    3    3  501    0 -0.63358627447E+01  0.57653760601E+02 -0.26306772957E+03  0.26942683535E+03  0.47000000000E+01 0. -1.
        -13    1    4    4    0    0  0.75160382255E+02 -0.37614896030E+02 -0.61113394037E+03  0.61688625899E+03  0.00000000000E+00 0.  1.
         14    1    4    4    0    0 -0.16449784226E+02 -0.30086022551E+02 -0.19891757486E+03  0.20185134566E+03  0.00000000000E+00 0. -1.
         -5    1    5    5    0  502 -0.39540986795E+02 -0.25253284656E+02  0.10112313764E+02  0.48224132053E+02  0.47000000000E+01 0.  1.
         13    1    6    6    0    0 -0.34824085068E+01 -0.21666669596E+02 -0.93071494469E+02  0.95623610176E+02  0.00000000000E+00 0. -1.
        -14    1    6    6    0    0 -0.93513399828E+01  0.56967112233E+02 -0.93084626889E+02  0.10953285899E+03  0.00000000000E+00 0.  1.
</event>
<event>
12    1  0.8562501E-002  0.3031754E+03  0.7818608E-02  0.1083784E+00
         21   -1    0    0  503  502  0.00000000000E+00  0.00000000000E+00  0.85145037723E+03  0.85145037723E+03  0.00000000000E+00 0.  1.
         21   -1    0    0  501  503 -0.00000000000E+00 -0.00000000000E+00 -0.20571786388E+03  0.20571786388E+03  0.00000000000E+00 0. -1.
          6    2    1    2  501    0  0.13017086313E+03  0.21165270951E+03 -0.42442646878E+02  0.30517065334E+03  0.17200705316E+03 0.  0.
         24    2    3    3    0    0  0.18009984065E+02  0.27939045448E+02 -0.32016775636E+01  0.86326606522E+02  0.79605794185E+02 0.  0.
         -6    2    1    2    0  502 -0.13017086313E+03 -0.21165270951E+03  0.68817516022E+03  0.75199758777E+03  0.17370664295E+03 0.  0.
        -24    2    5    5    0    0 -0.23185191544E+02 -0.16088472615E+02  0.19128218238E+03  0.20737292242E+03  0.74955077194E+02 0.  0.
          5    1    3    3  501    0  0.11216087907E+03  0.18371366406E+03 -0.39240969315E+02  0.21884404682E+03  0.47000000000E+01 0. -1.
        -13    1    4    4    0    0  0.40551195163E+02  0.12518306028E+02  0.23177495716E+02  0.48356010202E+02  0.00000000000E+00 0.  1.
         14    1    4    4    0    0 -0.22541211099E+02  0.15420739420E+02 -0.26379173279E+02  0.37970596321E+02  0.00000000000E+00 0. -1.
         -5    1    5    5    0  502 -0.10698567159E+03 -0.19556423690E+03  0.49689297784E+03  0.54462466535E+03  0.47000000000E+01 0.  1.
         11    1    6    6    0    0 -0.15093101883E+02 -0.25616590109E+02  0.20455156264E+02  0.36089123445E+02  0.00000000000E+00 0. -1.
        -12    1    6    6    0    0 -0.80920896603E+01  0.95281174941E+01  0.17082702612E+03  0.17128379897E+03  0.00000000000E+00 0.  1.
</event>
<event>
12    1  0.8562501E-002  0.2166675E+03  0.7818608E-02  0.1137517E+00
         21   -1    0    0  503  502  0.00000000000E+00  0.00000000000E+00  0.18742420560E+03  0.18742420560E+03  0.00000000000E+00 0.  1.
         21   -1    0    0  501  503 -0.00000000000E+00 -0.00000000000E+00 -0.24816949084E+03  0.24816949084E+03  0.00000000000E+00 0. -1.
          6    2    1    2  501    0  0.10773422928E+03 -0.73481560982E+02 -0.18161225257E+01  0.21667506467E+03  0.17302768965E+03 0.  0.
         24    2    3    3    0    0  0.77605371550E+02 -0.89137344311E+02 -0.55009477421E+02  0.15339414634E+03  0.80843439316E+02 0.  0.
         -6    2    1    2    0  502 -0.10773422928E+03  0.73481560982E+02 -0.58929162708E+02  0.21891863177E+03  0.16566990419E+03 0.  0.
        -24    2    5    5    0    0 -0.12428135758E+03  0.33510380428E+02 -0.79135887263E+02  0.17094046542E+03  0.79933426215E+02 0.  0.
          5    1    3    3  501    0  0.30128857733E+02  0.15655783329E+02  0.53193354895E+02  0.63280918332E+02  0.47000000000E+01 0. -1.
        -13    1    4    4    0    0  0.11149785693E+02 -0.51404413668E+02  0.94214561799E+01  0.53436834694E+02  0.00000000000E+00 0.  1.
         14    1    4    4    0    0  0.66455585857E+02 -0.37732930643E+02 -0.64430933601E+02  0.99957311644E+02  0.00000000000E+00 0. -1.
         -5    1    5    5    0  502  0.16547128292E+02  0.39971180555E+02  0.20206724555E+02  0.47978166356E+02  0.47000000000E+01 0.  1.
         13    1    6    6    0    0 -0.10403321045E+03  0.56674313462E+02 -0.74182451439E+02  0.13977811984E+03  0.00000000000E+00 0. -1.
        -14    1    6    6    0    0 -0.20248147123E+02 -0.23163933035E+02 -0.49534358239E+01  0.31162345579E+02  0.00000000000E+00 0.  1.
</event>
<event>
12    1  0.8562501E-002  0.1872287E+03  0.7818608E-02  0.1161432E+00
         21   -1    0    0  503  502  0.00000000000E+00  0.00000000000E+00  0.49185123038E+03  0.49185123038E+03  0.00000000000E+00 0. -1.
         21   -1    0    0  501  503 -0.00000000000E+00 -0.00000000000E+00 -0.10972108832E+03  0.10972108832E+03  0.00000000000E+00 0. -1.
          6    2    1    2  501    0 -0.49862454131E+02 -0.53970899760E+02  0.11954029834E+02  0.18760996869E+03  0.17220766293E+03 0.  0.
         24    2    3    3    0    0  0.24109160362E+01 -0.19258179795E+02 -0.52320398101E+02  0.97661259740E+02  0.80147411633E+02 0.  0.
         -6    2    1    2    0  502  0.49862454131E+02  0.53970899760E+02  0.37017611222E+03  0.41396235000E+03  0.17010394117E+03 0.  0.
        -24    2    5    5    0    0  0.71521584806E+02  0.44255756927E+02  0.36879562889E+03  0.38972399865E+03  0.93811886891E+02 0.  0.
          5    1    3    3  501    0 -0.52273370167E+02 -0.34712719965E+02  0.64274427934E+02  0.89948708953E+02  0.47000000000E+01 0. -1.
        -11    1    4    4    0    0  0.13929076814E+02  0.26741392182E+02 -0.37209200766E+02  0.47892022909E+02  0.00000000000E+00 0.  1.
         12    1    4    4    0    0 -0.11518160777E+02 -0.45999571977E+02 -0.15111197335E+02  0.49769236831E+02  0.00000000000E+00 0. -1.
         -5    1    5    5    0  502 -0.21659130675E+02  0.97151428336E+01  0.13804833351E+01  0.24238351349E+02  0.47000000000E+01 0.  1.
         13    1    6    6    0    0  0.23748417050E+02  0.49840359676E+02  0.30430201409E+03  0.30926972782E+03  0.00000000000E+00 0. -1.
        -14    1    6    6    0    0  0.47773167756E+02 -0.55846027496E+01  0.64493614797E+02  0.80454270831E+02  0.00000000000E+00 0.  1.
</event>
<event>
12    1  0.8562501E-002  0.3656486E+03  0.7818608E-02  0.1056416E+00
         21   -1    0    0  501  502  0.00000000000E+00  0.00000000000E+00  0.81816860093E+03  0.81816860093E+03  0.00000000000E+00 0. -1.
         21   -1    0    0  502  503 -0.00000000000E+00 -0.00000000000E+00 -0.16839995045E+03  0.16839995045E+03  0.00000000000E+00 0.  1.
         -6    2    1    2    0  503 -0.14485819047E+02 -0.32254185801E+03  0.41137189018E+03  0.55006897050E+03  0.17060466334E+03 0.  0.
        -24    2    3    3    0    0 -0.75208388254E+02 -0.20064588739E+03  0.26974722490E+03  0.35353527395E+03  0.79426386002E+02 0.  0.
          6    2    1    2  501    0  0.14485819047E+02  0.32254185801E+03  0.23839676029E+03  0.43649958088E+03  0.17162686175E+03 0.  0.
         24    2    5    5    0    0 -0.27909014667E+02  0.18086221587E+03  0.66367003757E+02  0.20959261745E+03  0.77681605754E+02 0.  0.
          5    1    5    5  501    0  0.42394833714E+02  0.14167964214E+03  0.17202975654E+03  0.22690696344E+03  0.47000000000E+01 0. -1.
        -13    1    6    6    0    0 -0.52750338895E+02  0.87660389305E+02  0.36364956447E+02  0.10857878321E+03  0.00000000000E+00 0.  1.
         14    1    6    6    0    0  0.24841324227E+02  0.93201826562E+02  0.30002047310E+02  0.10101383423E+03  0.00000000000E+00 0. -1.
         -5    1    3    3    0  503  0.60722569207E+02 -0.12189597062E+03  0.14162466528E+03  0.19653369655E+03  0.47000000000E+01 0.  1.
         11    1    4    4    0    0 -0.78531537149E+02 -0.17988255186E+03  0.19811610803E+03  0.27888156456E+03  0.00000000000E+00 0. -1.
        -12    1    4    4    0    0  0.33231488956E+01 -0.20763335528E+02  0.71631116874E+02  0.74653709388E+02  0.00000000000E+00 0.  1.
</event>
<event>
12    1  0.8562501E-002  0.2040580E+03  0.7818608E-02  0.1146562E+00
         21   -1    0    0  501  502  0.00000000000E+00  0.00000000000E+00  0.35764440400E+03  0.35764440400E+03  0.00000000000E+00 0. -1.
         21   -1    0    0  502  503 -0.00000000000E+00 -0.00000000000E+00 -0.11814304955E+03  0.11814304955E+03  0.00000000000E+00 0. -1.
         -6    2    1    2    0  503 -0.99582898060E+02 -0.46942560675E+02  0.87026068699E+02  0.22184053698E+03  0.17181190188E+03 0.  0.
        -24    2    3    3    0    0 -0.65013355643E+02  0.26979721114E+02  0.91843699889E+02  0.13995734836E+03  0.78728345518E+02 0.  0.
          6    2    1    2  501    0  0.99582898060E+02  0.46942560675E+02  0.15247528575E+03  0.25394691657E+03  0.17064573269E+03 0.  0.
         24    2    5    5    0    0  0.90701845984E+02  0.85434568070E+02  0.15540926175E+03  0.21405699386E+03  0.78373896768E+02 0.  0.
          5    1    5    5  501    0  0.88810520761E+01 -0.38492007395E+02 -0.29339760025E+01  0.39889922718E+02  0.47000000000E+01 0. -1.
        -13    1    6    6    0    0 -0.47096153411E+01  0.42182119821E+02  0.44697453235E+02  0.61639062573E+02  0.00000000000E+00 0.  1.
         14    1    6    6    0    0  0.95411461325E+02  0.43252448250E+02  0.11071180852E+03  0.15241793128E+03  0.00000000000E+00 0. -1.
         -5    1    3    3    0  503 -0.34569542417E+02 -0.73922281790E+02 -0.48176311904E+01  0.81883188618E+02  0.47000000000E+01 0.  1.
         11    1    4    4    0    0 -0.61615821769E+02  0.25264980981E+02  0.10606356948E+03  0.12523701341E+03  0.00000000000E+00 0. -1.
        -12    1    4    4    0    0 -0.33975338739E+01  0.17147401329E+01 -0.14219869589E+02  0.14720334958E+02  0.00000000000E+00 0.  1.
</event>
<event>
12    1  0.8562501E-002  0.1797906E+03  0.7818608E-02  0.1168365E+00
         21   -1    0    0  503  502  0.00000000000E+00  0.00000000000E+00  0.26632157307E+03  0.26632157307E+03  0.00000000000E+00 0.  1.
         21   -1    0    0  501  503 -0.00000000000E+00 -0.00000000000E+00 -0.14692521285E+03  0.14692521285E+03  0.00000000000E+00 0.  1.
          6    2    1    2  501    0  0.33067906899E+02 -0.24834120515E+02 -0.27923575601E+02  0.18194614214E+03  0.17496986185E+03 0.  0.
         24    2    3    3    0    0  0.25484466923E+02  0.49701411598E+02  0.48366351299E+01  0.10004146879E+03  0.82856587362E+02 0.  0.
         -6    2    1    2    0  502 -0.33067906899E+02  0.24834120515E+02  0.14731993582E+03  0.23130064379E+03  0.17345490572E+03 0.  0.
        -24    2    5    5    0    0  0.47629415067E+02 -0.18208118337E+01  0.85260024137E+02  0.12596277866E+03  0.79532844515E+02 0.  0.
          5    1    3    3  501    0  0.75834399755E+01 -0.74535532113E+02 -0.32760210731E+02  0.81904673349E+02  0.47000000000E+01 0. -1.
        -13    1    4    4    0    0  0.36555005268E+02  0.28883186087E+02 -0.31847096335E+02  0.56433539617E+02  0.00000000000E+00 0.  1.
         14    1    4    4    0    0 -0.11070538345E+02  0.20818225511E+02  0.36683731465E+02  0.43607929174E+02  0.00000000000E+00 0. -1.
         -5    1    5    5    0  502 -0.80697321966E+02  0.26654932349E+02  0.62059911683E+02  0.10533786512E+03  0.47000000000E+01 0.  1.
         11    1    6    6    0    0  0.49609540133E+02 -0.32079538238E+02  0.39496534910E+02  0.71064615074E+02  0.00000000000E+00 0. -1.
        -12    1    6    6    0    0 -0.19801250659E+01  0.30258726404E+02  0.45763489227E+02  0.54898163586E+02  0.00000000000E+00 0.  1.
</event>
<event>
12    1  0.8562501E-002  0.1853355E+03  0.7818608E-02  0.1162927E+00
         21   -1    0    0  503  502  0.00000000000E+00  0.00000000000E+00  0.89027015568E+02  0.89027015568E+02  0.00000000000E+00 0. -1.
         21   -1    0    0  501  503 -0.00000000000E+00 -0.00000000000E+00 -0.82617380007E+03  0.82617380007E+03  0.00000000000E+00 0. -1.
          6    2    1    2  501    0 -0.51662605894E+02 -0.45346709823E+02 -0.70291454564E+03  0.72673043515E+03  0.17123935868E+03 0.  0.
         24    2    3    3    0    0 -0.48234644898E+02 -0.27993109518E+02 -0.70158497450E+03  0.70837951911E+03  0.80435511381E+02 0.  0.
         -6    2    1    2    0  502  0.51662605894E+02  0.45346709823E+02 -0.34232238864E+02  0.18847038049E+03  0.17211591793E+03 0.  0.
        -24    2    5    5    0    0  0.34715018007E+02  0.56954162214E+02  0.40557672096E+02  0.11076854996E+03  0.78586499004E+02 0.  0.
          5    1    3    3  501    0 -0.34279609966E+01 -0.17353600305E+02 -0.13295711342E+01  0.18350916041E+02  0.47000000000E+01 0. -1.
        -11    1    4    4    0    0  0.12434893723E+02  0.14865288644E+02 -0.24764554010E+03  0.24840273130E+03  0.00000000000E+00 0.  1.
         12    1    4    4    0    0 -0.60669538620E+02 -0.42858398162E+02 -0.45393943441E+03  0.45997678780E+03  0.00000000000E+00 0. -1.
         -5    1    5    5    0  502  0.16947587887E+02 -0.11607452391E+02 -0.74789910960E+02  0.77701830530E+02  0.47000000000E+01 0.  1.
         13    1    6    6    0    0  0.35966480890E+01 -0.19177921627E+02  0.15099405741E+02  0.24672263965E+02  0.00000000000E+00 0. -1.
        -14    1    6    6    0    0  0.31118369918E+02  0.76132083841E+02  0.25458266355E+02  0.86096285995E+02  0.00000000000E+00 0.  1.
</event>
<event>
12    1  0.8562501E-002  0.1975077E+03  0.7818608E-02  0.1151935E+00
         21   -1    0    0  503  502  0.00000000000E+00  0.00000000000E+00  0.69534353908E+02  0.69534353908E+02  0.00000000000E+00 0.  1.
         21   -1    0    0  501  503 -0.00000000000E+00 -0.00000000000E+00 -0.73571718740E+03  0.73571718740E+03  0.00000000000E+00 0. -1.
          6    2    1    2  501    0 -0.94182697744E+02  0.22292200691E+02 -0.53008811056E+03  0.56568782434E+03  0.17216848400E+03 0.  0.
         24    2    3    3    0    0 -0.27796130117E+01  0.38750473261E+02 -0.36853018617E+03  0.37927845878E+03  0.80798055360E+02 0.  0.
         -6    2    1    2    0  502  0.94182697744E+02 -0.22292200691E+02 -0.13609472293E+03  0.23956371697E+03  0.17176052547E+03 0.  0.
        -24    2    5    5    0    0  0.25205712162E+02 -0.61876349260E+02 -0.11945387511E+03  0.15817737183E+03  0.79289609393E+02 0.  0.
          5    1    3    3  501    0 -0.91403084732E+02 -0.16458272570E+02 -0.16155792439E+03  0.18640936556E+03  0.47000000000E+01 0. -1.
        -13    1    4    4    0    0 -0.27268420857E+01 -0.13209334372E+02 -0.24360784315E+03  0.24398094890E+03  0.00000000000E+00 0.  1.
         14    1    4    4    0    0 -0.52770925954E-01  0.51959807633E+02 -0.12492234302E+03  0.13529750988E+03  0.00000000000E+00 0. -1.
         -5    1    5    5    0  502  0.68976985582E+02  0.39584148569E+02 -0.16640847819E+02  0.81386345133E+02  0.47000000000E+01 0.  1.
         13    1    6    6    0    0  0.39065452922E+01  0.16491738556E+02 -0.44676843561E+02  0.47783458302E+02  0.00000000000E+00 0. -1.
        -14    1    6    6    0    0  0.21299166869E+02 -0.78368087816E+02 -0.74777031549E+02  0.11039391353E+03  0.00000000000E+00 0.  1.
</event>
<event>
12    1  0.8562501E-002  0.2334421E+03  0.7818608E-02  0.1124494E+00
         21   -1    0    0  501  502  0.00000000000E+00  0.00000000000E+00  0.35720681950E+03  0.35720681950E+03  0.00000000000E+00 0. -1.
         21   -1    0    0  502  503 -0.00000000000E+00 -0.00000000000E+00 -0.59136742379E+03  0.59136742379E+03  0.00000000000E+00 0. -1.
         -6    2    1    2    0  503 -0.13365856985E+03  0.76899286261E+02 -0.52598453097E+03  0.57486793094E+03  0.17330694645E+03 0.  0.
        -24    2    3    3    0    0 -0.20212899515E+01  0.81952568848E+01 -0.14378510846E+03  0.16481048902E+03  0.80106753946E+02 0.  0.
          6    2    1    2  501    0  0.13365856985E+03 -0.76899286261E+02  0.29182392668E+03  0.37370631235E+03  0.17526291731E+03 0.  0.
         24    2    5    5    0    0  0.11662611483E+03 -0.58990766845E+02  0.11103924013E+03  0.19117956778E+03  0.84488774721E+02 0.  0.
          5    1    5    5  501    0  0.17032455017E+02 -0.17908519417E+02  0.18078468655E+03  0.18252674457E+03  0.47000000000E+01 0. -1.
        -13    1    6    6    0    0  0.12652933282E+02 -0.31956068708E+02 -0.30081177346E+01  0.34501243749E+02  0.00000000000E+00 0.  1.
         14    1    6    6    0    0  0.10397318155E+03 -0.27034698136E+02  0.11404735787E+03  0.15667832403E+03  0.00000000000E+00 0. -1.
         -5    1    3    3    0  503 -0.13163727989E+03  0.68704029377E+02 -0.38219942251E+03  0.41005744193E+03  0.47000000000E+01 0.  1.
         13    1    4    4    0    0  0.73111504611E+01  0.43323679313E+02 -0.71969107519E+02  0.84320498975E+02  0.00000000000E+00 0. -1.
        -14    1    4    4    0    0 -0.93324404125E+01 -0.35128422428E+02 -0.71816000937E+02  0.80489990042E+02  0.00000000000E+00 0.  1.
</event>
<event>
12    1  0.8562501E-002  0.2167736E+03  0.7818608E-02  0.1136408E+00
         21   -1    0    0  501  502  0.00000000000E+00  0.00000000000E+00  0.11307279984E+04  0.11307279984E+04  0.00000000000E+00 0. -1.
         21   -1    0    0  502  503 -0.00000000000E+00 -0.00000000000E+00 -0.70869821851E+02  0.70869821851E+02  0.00000000000E+00 0. -1.
         -6    2    1    2    0  503 -0.12064198189E+03  0.54333801951E+02  0.14326734369E+03  0.25983903546E+03  0.17170947194E+03 0.  0.
        -24    2    3    3    0    0 -0.21377586898E+02  0.77107481992E+02  0.68748859933E+02  0.13355698988E+03  0.81905425963E+02 0.  0.
          6    2    1    2  501    0  0.12064198189E+03 -0.54333801951E+02  0.91659083287E+03  0.94175878480E+03  0.17106783456E+03 0.  0.
         24    2    5    5    0    0  0.64131501152E+02  0.14678722444E+02  0.23974279423E+03  0.25904250378E+03  0.72788028194E+02 0.  0.
          5    1    5    5  501    0  0.56510480736E+02 -0.69012524394E+02  0.67684803864E+03  0.68271628102E+03  0.47000000000E+01 0. -1.
        -13    1    6    6    0    0  0.52666528560E+01  0.84651168753E+01 -0.19915249934E+01  0.10166710767E+02  0.00000000000E+00 0.  1.
         14    1    6    6    0    0  0.58864848296E+02  0.62136055684E+01  0.24173431922E+03  0.24887579301E+03  0.00000000000E+00 0. -1.
         -5    1    3    3    0  503 -0.99264394990E+02 -0.22773680041E+02  0.74518483754E+02  0.12628204558E+03  0.47000000000E+01 0.  1.
         11    1    4    4    0    0 -0.27959642815E+02  0.16468451789E+01  0.47063206113E+02  0.54766769989E+02  0.00000000000E+00 0. -1.
        -12    1    4    4    0    0  0.65820559171E+01  0.75460636813E+02  0.21685653820E+02  0.78790219888E+02  0.00000000000E+00 0.  1.
</event>
<event>
12    1  0.8562501E-002  0.1727084E+03  0.7818608E-02  0.1175290E+00
         21   -1    0    0  501  502  0.00000000000E+00  0.00000000000E+00  0.10493482457E+03  0.10493482457E+03  0.00000000000E+00 0. -1.
         21   -1    0    0  502  503 -0.00000000000E+00 -0.00000000000E+00 -0.29237023813E+03  0.29237023813E+03  0.00000000000E+00 0. -1.
         -6    2    1    2    0  503  0.16566227346E+02  0.14269030797E+02 -0.57889243373E+02  0.18215206028E+03  0.17131889399E+03 0.  0.
        -24    2    3    3    0    0  0.44611389278E+02 -0.48528132956E+02 -0.44790012412E+02  0.11198301629E+03  0.78669530210E+02 0.  0.
          6    2    1    2  501    0 -0.16566227346E+02 -0.14269030797E+02 -0.12954617019E+03  0.21515300242E+03  0.17038356467E+03 0.  0.
         24    2    5    5    0    0 -0.74534668760E+02 -0.26279118370E+02 -0.90364389573E+02  0.14400608164E+03  0.79536279375E+02 0.  0.
          5    1    5    5  501    0  0.57968441414E+02  0.12010087574E+02 -0.39181780622E+02  0.71146920778E+02  0.47000000000E+01 0. -1.
        -11    1    6    6    0    0  0.82537408901E+01 -0.91960464125E+01  0.76820344768E+01  0.14550091478E+02  0.00000000000E+00 0.  1.
         12    1    6    6    0    0 -0.82788409650E+02 -0.17083071958E+02 -0.98046424050E+02  0.12945599016E+03  0.00000000000E+00 0. -1.
         -5    1    3    3    0  503 -0.28045161932E+02  0.62797163752E+02 -0.13099230961E+02  0.70169043993E+02  0.47000000000E+01 0.  1.
         11    1    4    4    0    0  0.55361141356E+02 -0.16161925915E+02 -0.25975162725E+01  0.57730502443E+02  0.00000000000E+00 0. -1.
        -12    1    4    4    0    0 -0.10749752078E+02 -0.32366207041E+02 -0.42192496139E+02  0.54252513844E+02  0.00000000000E+00 0.  1.
</event>
<event>
12    1  0.8562501E-002  0.2295177E+03  0.7818608E-02  0.1127064E+00
         21   -1    0    0  501  502  0.00000000000E+00  0.00000000000E+00  0.27124661614E+03  0.27124661614E+03  0.00000000000E+00 0.  1.
         21   -1    0    0  502  503 -0.00000000000E+00 -0.00000000000E+00 -0.41244378754E+03  0.41244378754E+03  0.00000000000E+00 0. -1.
         -6    2    1    2    0  503 -0.13670335412E+03  0.67723692330E+02 -0.31952358130E+03  0.39341290774E+03  0.17147621246E+03 0.  0.
        -24    2    3    3    0    0 -0.80310599003E+02  0.97443206048E+02 -0.14512916310E+03  0.20767412497E+03  0.78237442972E+02 0.  0.
          6    2    1    2  501    0  0.13670335412E+03 -0.67723692330E+02  0.17832640991E+03  0.29027749594E+03  0.17084030745E+03 0.  0.
         24    2    5    5    0    0  0.10106739434E+03  0.10709770761E+02  0.15647745599E+03  0.20127639174E+03  0.75482940128E+02 0.  0.
          5    1    5    5  501    0  0.35635959775E+02 -0.78433463092E+02  0.21848953920E+02  0.89001104201E+02  0.47000000000E+01 0. -1.
        -11    1    6    6    0    0  0.53129710492E+02 -0.16390724881E+01  0.13893697424E+03  0.14875797628E+03  0.00000000000E+00 0.  1.
         12    1    6    6    0    0  0.47937683851E+02  0.12348843249E+02  0.17540481748E+02  0.52518415461E+02  0.00000000000E+00 0. -1.
         -5    1    3    3    0  503 -0.56392755114E+02 -0.29719513718E+02 -0.17439441821E+03  0.18573878277E+03  0.47000000000E+01 0.  1.
         11    1    4    4    0    0 -0.59701969203E+02  0.12380303239E+02 -0.62265819944E+02  0.87147170741E+02  0.00000000000E+00 0. -1.
        -12    1    4    4    0    0 -0.20608629801E+02  0.85062902809E+02 -0.82863343151E+02  0.12052695422E+03  0.00000000000E+00 0.  1.
</event>
<event>
12    1  0.8562501E-002  0.1738634E+03  0.7818608E-02  0.1174749E+00
         21   -1    0    0  501  502  0.00000000000E+00  0.00000000000E+00  0.14875505942E+03  0.14875505942E+03  0.00000000000E+00 0. -1.
         21   -1    0    0  502  503 -0.00000000000E+00 -0.00000000000E+00 -0.29443401862E+03  0.29443401862E+03  0.00000000000E+00 0. -1.
         -6    2    1    2    0  503  0.12702652595E+01 -0.31277575296E+02 -0.19931531914E+03  0.26449021267E+03  0.17102215022E+03 0.  0.
        -24    2    3    3    0    0  0.63957333743E+02 -0.29804578317E+02 -0.15533444858E+03  0.18775531025E+03  0.78386300980E+02 0.  0.
          6    2    1    2  501    0 -0.12702652595E+01  0.31277575296E+02  0.53636359940E+02  0.17869886537E+03  0.16756051171E+03 0.  0.
         24    2    5    5    0    0  0.55678259236E+02 -0.80448083624E+01  0.18772005758E+02  0.10106512598E+03  0.81835102470E+02 0.  0.
          5    1    5    5  501    0 -0.56948524495E+02  0.39322383658E+02  0.34864354182E+02  0.77633739387E+02  0.47000000000E+01 0. -1.
        -11    1    6    6    0    0  0.23014167884E+02  0.19080893093E+02 -0.25813103293E+02  0.39497451895E+02  0.00000000000E+00 0.  1.
         12    1    6    6    0    0  0.32664091352E+02 -0.27125701455E+02  0.44585109051E+02  0.61567674086E+02  0.00000000000E+00 0. -1.
         -5    1    3    3    0  503 -0.62687068484E+02 -0.14729969786E+01 -0.43980870553E+02  0.76734902423E+02  0.47000000000E+01 0.  1.
         13    1    4    4    0    0  0.23731317868E+02  0.74989566603E+01 -0.11987792221E+03  0.12243417020E+03  0.00000000000E+00 0. -1.
        -14    1    4    4    0    0  0.40226015876E+02 -0.37303534978E+02 -0.35456526375E+02  0.65321140052E+02  0.00000000000E+00 0.  1.
</event>
<event>
12    1  0.8562501E-002  0.5327397E+03  0.7818608E-02  0.1005591E+00
         21   -1    0    0  501  502  0.00000000000E+00  0.00000000000E+00  0.58780929366E+03  0.58780929366E+03  0.00000000000E+00 0.  1.
         21   -1    0    0  502  503 -0.00000000000E+00 -0.00000000000E+00 -0.70878437845E+03  0.70878437845E+03  0.00000000000E+00 0.  1.
         -6    2    1    2    0  503 -0.48195526331E+03 -0.14684931722E+03 -0.42676937039E+03  0.68232848455E+03  0.17203042617E+03 0.  0.
        -24    2    3    3    0    0 -0.36756969552E+03 -0.62485347077E+02 -0.25201914211E+03  0.45702630999E+03  0.79671201635E+02 0.  0.
          6    2    1    2  501    0  0.48195526331E+03  0.14684931722E+03  0.30579428560E+03  0.61426518756E+03  0.17310683911E+03 0.  0.
         24    2    5    5    0    0  0.32194722606E+03  0.14576644723E+03  0.15230121615E+03  0.39248611515E+03  0.77148017724E+02 0.  0.
          5    1    5    5  501    0  0.16000803725E+03  0.10828699929E+01  0.15349306945E+03  0.22177907241E+03  0.47000000000E+01 0. -1.
        -13    1    6    6    0    0  0.17094815672E+03  0.42195177063E+02  0.51438998401E+02  0.18343847964E+03  0.00000000000E+00 0.  1.
         14    1    6    6    0    0  0.15099906933E+03  0.10357127016E+03  0.10086221775E+03  0.20904763551E+03  0.00000000000E+00 0. -1.
         -5    1    3    3    0  503 -0.11438556778E+03 -0.84363970143E+02 -0.17475022828E+03  0.22530217456E+03  0.47000000000E+01 0.  1.
         11    1    4    4    0    0 -0.43203873984E+02  0.38660535823E+01 -0.44215568173E+01  0.43601275924E+02  0.00000000000E+00 0. -1.
        -12    1    4    4    0    0 -0.32436582154E+03 -0.66351400659E+02 -0.24759758529E+03  0.41342503407E+03  0.00000000000E+00 0.  1.
</event>
<event>
12    1  0.8562501E-002  0.2346346E+03  0.7818608E-02  0.1125261E+00
         21   -1    0    0  503  502  0.00000000000E+00  0.00000000000E+00  0.88037036565E+02  0.88037036565E+02  0.00000000000E+00 0.  1.
         21   -1    0    0  501  503 -0.00000000000E+00 -0.00000000000E+00 -0.59843572563E+03  0.59843572563E+03  0.00000000000E+00 0. -1.
          6    2    1    2  501    0 -0.71555130415E+02  0.12622605713E+03 -0.27285091624E+03  0.35986247533E+03  0.18439149782E+03 0.  0.
         24    2    3    3    0    0 -0.78958917356E+02  0.85862675553E+02 -0.28404322964E+03  0.31706789024E+03  0.79022661525E+02 0.  0.
         -6    2    1    2    0  502  0.71555130415E+02 -0.12622605713E+03 -0.23754777282E+03  0.32661028687E+03  0.17085719454E+03 0.  0.
        -24    2    5    5    0    0  0.11134543452E+03 -0.11606162162E+03 -0.16891490149E+03  0.24649071949E+03  0.79732835443E+02 0.  0.
          5    1    3    3  501    0  0.74037869412E+01  0.40363381577E+02  0.11192313399E+02  0.42794585086E+02  0.47000000000E+01 0. -1.
        -13    1    4    4    0    0 -0.17848501915E+02  0.67173366637E+02 -0.96416149311E+02  0.11885665339E+03  0.00000000000E+00 0.  1.
         14    1    4    4    0    0 -0.61110415441E+02  0.18689308916E+02 -0.18762708033E+03  0.19821123686E+03  0.00000000000E+00 0. -1.
         -5    1    5    5    0  502 -0.39790304103E+02 -0.10164435515E+02 -0.68632871335E+02  0.80119567383E+02  0.47000000000E+01 0.  1.
         13    1    6    6    0    0  0.72878283230E+02 -0.43672862231E+02 -0.13107831656E+03  0.15620527563E+03  0.00000000000E+00 0. -1.
        -14    1    6    6    0    0  0.38467151288E+02 -0.72388759384E+02 -0.37836584928E+02  0.90285443857E+02  0.00000000000E+00 0.  1.
</event>
<event>
12    1  0.8562501E-002  0.1786705E+03  0.7818608E-02  0.1169137E+00
         21   -1    0    0  501  502  0.00000000000E+00  0.00000000000E+00  0.17178197800E+03  0.17178197800E+03  0.00000000000E+00 0.  1.
         21   -1    0    0  502  503 -0.00000000000E+00 -0.00000000000E+00 -0.18640614605E+03  0.18640614605E+03  0.00000000000E+00 0.  1.
         -6    2    1    2    0  503 -0.48253133599E+02 -0.82269774918E+01  0.40163605604E+01  0.17854791406E+03  0.17166006642E+03 0.  0.
        -24    2    3    3    0    0 -0.83593021592E+00 -0.31149979844E+02 -0.58364204548E+02  0.96772122308E+02  0.70621832742E+02 0.  0.
          6    2    1    2  501    0  0.48253133599E+02  0.82269774918E+01 -0.18640528609E+02  0.17964020998E+03  0.17183447755E+03 0.  0.
         24    2    5    5    0    0  0.33644019506E+02  0.24908944450E+02 -0.75903046942E+02  0.11805449539E+03  0.80144967304E+02 0.  0.
          5    1    5    5  501    0  0.14609114093E+02 -0.16681966958E+02  0.57262518333E+02  0.61585714593E+02  0.47000000000E+01 0. -1.
        -11    1    6    6    0    0  0.29540162431E+01  0.12957780937E+02 -0.83254920024E+02  0.84309026842E+02  0.00000000000E+00 0.  1.
         12    1    6    6    0    0  0.30690003263E+02  0.11951163513E+02  0.73518730825E+01  0.33745468547E+02  0.00000000000E+00 0. -1.
         -5    1    3    3    0  503 -0.47417203383E+02  0.22923002353E+02  0.62380565109E+02  0.81775791753E+02  0.47000000000E+01 0.  1.
         13    1    4    4    0    0  0.70448166386E+01 -0.51109913865E+02 -0.25573025416E+02  0.57583264632E+02  0.00000000000E+00 0. -1.
        -14    1    4    4    0    0 -0.78807468545E+01  0.19959934020E+02 -0.32791179132E+02  0.39188857676E+02  0.00000000000E+00 0.  1.
</event>
<event>
12    1  0.8562501E-002  0.1887103E+03  0.7818608E-02  0.1163606E+00
         21   -1    0    0  501  502  0.00000000000E+00  0.00000000000E+00  0.14048134286E+03  0.14048134286E+03  0.00000000000E+00 0. -1.
         21   -1    0    0  502  503 -0.00000000000E+00 -0.00000000000E+00 -0.24179055988E+03  0.24179055988E+03  0.00000000000E+00 0. -1.
         -6    2    1    2    0  503 -0.82455586072E+01 -0.42438630200E+00 -0.87539038968E+02  0.19305987941E+03  0.17187455994E+03 0.  0.
        -24    2    3    3    0    0 -0.10885127346E+02 -0.32730561000E+02 -0.11848623597E+03  0.14799908437E+03  0.81700460462E+02 0.  0.
          6    2    1    2  501    0  0.82455586072E+01  0.42438630200E+00 -0.13770178054E+02  0.18921202333E+03  0.18852958025E+03 0.  0.
         24    2    5    5    0    0  0.80846454146E+02  0.14660617290E+02 -0.15753894939E+02  0.11505283349E+03  0.78980291466E+02 0.  0.
          5    1    5    5  501    0 -0.72600895539E+02 -0.14236230988E+02  0.19837168850E+01  0.74159189845E+02  0.47000000000E+01 0. -1.
        -13    1    6    6    0    0 -0.42846245646E+01  0.26151855602E+02 -0.11937057080E+02  0.29064942642E+02  0.00000000000E+00 0.  1.
         14    1    6    6    0    0  0.85131078711E+02 -0.11491238312E+02 -0.38168378592E+01  0.85987890843E+02  0.00000000000E+00 0. -1.
         -5    1    3    3    0  503  0.26395687393E+01  0.32306174698E+02  0.30947197004E+02  0.45060795035E+02  0.47000000000E+01 0.  1.
         11    1    4    4    0    0 -0.36154031632E+02  0.10514669404E+02 -0.40358518367E+02  0.55194947964E+02  0.00000000000E+00 0. -1.
        -12    1    4    4    0    0  0.25268904285E+02 -0.43245230404E+02 -0.78127717605E+02  0.92804136409E+02  0.00000000000E+00 0.  1.
</event>
<event>
12    1  0.8562501E-002  0.2038001E+03  0.7818608E-02  0.1147405E+00
         21   -1    0    0  501  502  0.00000000000E+00  0.00000000000E+00  0.18257546797E+03  0.18257546797E+03  0.00000000000E+00 0. -1.
         21   -1    0    0  502  503 -0.00000000000E+00 -0.00000000000E+00 -0.25736071343E+03  0.25736071343E+03  0.00000000000E+00 0. -1.
         -6    2    1    2    0  503  0.57039620593E+02 -0.82558028732E+02 -0.11803494105E+03  0.23551377906E+03  0.17738417740E+03 0.  0.
        -24    2    3    3    0    0  0.46091293570E+02  0.51650869456E+01 -0.11190959370E+03  0.14677359217E+03  0.82871253946E+02 0.  0.
          6    2    1    2  501    0 -0.57039620593E+02  0.82558028732E+02  0.43249695591E+02  0.20442240234E+03  0.17276757793E+03 0.  0.
         24    2    5    5    0    0 -0.37448717820E+00 -0.50128179551E+01 -0.15666513780E+02  0.84535788149E+02  0.82919184990E+02 0.  0.
          5    1    5    5  501    0 -0.56665133415E+02  0.87570846687E+02  0.58916209371E+02  0.11988661419E+03  0.47000000000E+01 0. -1.
        -11    1    6    6    0    0 -0.38943413126E+02  0.10509908068E+02 -0.14754120645E+02  0.42950339574E+02  0.00000000000E+00 0.  1.
         12    1    6    6    0    0  0.38568925948E+02 -0.15522726023E+02 -0.91239313465E+00  0.41585448575E+02  0.00000000000E+00 0. -1.
         -5    1    3    3    0  503  0.10948327024E+02 -0.87723115678E+02 -0.61253473549E+01  0.88740186889E+02  0.47000000000E+01 0.  1.
         11    1    4    4    0    0  0.30546209423E+02 -0.31369330583E+02 -0.93010359148E+02  0.10280093735E+03  0.00000000000E+00 0. -1.
        -12    1    4    4    0    0  0.15545084147E+02  0.36534417528E+02 -0.18899234551E+02  0.43972654820E+02  0.00000000000E+00 0.  1.
</event>
<event>
12    1  0.8562501E-002  0.2696752E+03  0.7818608E-02  0.1101474E+00
         21   -1    0    0  503  502  0.00000000000E+00  0.00000000000E+00  0.24580709189E+03  0.24580709189E+03  0.00000000000E+00 0. -1.
         21   -1    0    0  501  503 -0.00000000000E+00 -0.00000000000E+00 -0.32926146663E+03  0.32926146663E+03  0.00000000000E+00 0.  1.
          6    2    1    2  501    0  0.10596830122E+03 -0.17792606829E+03 -0.13339389800E+03  0.30080838435E+03  0.17264062509E+03 0.  0.
         24    2    3    3    0    0  0.10715924871E+02 -0.14821386429E+03 -0.80383397470E+02  0.18772419698E+03  0.81833385175E+02 0.  0.
         -6    2    1    2    0  502 -0.10596830122E+03  0.17792606829E+03  0.49939523266E+02  0.27426017417E+03  0.17273598500E+03 0.  0.
        -24    2    5    5    0    0  0.15152115048E+02  0.63794688831E+02  0.21577268233E+02  0.10537371964E+03  0.79615911562E+02 0.  0.
          5    1    3    3  501    0  0.95252376347E+02 -0.29712203997E+02 -0.53010500533E+02  0.11308418737E+03  0.47000000000E+01 0. -1.
        -13    1    4    4    0    0  0.28204689682E+01 -0.14778470734E+03 -0.91679929200E+02  0.17393528735E+03  0.00000000000E+00 0.  1.
         14    1    4    4    0    0  0.78954559026E+01 -0.42915695120E+00  0.11296531729E+02  0.13788909627E+02  0.00000000000E+00 0. -1.
         -5    1    5    5    0  502 -0.12112041627E+03  0.11413137946E+03  0.28362255033E+02  0.16888645453E+03  0.47000000000E+01 0.  1.
         11    1    6    6    0    0  0.12572856799E+02  0.15642917159E+02  0.46823864633E+02  0.50943614757E+02  0.00000000000E+00 0. -1.
        -12    1    6    6    0    0  0.25792582493E+01  0.48151771672E+02 -0.25246596401E+02  0.54430104887E+02  0.00000000000E+00 0.  1.
</event>
<event>
12    1  0.8562501E-002  0.2719458E+03  0.7818608E-02  0.1100276E+00
         21   -1    0    0  503  502  0.00000000000E+00  0.00000000000E+00  0.23005214773E+03  0.23005214773E+03  0.00000000000E+00 0. -1.
         21   -1    0    0  501  503 -0.00000000000E+00 -0.00000000000E+00 -0.34965932644E+03  0.34965932644E+03  0.00000000000E+00 0. -1.
          6    2    1    2  501    0 -0.43840363709E+02  0.20444740993E+03 -0.14329042044E+03  0.30673631346E+03  0.17272608513E+03 0.  0.
         24    2    3    3    0    0 -0.39287658270E+02  0.62880973810E+02 -0.22861421543E+02  0.12076046357E+03  0.92535982235E+02 0.  0.
         -6    2    1    2    0  502  0.43840363709E+02 -0.20444740993E+03  0.23683241733E+02  0.27297516071E+03  0.17387875519E+03 0.  0.
        -24    2    5    5    0    0  0.44285153452E+02 -0.16681211954E+03 -0.44611686185E+02  0.19485410017E+03  0.78679474880E+02 0.  0.
          5    1    3    3  501    0 -0.45527054393E+01  0.14156643612E+03 -0.12042899890E+03  0.18597584988E+03  0.47000000000E+01 0. -1.
        -11    1    4    4    0    0 -0.30190058879E+02  0.86439686184E+02 -0.91292838766E+01  0.92014144710E+02  0.00000000000E+00 0.  1.
         12    1    4    4    0    0 -0.90975993916E+01 -0.23558712373E+02 -0.13732137667E+02  0.28746318865E+02  0.00000000000E+00 0. -1.
         -5    1    5    5    0  502 -0.44478974218E+00 -0.37635290397E+02  0.68294927918E+02  0.78121060544E+02  0.47000000000E+01 0.  1.
         11    1    6    6    0    0  0.10881801766E+02 -0.99600611963E+02  0.11908146196E+02  0.10089846113E+03  0.00000000000E+00 0. -1.
        -12    1    6    6    0    0  0.33403351686E+02 -0.67211507574E+02 -0.56519832381E+02  0.93955639035E+02  0.00000000000E+00 0.  1.
</event>
<event>
12    1  0.8562501E-002  0.2025839E+03  0.7818608E-02  0.1149334E+00
         21   -1    0    0  501  502  0.00000000000E+00  0.00000000000E+00  0.22425640069E+03  0.22425640069E+03  0.00000000000E+00 0. -1.
         21   -1    0    0  502  503 -0.00000000000E+00 -0.00000000000E+00 -0.17734803531E+03  0.17734803531E+03  0.00000000000E+00 0. -1.
         -6    2    1    2    0  503  0.53222779230E+02 -0.75485561601E+02  0.30469447519E+01  0.19432670470E+03  0.17094692172E+03 0.  0.
        -24    2    3    3    0    0  0.84365713995E+02 -0.93135819848E+02  0.26023286830E+02  0.15153165478E+03  0.80577765582E+02 0.  0.
          6    2    1    2  501    0 -0.53222779230E+02  0.75485561601E+02  0.43861420624E+02  0.20727773130E+03  0.18030390854E+03 0.  0.
         24    2    5    5    0    0 -0.30863881873E+02 -0.24265401208E+02  0.57024749093E+02  0.10410051440E+03  0.77741277251E+02 0.  0.
          5    1    5    5  501    0 -0.22358897358E+02  0.99750962809E+02 -0.13163328469E+02  0.10317721691E+03  0.47000000000E+01 0. -1.
        -13    1    6    6    0    0 -0.34572014721E+02  0.43063234142E+01 -0.54871144137E+01  0.35268641139E+02  0.00000000000E+00 0.  1.
         14    1    6    6    0    0  0.37081328485E+01 -0.28571724622E+02  0.62511863506E+02  0.68831873258E+02  0.00000000000E+00 0. -1.
         -5    1    3    3    0  503 -0.31142934765E+02  0.17650258247E+02 -0.22976342078E+02  0.42795049915E+02  0.47000000000E+01 0.  1.
         11    1    4    4    0    0  0.28469813134E+02 -0.21767912773E+02 -0.28462652224E+02  0.45765651508E+02  0.00000000000E+00 0. -1.
        -12    1    4    4    0    0  0.55895900861E+02 -0.71367907075E+02  0.54485939054E+02  0.10576600327E+03  0.00000000000E+00 0.  1.
</event>
<event>
12    1  0.8562501E-002  0.1880634E+03  0.7818608E-02  0.1160454E+00
         21   -1    0    0  501  502  0.00000000000E+00  0.00000000000E+00  0.48945803359E+02  0.48945803359E+02  0.00000000000E+00 0.  1.
         21   -1    0    0  502  503 -0.00000000000E+00 -0.00000000000E+00 -0.14569898177E+04  0.14569898177E+04  0.00000000000E+00 0. -1.
         -6    2    1    2    0  503  0.71491863823E+02 -0.28330775142E+02 -0.12409731690E+04  0.12551423156E+04  0.17162198772E+03 0.  0.
        -24    2    3    3    0    0  0.73218877305E+02  0.39379101703E+02 -0.91019947956E+03  0.91747245662E+03  0.79880525911E+02 0.  0.
          6    2    1    2  501    0 -0.71491863823E+02  0.28330775142E+02 -0.16707084528E+03  0.25079330546E+03  0.17050189238E+03 0.  0.
         24    2    5    5    0    0 -0.10567247508E+03  0.51504281193E+02 -0.10809114433E+03  0.17864054603E+03  0.80058642467E+02 0.  0.
          5    1    5    5  501    0  0.34180611256E+02 -0.23173506052E+02 -0.58979700947E+02  0.72152759423E+02  0.47000000000E+01 0. -1.
        -13    1    6    6    0    0  0.87923152152E+01  0.21381151683E+02 -0.11252452226E+02  0.25711400880E+02  0.00000000000E+00 0.  1.
         14    1    6    6    0    0 -0.11446479029E+03  0.30123129510E+02 -0.96838692104E+02  0.15292914515E+03  0.00000000000E+00 0. -1.
         -5    1    3    3    0  503 -0.17270134827E+01 -0.67709876845E+02 -0.33077368946E+03  0.33766985894E+03  0.47000000000E+01 0.  1.
         13    1    4    4    0    0  0.28482874684E+02  0.58574735681E+02 -0.59173658212E+03  0.59531038663E+03  0.00000000000E+00 0. -1.
        -14    1    4    4    0    0  0.44736002621E+02 -0.19195633977E+02 -0.31846289744E+03  0.32216206999E+03  0.00000000000E+00 0.  1.
</event>
<event>
12    1  0.8562501E-002  0.2125699E+03  0.7818608E-02  0.1139859E+00
         21   -1    0    0  501  502  0.00000000000E+00  0.00000000000E+00  0.23311871245E+03  0.23311871245E+03  0.00000000000E+00 0.  1.
         21   -1    0    0  502  503 -0.00000000000E+00 -0.00000000000E+00 -0.27315611297E+03  0.27315611297E+03  0.00000000000E+00 0. -1.
         -6    2    1    2    0  503  0.17324955103E+01  0.12516271153E+03 -0.15772423664E+03  0.26469400003E+03  0.17180591646E+03 0.  0.
        -24    2    3    3    0    0 -0.34241653530E+02  0.13529063132E+01 -0.63757537701E+02  0.10508561123E+03  0.76181630863E+02 0.  0.
          6    2    1    2  501    0 -0.17324955103E+01 -0.12516271153E+03  0.11768683611E+03  0.24158082539E+03  0.16983049756E+03 0.  0.
         24    2    5    5    0    0  0.47638186645E+00 -0.80261514770E+02  0.14748775439E+03  0.18744043991E+03  0.83301519346E+02 0.  0.
          5    1    5    5  501    0 -0.22088773768E+01 -0.44901196764E+02 -0.29800918276E+02  0.54140385482E+02  0.47000000000E+01 0. -1.
        -11    1    6    6    0    0 -0.36878546030E+02 -0.16101933243E+02  0.65136030081E+02  0.76563710896E+02  0.00000000000E+00 0.  1.
         12    1    6    6    0    0  0.37354927896E+02 -0.64159581528E+02  0.82351724304E+02  0.11087672901E+03  0.00000000000E+00 0. -1.
         -5    1    3    3    0  503  0.35974149040E+02  0.12380980522E+03 -0.93966698934E+02  0.15960838880E+03  0.47000000000E+01 0.  1.
         11    1    4    4    0    0 -0.12962403981E+02  0.17222009880E+02 -0.73663596639E+02  0.76752504918E+02  0.00000000000E+00 0. -1.
        -12    1    4    4    0    0 -0.21279249548E+02 -0.15869103567E+02  0.99060589381E+01  0.28333106308E+02  0.00000000000E+00 0.  1.
</event>
<event>
12    1  0.8562501E-002  0.3321067E+03  0.7818608E-02  0.1070249E+00
         21   -1    0    0  503  502  0.00000000000E+00  0.00000000000E+00  0.72627163747E+03  0.72627163747E+03  0.00000000000E+00 0. -1.
         21   -1    0    0  501  503 -0.00000000000E+00 -0.00000000000E+00 -0.16834649733E+03  0.16834649733E+03  0.00000000000E+00 0. -1.
          6    2    1    2  501    0 -0.64092480278E+02 -0.27636766783E+03  0.41950191623E+03  0.53481842394E+03  0.17193590379E+03 0.  0.
         24    2    3    3    0    0 -0.60174855413E+02 -0.27788980003E+03  0.43130019061E+03  0.52144105689E+03  0.70973003346E+02 0.  0.
         -6    2    1    2    0  502  0.64092480278E+02  0.27636766783E+03  0.13842322391E+03  0.35979971086E+03  0.17264967178E+03 0.  0.
        -24    2    5    5    0    0  0.73768236809E+02  0.10642795524E+03  0.27766753081E+02  0.15672319642E+03  0.83800389622E+02 0.  0.
          5    1    3    3  501    0 -0.39176248651E+01  0.15221321988E+01 -0.11798274375E+02  0.13377367052E+02  0.47000000000E+01 0. -1.
        -11    1    4    4    0    0 -0.45452011012E+02 -0.10334850213E+03  0.21743758143E+03  0.24500183676E+03  0.00000000000E+00 0.  1.
         12    1    4    4    0    0 -0.14722844401E+02 -0.17454129790E+03  0.21386260918E+03  0.27643922013E+03  0.00000000000E+00 0. -1.
         -5    1    5    5    0  502 -0.96757565306E+01  0.16993971260E+03  0.11065647083E+03  0.20307651445E+03  0.47000000000E+01 0.  1.
         13    1    6    6    0    0 -0.13783906143E+02  0.40596973495E+02  0.18807582499E+02  0.46817042677E+02  0.00000000000E+00 0. -1.
        -14    1    6    6    0    0  0.87552142952E+02  0.65830981740E+02  0.89591705824E+01  0.10990615374E+03  0.00000000000E+00 0.  1.
</event>
<event>
12    1  0.8562501E-002  0.1935860E+03  0.7818608E-02  0.1155697E+00
         21   -1    0    0  503  502  0.00000000000E+00  0.00000000000E+00  0.11480655826E+03  0.11480655826E+03  0.00000000000E+00 0.  1.
         21   -1    0    0  501  503 -0.00000000000E+00 -0.00000000000E+00 -0.32444926679E+03  0.32444926679E+03  0.00000000000E+00 0.  1.
          6    2    1    2  501    0  0.83524869475E+02 -0.11086730002E+02 -0.11819407376E+03  0.22515677621E+03  0.17212325642E+03 0.  0.
         24    2    3    3    0    0  0.10619049732E+03  0.34078258140E+02 -0.65048973018E+02  0.15167141323E+03  0.79593337036E+02 0.  0.
         -6    2    1    2    0  502 -0.83524869475E+02  0.11086730002E+02 -0.91448634768E+02  0.21409904883E+03  0.17428778071E+03 0.  0.
        -24    2    5    5    0    0 -0.65407921770E+02  0.44614299316E+02 -0.12113452282E+03  0.16556386934E+03  0.80431276749E+02 0.  0.
          5    1    3    3  501    0 -0.22665627849E+02 -0.45164988141E+02 -0.53145100744E+02  0.73485362983E+02  0.47000000000E+01 0. -1.
        -13    1    4    4    0    0  0.72487234390E+02  0.29974998289E+02 -0.82210371668E+02  0.11362853903E+03  0.00000000000E+00 0.  1.
         14    1    4    4    0    0  0.33703262935E+02  0.41032598511E+01  0.17161398651E+02  0.38042874201E+02  0.00000000000E+00 0. -1.
         -5    1    5    5    0  502 -0.18116947706E+02 -0.33527569314E+02  0.29685888052E+02  0.48535179486E+02  0.47000000000E+01 0.  1.
         11    1    6    6    0    0 -0.44833832216E+02  0.22100034882E+01 -0.10750608366E+03  0.11650113583E+03  0.00000000000E+00 0. -1.
        -12    1    6    6    0    0 -0.20574089554E+02  0.42404295828E+02 -0.13628439161E+02  0.49062733511E+02  0.00000000000E+00 0.  1.
</event>
<event>
12    1  0.8562501E-002  0.3511473E+03  0.7818608E-02  0.1062163E+00
         21   -1    0    0  503  502  0.00000000000E+00  0.00000000000E+00  0.59904546130E+03  0.59904546130E+03  0.00000000000E+00 0. -1.
         21   -1    0    0  501  503 -0.00000000000E+00 -0.00000000000E+00 -0.20839999080E+03  0.20839999080E+03  0.00000000000E+00 0.  1.
          6    2    1    2  501    0  0.30484644339E+03 -0.31565324563E+02  0.24095340388E+03  0.42572284191E+03  0.17103704722E+03 0.  0.
         24    2    3    3    0    0  0.31496733785E+03 -0.50155984920E+02  0.21982292005E+03  0.39544690255E+03  0.79599559164E+02 0.  0.
         -6    2    1    2    0  502 -0.30484644339E+03  0.31565324563E+02  0.14969206662E+03  0.38172261019E+03  0.17139636100E+03 0.  0.
        -24    2    5    5    0    0 -0.60614703651E+02  0.56911952399E+01  0.78943228612E+02  0.12609377508E+03  0.77207996789E+02 0.  0.
          5    1    3    3  501    0 -0.10120894464E+02  0.18590660358E+02  0.21130483828E+02  0.30275939359E+02  0.47000000000E+01 0. -1.
        -11    1    4    4    0    0  0.20280847275E+03  0.40556008342E+01  0.11894104157E+03  0.23514824236E+03  0.00000000000E+00 0.  1.
         12    1    4    4    0    0  0.11215886510E+03 -0.54211585754E+02  0.10088187848E+03  0.16029866018E+03  0.00000000000E+00 0. -1.
         -5    1    5    5    0  502 -0.24423173973E+03  0.25874129323E+02  0.70748838009E+02  0.25562883511E+03  0.47000000000E+01 0.  1.
         11    1    6    6    0    0 -0.74285926451E+02  0.21584324720E+02  0.61803182342E+02  0.99014722592E+02  0.00000000000E+00 0. -1.
        -12    1    6    6    0    0  0.13671222800E+02 -0.15893129480E+02  0.17140046270E+02  0.27079052488E+02  0.00000000000E+00 0.  1.
</event>
<event>
12    1  0.8562501E-002  0.2630785E+03  0.7818608E-02  0.1105385E+00
         21   -1    0    0  503  502  0.00000000000E+00  0.00000000000E+00  0.18316742261E+03  0.18316742261E+03  0.00000000000E+00 0. -1.
         21   -1    0    0  501  503 -0.00000000000E+00 -0.00000000000E+00 -0.62771605383E+03  0.62771605383E+03  0.00000000000E+00 0.  1.
          6    2    1    2  501    0  0.10387144932E+03 -0.16948750893E+03 -0.47832467387E+03  0.54564558093E+03  0.17152058966E+03 0.  0.
         24    2    3    3    0    0  0.92420591550E+02 -0.11451654992E+03 -0.45483922544E+03  0.48459982132E+03  0.79389293176E+02 0.  0.
         -6    2    1    2    0  502 -0.10387144932E+03  0.16948750893E+03  0.33776042649E+02  0.26523789551E+03  0.17232244918E+03 0.  0.
        -24    2    5    5    0    0 -0.12141090496E+03  0.68957430675E+02  0.28317131060E+02  0.16293531073E+03  0.79058968377E+02 0.  0.
          5    1    3    3  501    0  0.11450857774E+02 -0.54970959009E+02 -0.23485448431E+02  0.61045759608E+02  0.47000000000E+01 0. -1.
        -13    1    4    4    0    0  0.27599356560E+02 -0.20579504483E+02 -0.33350925398E+02  0.47932501627E+02  0.00000000000E+00 0.  1.
         14    1    4    4    0    0  0.64821234990E+02 -0.93937045438E+02 -0.42148830004E+03  0.43666731969E+03  0.00000000000E+00 0. -1.
         -5    1    5    5    0  502  0.17539455640E+02  0.10053007826E+03  0.54589115891E+01  0.10230258479E+03  0.47000000000E+01 0.  1.
         13    1    6    6    0    0 -0.23568469791E+02  0.51917735311E+02 -0.71798728729E+01  0.57467160906E+02  0.00000000000E+00 0. -1.
        -14    1    6    6    0    0 -0.97842435172E+02  0.17039695365E+02  0.35497003933E+02  0.10546814982E+03  0.00000000000E+00 0.  1.
</event>
<event>
12    1  0.8562501E-002  0.2009362E+03  0.7818608E-02  0.1149022E+00
         21   -1    0    0  501  502  0.00000000000E+00  0.00000000000E+00  0.69639539665E+03  0.69639539665E+03  0.00000000000E+00 0. -1.
         21   -1    0    0  502  503 -0.00000000000E+00 -0.00000000000E+00 -0.57894837554E+02  0.57894837554E+02  0.00000000000E+00 0.  1.
         -6    2    1    2    0  503 -0.94858737594E+02  0.44935203890E+02  0.31355778638E+03  0.37241621935E+03  0.17134177069E+03 0.  0.
        -24    2    3    3    0    0 -0.30017884999E+02 -0.34112715758E+01  0.26357156626E+03  0.27721942288E+03  0.80423427476E+02 0.  0.
          6    2    1    2  501    0  0.94858737594E+02 -0.44935203890E+02  0.32494277271E+03  0.38187401486E+03  0.17094620510E+03 0.  0.
         24    2    5    5    0    0  0.12501238897E+03 -0.65795510901E+02  0.25672317381E+03  0.30428278614E+03  0.82000483644E+02 0.  0.
          5    1    5    5  501    0 -0.30153651377E+02  0.20860307011E+02  0.68219598906E+02  0.77591228724E+02  0.47000000000E+01 0. -1.
        -11    1    6    6    0    0  0.11973827444E+03 -0.71489039301E+02  0.18263925398E+03  0.22979345987E+03  0.00000000000E+00 0.  1.
         12    1    6    6    0    0  0.52741145278E+01  0.56935284004E+01  0.74083919831E+02  0.74489326264E+02  0.00000000000E+00 0. -1.
         -5    1    3    3    0  503 -0.64840852595E+02  0.48346475466E+02  0.49986220123E+02  0.95196796466E+02  0.47000000000E+01 0.  1.
         13    1    4    4    0    0 -0.33107127353E+02  0.26465635225E+02  0.22154347843E+03  0.22556157599E+03  0.00000000000E+00 0. -1.
        -14    1    4    4    0    0  0.30892423541E+01 -0.29876906801E+02  0.42028087832E+02  0.51657846888E+02  0.00000000000E+00 0.  1.
</event>
<event>
12    1  0.8562501E-002  0.1767882E+03  0.7818608E-02  0.1173789E+00
         21   -1    0    0  501  502  0.00000000000E+00  0.00000000000E+00  0.12992560872E+03  0.12992560872E+03  0.00000000000E+00 0. -1.
         21   -1    0    0  502  503 -0.00000000000E+00 -0.00000000000E+00 -0.26429033039E+03  0.26429033039E+03  0.00000000000E+00 0. -1.
         -6    2    1    2    0  503  0.23804175657E+02 -0.31031905511E+02 -0.14430919958E+03  0.22820873674E+03  0.17240784350E+03 0.  0.
        -24    2    3    3    0    0  0.45589966462E+02  0.66845410786E+01 -0.15622895668E+03  0.18280695667E+03  0.82992580207E+02 0.  0.
          6    2    1    2  501    0 -0.23804175657E+02  0.31031905511E+02  0.99444779150E+01  0.16600720237E+03  0.16102757732E+03 0.  0.
         24    2    5    5    0    0 -0.51495314367E+02  0.42475221270E+02  0.49349338330E+02  0.11628214165E+03  0.81426454241E+02 0.  0.
          5    1    5    5  501    0  0.27691138711E+02 -0.11443315759E+02 -0.39404860415E+02  0.49725060714E+02  0.47000000000E+01 0. -1.
        -13    1    6    6    0    0 -0.80673817888E+00  0.16262096377E+02 -0.20439899619E+02  0.26132280832E+02  0.00000000000E+00 0.  1.
         14    1    6    6    0    0 -0.50688576188E+02  0.26213124893E+02  0.69789237949E+02  0.90149860821E+02  0.00000000000E+00 0. -1.
         -5    1    3    3    0  503 -0.21785790805E+02 -0.37716446590E+02  0.11919757095E+02  0.45401780071E+02  0.47000000000E+01 0.  1.
         13    1    4    4    0    0  0.68389067080E+02 -0.42361962949E+01 -0.10077962977E+03  0.12186690951E+03  0.00000000000E+00 0. -1.
        -14    1    4    4    0    0 -0.22799100618E+02  0.10920737373E+02 -0.55449326903E+02  0.60940047159E+02  0.00000000000E+00 0.  1.
</event>
<event>
12    1  0.8562501E-002  0.2170203E+03  0.7818608E-02  0.1136544E+00
         21   -1    0    0  501  502  0.00000000000E+00  0.00000000000E+00  0.90046467594E+02  0.90046467594E+02  0.00000000000E+00 0. -1.
         21   -1    0    0  502  503 -0.00000000000E+00 -0.00000000000E+00 -0.60076542307E+03  0.60076542307E+03  0.00000000000E+00 0.  1.
         -6    2    1    2    0  503 -0.25234149390E+01 -0.13036405709E+03 -0.12808528008E+03  0.25199927104E+03  0.17348382815E+03 0.  0.
        -24    2    3    3    0    0  0.31334626399E+02 -0.96836500894E+02 -0.14952789259E+02  0.12915174577E+03  0.78085983453E+02 0.  0.
          6    2    1    2  501    0  0.25234149390E+01  0.13036405709E+03 -0.38263367540E+03  0.43881261962E+03  0.17072442878E+03 0.  0.
         24    2    5    5    0    0  0.54454288474E+01  0.93697426831E+01 -0.23079487951E+03  0.24458267285E+03  0.80230684137E+02 0.  0.
          5    1    5    5  501    0 -0.29220139083E+01  0.12099431441E+03 -0.15183879589E+03  0.19422994677E+03  0.47000000000E+01 0. -1.
        -13    1    6    6    0    0  0.48512199559E+01  0.43662021332E+02 -0.97392865635E+02  0.10684229836E+03  0.00000000000E+00 0.  1.
         14    1    6    6    0    0  0.59420889143E+00 -0.34292278649E+02 -0.13340201387E+03  0.13774037449E+03  0.00000000000E+00 0. -1.
         -5    1    3    3    0  503 -0.33858041338E+02 -0.33527556197E+02 -0.11313249082E+03  0.12284752527E+03  0.47000000000E+01 0.  1.
         13    1    4    4    0    0  0.38048519375E+01 -0.58983653771E+02  0.28200536308E+02  0.65489072054E+02  0.00000000000E+00 0. -1.
        -14    1    4    4    0    0  0.27529774461E+02 -0.37852847123E+02 -0.43153325567E+02  0.63662673716E+02  0.00000000000E+00 0.  1.
</event>
<event>
12    1  0.8562501E-002  0.2114406E+03  0.7818608E-02  0.1140612E+00
         21   -1    0    0  503  502  0.00000000000E+00  0.00000000000E+00  0.23372135046E+04  0.23372135046E+04  0.00000000000E+00 0.  1.
         21   -1    0    0  501  503 -0.00000000000E+00 -0.00000000000E+00 -0.22076069638E+02  0.22076069638E+02  0.00000000000E+00 0. -1.
          6    2    1    2  501    0  0.67694539893E+02  0.10368086709E+03  0.15968682072E+04  0.16108057656E+04  0.17139098707E+03 0.  0.
         24    2    3    3    0    0 -0.12251916361E+02  0.56754034736E+02  0.11582657724E+04  0.11624891930E+04  0.80189740224E+02 0.  0.
         -6    2    1    2    0  502 -0.67694539893E+02 -0.10368086709E+03  0.71826922779E+03  0.74848380865E+03  0.17024997882E+03 0.  0.
        -24    2    5    5    0    0  0.12904896563E+02 -0.11996415899E+02  0.25964183905E+03  0.27386450916E+03  0.85307880299E+02 0.  0.
          5    1    3    3  501    0  0.79946456255E+02  0.46926832353E+02  0.43860243477E+03  0.44831657258E+03  0.47000000000E+01 0. -1.
        -13    1    4    4    0    0  0.17145070815E+02 -0.75245536603E+01  0.51716556686E+03  0.51750439216E+03  0.00000000000E+00 0.  1.
         14    1    4    4    0    0 -0.29396987177E+02  0.64278588396E+02  0.64110020556E+03  0.64498480087E+03  0.00000000000E+00 0. -1.
         -5    1    5    5    0  502 -0.80599436456E+02 -0.91684451190E+02  0.45862738874E+03  0.47461929949E+03  0.47000000000E+01 0.  1.
         13    1    6    6    0    0 -0.14714273515E+02  0.84680527162E+00  0.25293243404E+01  0.14954076563E+02  0.00000000000E+00 0. -1.
        -14    1    6    6    0    0  0.27619170078E+02 -0.12843221171E+02  0.25711251471E+03  0.25891043260E+03  0.00000000000E+00 0.  1.
</event>
<event>
12    1  0.8562501E-002  0.2015590E+03  0.7818608E-02  0.1149278E+00
         21   -1    0    0  501  502  0.00000000000E+00  0.00000000000E+00  0.19173695700E+03  0.19173695700E+03  0.00000000000E+00 0. -1.
         21   -1    0    0  502  503 -0.00000000000E+00 -0.00000000000E+00 -0.42727345565E+03  0.42727345565E+03  0.00000000000E+00 0.  1.
         -6    2    1    2    0  503 -0.86963860705E+02  0.48211999766E+02 -0.34021950562E+03  0.39544321603E+03  0.17532516965E+03 0.  0.
        -24    2    3    3    0    0  0.45201839864E+01  0.72618467062E+01 -0.24286734906E+03  0.25563700066E+03  0.79325660342E+02 0.  0.
          6    2    1    2  501    0  0.86963860705E+02 -0.48211999766E+02  0.10468300698E+03  0.22356719662E+03  0.17069460877E+03 0.  0.
         24    2    5    5    0    0 -0.15005507094E+02 -0.47135627335E+02  0.66118449196E+02  0.11444237972E+03  0.79236837035E+02 0.  0.
          5    1    5    5  501    0  0.10196936780E+03 -0.10763724306E+01  0.38564557783E+02  0.10912481690E+03  0.47000000000E+01 0. -1.
        -13    1    6    6    0    0 -0.26179546511E+01 -0.29204026416E+02 -0.13220946008E+02  0.32163990095E+02  0.00000000000E+00 0.  1.
         14    1    6    6    0    0 -0.12387552443E+02 -0.17931600919E+02  0.79339395204E+02  0.82278389620E+02  0.00000000000E+00 0. -1.
         -5    1    3    3    0  503 -0.91484044692E+02  0.40950153060E+02 -0.97352156564E+02  0.13980621537E+03  0.47000000000E+01 0.  1.
         11    1    4    4    0    0  0.45559119954E+01  0.18048845769E+02 -0.75745102770E+01  0.20097023999E+02  0.00000000000E+00 0. -1.
        -12    1    4    4    0    0 -0.35728008974E-01 -0.10786999062E+02 -0.23529283878E+03  0.23553997666E+03  0.00000000000E+00 0.  1.
</event>
<event>
12    1  0.8562501E-002  0.2923465E+03  0.7818608E-02  0.1089234E+00
         21   -1    0    0  501  502  0.00000000000E+00  0.00000000000E+00  0.60780031708E+03  0.60780031708E+03  0.00000000000E+00 0. -1.
         21   -1    0    0  502  503 -0.00000000000E+00 -0.00000000000E+00 -0.10593331841E+04  0.10593331841E+04  0.00000000000E+00 0.  1.
         -6    2    1    2    0  503  0.15548090321E+03  0.17814965892E+03 -0.10021621224E+04  0.10437082267E+04  0.17054715105E+03 0.  0.
        -24    2    3    3    0    0  0.16844557526E+02  0.31497415891E+02 -0.27285794334E+03  0.28698265406E+03  0.81435619750E+02 0.  0.
          6    2    1    2  501    0 -0.15548090321E+03 -0.17814965892E+03  0.55062925535E+03  0.62342527447E+03  0.17191533893E+03 0.  0.
         24    2    5    5    0    0 -0.85015934044E+01 -0.44936101886E+02  0.20646864411E+03  0.22616291076E+03  0.80179990390E+02 0.  0.
          5    1    5    5  501    0 -0.14697930980E+03 -0.13321355704E+03  0.34416061124E+03  0.39726236371E+03  0.47000000000E+01 0. -1.
        -13    1    6    6    0    0  0.19286604532E+02 -0.55562475092E+02  0.10417813964E+03  0.11963380179E+03  0.00000000000E+00 0.  1.
         14    1    6    6    0    0 -0.27788197936E+02  0.10626373206E+02  0.10229050447E+03  0.10652910897E+03  0.00000000000E+00 0. -1.
         -5    1    3    3    0  503  0.13863634568E+03  0.14665224303E+03 -0.72930417904E+03  0.75672557265E+03  0.47000000000E+01 0.  1.
         11    1    4    4    0    0 -0.15549957096E+02  0.47613267388E+02 -0.19149794409E+03  0.19794010959E+03  0.00000000000E+00 0. -1.
        -12    1    4    4    0    0  0.32394514622E+02 -0.16115851497E+02 -0.81359999252E+02  0.89042544468E+02  0.00000000000E+00 0.  1.
</event>
<event>
12    1  0.8562501E-002  0.1973973E+03  0.7818608E-02  0.1152439E+00
         21   -1    0    0  503  502  0.00000000000E+00  0.00000000000E+00  0.30873779057E+03  0.30873779057E+03  0.00000000000E+00 0. -1.
         21   -1    0    0  501  503 -0.00000000000E+00 -0.00000000000E+00 -0.12495377269E+03  0.12495377269E+03  0.00000000000E+00 0.  1.
          6    2    1    2  501    0 -0.47971418659E+02  0.81014724283E+02  0.99519736915E+02  0.21906130276E+03  0.17093575919E+03 0.  0.
         24    2    3    3    0    0 -0.20265550618E+02  0.41659078055E+02 -0.16423630136E+02  0.93437115686E+02  0.79464379659E+02 0.  0.
         -6    2    1    2    0  502  0.47971418659E+02 -0.81014724283E+02  0.84264280967E+02  0.21463026050E+03  0.17349650462E+03 0.  0.
        -24    2    5    5    0    0  0.46673690547E+02 -0.57573508259E+02  0.12480835046E+03  0.16754431485E+03  0.83670967787E+02 0.  0.
          5    1    3    3  501    0 -0.27705868042E+02  0.39355646228E+02  0.11594336705E+03  0.12562418707E+03  0.47000000000E+01 0. -1.
        -11    1    4    4    0    0 -0.45608474947E+02  0.90039181368E+01  0.52150293565E+01  0.46780338392E+02  0.00000000000E+00 0.  1.
         12    1    4    4    0    0  0.25342924330E+02  0.32655159918E+02 -0.21638659493E+02  0.46656777294E+02  0.00000000000E+00 0. -1.
         -5    1    5    5    0  502  0.12977281122E+01 -0.23441216024E+02 -0.40544069491E+02  0.47085945651E+02  0.47000000000E+01 0.  1.
         11    1    6    6    0    0 -0.47442710732E+01 -0.55849994587E+02  0.87812388661E+02  0.10417651178E+03  0.00000000000E+00 0. -1.
        -12    1    6    6    0    0  0.51417961620E+02 -0.17235136716E+01  0.36995961797E+02  0.63367803070E+02  0.00000000000E+00 0.  1.
</event>
<event>
12    1  0.8562501E-002  0.2399882E+03  0.7818608E-02  0.1119946E+00
         21   -1    0    0  503  502  0.00000000000E+00  0.00000000000E+00  0.39508788681E+02  0.39508788681E+02  0.00000000000E+00 0. -1.
         21   -1    0    0  501  503 -0.00000000000E+00 -0.00000000000E+00 -0.14542189137E+04  0.14542189137E+04  0.00000000000E+00 0. -1.
          6    2    1    2  501    0  0.67554144200E+01 -0.16699615292E+03 -0.68271881334E+03  0.72367071324E+03  0.17222361159E+03 0.  0.
         24    2    3    3    0    0  0.28812377274E+02 -0.63724276767E+02 -0.17323080258E+03  0.20333263743E+03  0.80276484422E+02 0.  0.
         -6    2    1    2    0  502 -0.67554144200E+01  0.16699615292E+03 -0.73199131168E+03  0.77005698915E+03  0.17100624388E+03 0.  0.
        -24    2    5    5    0    0  0.18783364076E+02  0.15118887091E+03 -0.38801180876E+03  0.42473672070E+03  0.81469188790E+02 0.  0.
          5    1    3    3  501    0 -0.22056962854E+02 -0.10327187616E+03 -0.50948801076E+03  0.52033807580E+03  0.47000000000E+01 0. -1.
        -11    1    4    4    0    0 -0.18057697180E+02  0.64458514394E+01 -0.16354576366E+02  0.25201222120E+02  0.00000000000E+00 0.  1.
         12    1    4    4    0    0  0.46870074455E+02 -0.70170128206E+02 -0.15687622621E+03  0.17813141531E+03  0.00000000000E+00 0. -1.
         -5    1    5    5    0  502 -0.25538778496E+02  0.15807282018E+02 -0.34397950292E+03  0.34532026845E+03  0.47000000000E+01 0.  1.
         13    1    6    6    0    0 -0.17967606966E+02  0.56010162709E+02 -0.73791218244E+02  0.94366928087E+02  0.00000000000E+00 0. -1.
        -14    1    6    6    0    0  0.36750971042E+02  0.95178708198E+02 -0.31422059052E+03  0.33036979261E+03  0.00000000000E+00 0.  1.
</event>
<event>
12    1  0.8562501E-002  0.2174021E+03  0.7818608E-02  0.1135916E+00
         21   -1    0    0  501  502  0.00000000000E+00  0.00000000000E+00  0.10129361276E+03  0.10129361276E+03  0.00000000000E+00 0.  1.
         21   -1    0    0  502  503 -0.00000000000E+00 -0.00000000000E+00 -0.46681733637E+03  0.46681733637E+03  0.00000000000E+00 0.  1.
         -6    2    1    2    0  503 -0.12656204784E+03 -0.39093106390E+02 -0.16892549792E+03  0.27531706865E+03  0.17238747496E+03 0.  0.
        -24    2    3    3    0    0 -0.37256144778E+01 -0.50163287675E+02 -0.71425518781E+02  0.11802856237E+03  0.79365617047E+02 0.  0.
          6    2    1    2  501    0  0.12656204784E+03  0.39093106390E+02 -0.19659822569E+03  0.29279388047E+03  0.17184635922E+03 0.  0.
         24    2    5    5    0    0  0.12843571855E+03 -0.12442222618E+02 -0.95434535002E+02  0.17914713353E+03  0.79595240291E+02 0.  0.
          5    1    5    5  501    0 -0.18736707045E+01  0.51535329009E+02 -0.10116369068E+03  0.11364674694E+03  0.47000000000E+01 0. -1.
        -11    1    6    6    0    0  0.80745692603E+02 -0.25726350341E+02 -0.98019047384E+02  0.12957409319E+03  0.00000000000E+00 0.  1.
         12    1    6    6    0    0  0.47690025945E+02  0.13284127723E+02  0.25845123820E+01  0.49573040337E+02  0.00000000000E+00 0. -1.
         -5    1    3    3    0  503 -0.12283643337E+03  0.11070181285E+02 -0.97499979141E+02  0.15728850628E+03  0.47000000000E+01 0.  1.
         13    1    4    4    0    0  0.27664851945E+02  0.64460119133E+01 -0.29236224191E+02  0.40763364774E+02  0.00000000000E+00 0. -1.
        -14    1    4    4    0    0 -0.31390466423E+02 -0.56609299588E+02 -0.42189294591E+02  0.77265197600E+02  0.00000000000E+00 0.  1.
</event>
<event>
12    1  0.8562501E-002  0.2337178E+03  0.7818608E-02  0.1124410E+00
         21   -1    0    0  501  502  0.00000000000E+00  0.00000000000E+00  0.26667625412E+03  0.26667625412E+03  0.00000000000E+00 0.  1.
         21   -1    0    0  502  503 -0.00000000000E+00 -0.00000000000E+00 -0.31940921860E+03  0.31940921860E+03  0.00000000000E+00 0.  1.
         -6    2    1    2    0  503  0.13804799039E+03  0.69602365543E+02 -0.20318880863E+03  0.30812692242E+03  0.17249571425E+03 0.  0.
        -24    2    3    3    0    0  0.63273830320E+02 -0.41617475661E+01 -0.31184674283E+02  0.10653368934E+03  0.79724809859E+02 0.  0.
          6    2    1    2  501    0 -0.13804799039E+03 -0.69602365543E+02  0.15045584414E+03  0.27795855030E+03  0.17527765890E+03 0.  0.
         24    2    5    5    0    0 -0.99802011169E+02 -0.10186015771E+03  0.15762832169E+03  0.22719582268E+03  0.80220451764E+02 0.  0.
          5    1    5    5  501    0 -0.38245979216E+02  0.32257792165E+02 -0.71724775485E+01  0.50762727623E+02  0.47000000000E+01 0. -1.
        -13    1    6    6    0    0  0.16614136823E+01 -0.47234904750E+02  0.58377111950E+02  0.75111808138E+02  0.00000000000E+00 0.  1.
         14    1    6    6    0    0 -0.10146342485E+03 -0.54625252958E+02  0.99251209741E+02  0.15208401454E+03  0.00000000000E+00 0. -1.
         -5    1    3    3    0  503  0.74774160065E+02  0.73764113109E+02 -0.17200413434E+03  0.20159323309E+03  0.47000000000E+01 0.  1.
         13    1    4    4    0    0 -0.18506043236E+02  0.44209967830E+01 -0.14060089779E+01  0.19078671601E+02  0.00000000000E+00 0. -1.
        -14    1    4    4    0    0  0.81779873557E+02 -0.85827443490E+01 -0.29778665306E+02  0.87455017734E+02  0.00000000000E+00 0.  1.
</event>
<event>
12    1  0.8562501E-002  0.1753090E+03  0.7818608E-02  0.1172738E+00
         21   -1    0    0  501  502  0.00000000000E+00  0.00000000000E+00  0.50035393790E+03  0.50035393790E+03  0.00000000000E+00 0.  1.
         21   -1    0    0  502  503 -0.00000000000E+00 -0.00000000000E+00 -0.11505108057E+03  0.11505108057E+03  0.00000000000E+00 0.  1.
         -6    2    1    2    0  503  0.22227399122E+02  0.25031081609E+02 -0.17918938566E+02  0.17622244367E+03  0.17208326175E+03 0.  0.
        -24    2    3    3    0    0  0.48438809498E+02  0.71052727877E+02  0.65391359849E+01  0.11769623270E+03  0.80092661887E+02 0.  0.
          6    2    1    2  501    0 -0.22227399122E+02 -0.25031081609E+02  0.40322179589E+03  0.43918257481E+03  0.17080077580E+03 0.  0.
         24    2    5    5    0    0  0.20191724263E+02  0.23095053875E+02  0.90663774828E+02  0.12007426486E+03  0.72503943160E+02 0.  0.
          5    1    5    5  501    0 -0.42419123384E+02 -0.48126135484E+02  0.31255802107E+03  0.31910830995E+03  0.47000000000E+01 0. -1.
        -11    1    6    6    0    0 -0.91956739338E+01  0.14028277770E+02  0.87573164705E+02  0.89165083820E+02  0.00000000000E+00 0.  1.
         12    1    6    6    0    0  0.29387398196E+02  0.90667761050E+01  0.30906101229E+01  0.30909181041E+02  0.00000000000E+00 0. -1.
         -5    1    3    3    0  503 -0.26211410376E+02 -0.46021646268E+02 -0.24458074551E+02  0.58526210965E+02  0.47000000000E+01 0.  1.
         13    1    4    4    0    0  0.25126075301E+02  0.80419898414E+02 -0.13793494284E+02  0.85375290369E+02  0.00000000000E+00 0. -1.
        -14    1    4    4    0    0  0.23312734196E+02 -0.93671705371E+01  0.20332630269E+02  0.32320942332E+02  0.00000000000E+00 0.  1.
</event>
<event>
12    1  0.8562501E-002  0.2871109E+03  0.7818608E-02  0.1092230E+00
         21   -1    0    0  503  502  0.00000000000E+00  0.00000000000E+00  0.12699338573E+04  0.12699338573E+04  0.00000000000E+00 0.  1.
         21   -1    0    0  501  503 -0.00000000000E+00 -0.00000000000E+00 -0.40137863788E+03  0.40137863788E+03  0.00000000000E+00 0. -1.
          6    2    1    2  501    0  0.21346092778E+03 -0.63345391328E+02 -0.33185870542E+03  0.43704094356E+03  0.17690782824E+03 0.  0.
         24    2    3    3    0    0  0.71229354773E+02 -0.90556315419E+02 -0.16164474375E+03  0.21351211433E+03  0.78640527329E+02 0.  0.
         -6    2    1    2    0  502 -0.21346092778E+03  0.63345391328E+02  0.12004139248E+04  0.12342715516E+04  0.18125800928E+03 0.  0.
        -24    2    5    5    0    0 -0.54125351556E+02 -0.18892882336E+02  0.27190891941E+03  0.28860004703E+03  0.77903992246E+02 0.  0.
          5    1    3    3  501    0  0.14223157301E+03  0.27210924091E+02 -0.17021396167E+03  0.22352882923E+03  0.47000000000E+01 0. -1.
        -11    1    4    4    0    0  0.17526405497E+02  0.13340640839E+02 -0.32716818052E+02  0.39440306427E+02  0.00000000000E+00 0.  1.
         12    1    4    4    0    0  0.53702949276E+02 -0.10389695626E+03 -0.12892792570E+03  0.17407180790E+03  0.00000000000E+00 0. -1.
         -5    1    5    5    0  502 -0.15933557622E+03  0.82238273665E+02  0.92850500542E+03  0.94567150459E+03  0.47000000000E+01 0.  1.
         11    1    6    6    0    0  0.17173431206E+02  0.90141585995E+01  0.41640909988E+02  0.45936338331E+02  0.00000000000E+00 0. -1.
        -12    1    6    6    0    0 -0.71298782761E+02 -0.27907040936E+02  0.23026800942E+03  0.24266370870E+03  0.00000000000E+00 0.  1.
</event>
<event>
12    1  0.8562501E-002  0.1789106E+03  0.7818608E-02  0.1169012E+00
         21   -1    0    0  503  502  0.00000000000E+00  0.00000000000E+00  0.90935440190E+03  0.90935440190E+03  0.00000000000E+00 0.  1.
         21   -1    0    0  501  503 -0.00000000000E+00 -0.00000000000E+00 -0.58785634290E+02  0.58785634290E+02  0.00000000000E+00 0.  1.
          6    2    1    2  501    0  0.17090331705E+02 -0.45278145961E+02  0.11744013426E+03  0.21349667171E+03  0.17159969043E+03 0.  0.
         24    2    3    3    0    0 -0.54991415537E+02 -0.15341848405E+02  0.60080719336E+02  0.11652166112E+03  0.81903458901E+02 0.  0.
         -6    2    1    2    0  502 -0.17090331705E+02  0.45278145961E+02  0.73312863334E+03  0.75464336448E+03  0.17224060086E+03 0.  0.
        -24    2    5    5    0    0  0.92839276829E+01 -0.48199207581E+01  0.17539779081E+03  0.19402656081E+03  0.82295190188E+02 0.  0.
          5    1    3    3  501    0  0.72081747243E+02 -0.29936297556E+02  0.57359414928E+02  0.96975010584E+02  0.47000000000E+01 0. -1.
        -13    1    4    4    0    0 -0.19293506785E+02 -0.44066984547E+02  0.50433557612E+02  0.69697075007E+02  0.00000000000E+00 0.  1.
         14    1    4    4    0    0 -0.35697908752E+02  0.28725136142E+02  0.96471617245E+01  0.46824586117E+02  0.00000000000E+00 0. -1.
         -5    1    5    5    0  502 -0.26374259388E+02  0.50098066720E+02  0.55773084253E+03  0.56061680367E+03  0.47000000000E+01 0.  1.
         11    1    6    6    0    0 -0.28282546445E+02  0.13762248593E+02  0.32996842464E+02  0.45586111178E+02  0.00000000000E+00 0. -1.
        -12    1    6    6    0    0  0.37566474128E+02 -0.18582169351E+02  0.14240094835E+03  0.14844044963E+03  0.00000000000E+00 0.  1.
</event>
<event>
12    1  0.8562501E-002  0.2318187E+03  0.7818608E-02  0.1125536E+00
         21   -1    0    0  501  502  0.00000000000E+00  0.00000000000E+00  0.28929450539E+03  0.28929450539E+03  0.00000000000E+00 0.  1.
         21   -1    0    0  502  503 -0.00000000000E+00 -0.00000000000E+00 -0.32717023643E+03  0.32717023643E+03  0.00000000000E+00 0.  1.
         -6    2    1    2    0  503  0.13761497035E+03  0.70205089099E+02 -0.22215818212E+03  0.32108277823E+03  0.17283882084E+03 0.  0.
        -24    2    3    3    0    0 -0.14396965517E+01  0.18573357319E+02 -0.99509820932E+02  0.12855551622E+03  0.79229249398E+02 0.  0.
          6    2    1    2  501    0 -0.13761497035E+03 -0.70205089099E+02  0.18428245109E+03  0.29538196360E+03  0.17153381019E+03 0.  0.
         24    2    5    5    0    0 -0.11015511162E+03  0.18620471946E+02  0.10326957292E+03  0.17197531643E+03  0.80187493903E+02 0.  0.
          5    1    5    5  501    0 -0.27459858733E+02 -0.88825561044E+02  0.81012878171E+02  0.12340664717E+03  0.47000000000E+01 0. -1.
        -11    1    6    6    0    0 -0.66036850590E+02 -0.19739943822E+02  0.87570271729E+02  0.11144094180E+03  0.00000000000E+00 0.  1.
         12    1    6    6    0    0 -0.44118261027E+02  0.38360415767E+02  0.15699301188E+02  0.60534374629E+02  0.00000000000E+00 0. -1.
         -5    1    3    3    0  503  0.13905466690E+03  0.51631731779E+02 -0.12264836119E+03  0.19252726201E+03  0.47000000000E+01 0.  1.
         13    1    4    4    0    0 -0.20243101687E+02  0.67074530480E+01  0.48361923998E+01  0.21866912202E+02  0.00000000000E+00 0. -1.
        -14    1    4    4    0    0  0.18803405136E+02  0.11865904272E+02 -0.10434601333E+03  0.10668860402E+03  0.00000000000E+00 0.  1.
</event>
<event>
12    1  0.8562501E-002  0.1851873E+03  0.7818608E-02  0.1162997E+00
         21   -1    0    0  503  502  0.00000000000E+00  0.00000000000E+00  0.53795069001E+02  0.53795069001E+02  0.00000000000E+00 0.  1.
         21   -1    0    0  501  503 -0.00000000000E+00 -0.00000000000E+00 -0.64911537094E+03  0.64911537094E+03  0.00000000000E+00 0.  1.
          6    2    1    2  501    0  0.62632785816E+02  0.23093747205E+02 -0.34858864085E+03  0.39472570145E+03  0.17273723350E+03 0.  0.
         24    2    3    3    0    0  0.30705458495E+02  0.12349463584E+01 -0.63573739512E+02  0.10705793233E+03  0.80470058073E+02 0.  0.
         -6    2    1    2    0  502 -0.62632785816E+02 -0.23093747205E+02 -0.24673166109E+03  0.30818473849E+03  0.17217762176E+03 0.  0.
        -24    2    5    5    0    0  0.16339048085E+02 -0.59607155825E+02 -0.18493335150E+03  0.20136292130E+03  0.50266331291E+02 0.  0.
          5    1    3    3  501    0  0.31927327321E+02  0.21858800847E+02 -0.28501490133E+03  0.28766776911E+03  0.47000000000E+01 0. -1.
        -13    1    4    4    0    0  0.42159161481E+02 -0.21350284742E+02 -0.66483639820E+02  0.81567787263E+02  0.00000000000E+00 0.  1.
         14    1    4    4    0    0 -0.11453702986E+02  0.22585231100E+02  0.29099003077E+01  0.25490145071E+02  0.00000000000E+00 0. -1.
         -5    1    5    5    0  502 -0.78971833901E+02  0.36513408620E+02 -0.61798309594E+02  0.10682181719E+03  0.47000000000E+01 0.  1.
         11    1    6    6    0    0  0.17627840222E+01 -0.57878550044E+02 -0.10331998674E+03  0.11844008453E+03  0.00000000000E+00 0. -1.
        -12    1    6    6    0    0  0.14576264063E+02 -0.17286057807E+01 -0.81613364752E+02  0.82922836770E+02  0.00000000000E+00 0.  1.
</event>
<event>
12    1  0.8562501E-002  0.1971847E+03  0.7818608E-02  0.1152501E+00
         21   -1    0    0  501  502  0.00000000000E+00  0.00000000000E+00  0.93081781224E+02  0.93081781224E+02  0.00000000000E+00 0. -1.
         21   -1    0    0  502  503 -0.00000000000E+00 -0.00000000000E+00 -0.50461458645E+03  0.50461458645E+03  0.00000000000E+00 0. -1.
         -6    2    1    2    0  503 -0.91974674239E+02 -0.29876772947E+02 -0.33157506882E+03  0.38491702074E+03  0.16990327934E+03 0.  0.
        -24    2    3    3    0    0 -0.76621574545E+02 -0.72817457093E+02 -0.30303491933E+03  0.33091470451E+03  0.80629594963E+02 0.  0.
          6    2    1    2  501    0  0.91974674239E+02  0.29876772947E+02 -0.79957736407E+02  0.21277934693E+03  0.17184251106E+03 0.  0.
         24    2    5    5    0    0  0.47982746174E+02  0.84968811594E+02 -0.51789931041E+02  0.13671399532E+03  0.80538665777E+02 0.  0.
          5    1    5    5  501    0  0.43991928066E+02 -0.55092038647E+02 -0.28167805366E+02  0.76065351615E+02  0.47000000000E+01 0. -1.
        -11    1    6    6    0    0  0.42402195634E+02  0.55813132800E+02 -0.72248239545E+02  0.10066210859E+03  0.00000000000E+00 0.  1.
         12    1    6    6    0    0  0.55805505392E+01  0.29155678794E+02  0.20458308504E+02  0.36051886734E+02  0.00000000000E+00 0. -1.
         -5    1    3    3    0  503 -0.15353099694E+02  0.42940684146E+02 -0.28540149484E+02  0.54002316225E+02  0.47000000000E+01 0.  1.
         11    1    4    4    0    0  0.59964617977E+01  0.12353738167E+02 -0.41699024343E+02  0.43901947929E+02  0.00000000000E+00 0. -1.
        -12    1    4    4    0    0 -0.82618036343E+02 -0.85171195260E+02 -0.26133589499E+03  0.28701275658E+03  0.00000000000E+00 0.  1.
</event>
<event>
12    1  0.8562501E-002  0.2151255E+03  0.7818608E-02  0.1138023E+00
         21   -1    0    0  501  502  0.00000000000E+00  0.00000000000E+00  0.28921756214E+03  0.28921756214E+03  0.00000000000E+00 0. -1.
         21   -1    0    0  502  503 -0.00000000000E+00 -0.00000000000E+00 -0.23954352121E+03  0.23954352121E+03  0.00000000000E+00 0. -1.
         -6    2    1    2    0  503  0.10076377963E+03 -0.73393801990E+02 -0.12924499412E+03  0.24895576345E+03  0.17243756608E+03 0.  0.
        -24    2    3    3    0    0  0.11795953021E+03 -0.11753654222E+02 -0.10748667238E+03  0.18120093912E+03  0.85016448091E+02 0.  0.
          6    2    1    2  501    0 -0.10076377963E+03  0.73393801990E+02  0.17891903504E+03  0.27980531989E+03  0.17532543022E+03 0.  0.
         24    2    5    5    0    0 -0.13389967914E+03  0.34428056840E+02  0.11129439535E+03  0.19488477453E+03  0.80493588166E+02 0.  0.
          5    1    5    5  501    0  0.33135899505E+02  0.38965745150E+02  0.67624639696E+02  0.84920545365E+02  0.47000000000E+01 0. -1.
        -11    1    6    6    0    0 -0.86524226140E+02  0.56316939703E+02  0.51020069609E+02  0.11515679272E+03  0.00000000000E+00 0.  1.
         12    1    6    6    0    0 -0.47375452997E+02 -0.21888882864E+02  0.60274325739E+02  0.79727981807E+02  0.00000000000E+00 0. -1.
         -5    1    3    3    0  503 -0.17195750577E+02 -0.61640147768E+02 -0.21758321741E+02  0.67754824328E+02  0.47000000000E+01 0.  1.
         13    1    4    4    0    0  0.19194685770E+02 -0.72849614991E+01 -0.74035250424E+02  0.76829193222E+02  0.00000000000E+00 0. -1.
        -14    1    4    4    0    0  0.98764844440E+02 -0.44686927229E+01 -0.33451421952E+02  0.10437174590E+03  0.00000000000E+00 0.  1.
</event>
<event>
12    1  0.8562501E-002  0.2068684E+03  0.7818608E-02  0.1144404E+00
         21   -1    0    0  501  502  0.00000000000E+00  0.00000000000E+00  0.20195413137E+03  0.20195413137E+03  0.00000000000E+00 0.  1.
         21   -1    0    0  502  503 -0.00000000000E+00 -0.00000000000E+00 -0.21255313168E+03  0.21255313168E+03  0.00000000000E+00 0.  1.
         -6    2    1    2    0  503  0.95340619133E+02 -0.61634084995E+02 -0.26990531038E+02  0.20699043472E+03  0.17096185894E+03 0.  0.
        -24    2    3    3    0    0  0.34472746297E+02  0.20867702972E+02  0.23358652586E+02  0.92672574118E+02  0.80117089802E+02 0.  0.
          6    2    1    2  501    0 -0.95340619133E+02  0.61634084995E+02  0.16391530736E+02  0.20751682833E+03  0.17293339085E+03 0.  0.
         24    2    5    5    0    0  0.27679136319E+01  0.32832796488E+02 -0.36027493865E+02  0.92518382424E+02  0.78587638348E+02 0.  0.
          5    1    5    5  501    0 -0.98108532765E+02  0.28801288507E+02  0.52419024600E+02  0.11499844591E+03  0.47000000000E+01 0. -1.
        -13    1    6    6    0    0 -0.25773532195E+02  0.21707528801E-01  0.11390452673E+02  0.28178322256E+02  0.00000000000E+00 0.  1.
         14    1    6    6    0    0  0.28541445827E+02  0.32811088959E+02 -0.47417946538E+02  0.64340060168E+02  0.00000000000E+00 0. -1.
         -5    1    3    3    0  503  0.60867872836E+02 -0.82501787967E+02 -0.50349183624E+02  0.11431786060E+03  0.47000000000E+01 0.  1.
         13    1    4    4    0    0  0.46121291787E+02 -0.24235930870E+01  0.40556615958E+02  0.61464513807E+02  0.00000000000E+00 0. -1.
        -14    1    4    4    0    0 -0.11648545491E+02  0.23291296059E+02 -0.17197963372E+02  0.31208060310E+02  0.00000000000E+00 0.  1.
</event>
<event>
12    1  0.8562501E-002  0.1731865E+03  0.7818608E-02  0.1174814E+00
         21   -1    0    0  501  502  0.00000000000E+00  0.00000000000E+00  0.69908097940E+02  0.69908097940E+02  0.00000000000E+00 0. -1.
         21   -1    0    0  502  503 -0.00000000000E+00 -0.00000000000E+00 -0.42729325194E+03  0.42729325194E+03  0.00000000000E+00 0. -1.
         -6    2    1    2    0  503  0.19592717695E+02 -0.43771791332E+01 -0.18899640888E+03  0.25634587425E+03  0.17201898265E+03 0.  0.
        -24    2    3    3    0    0  0.35819028067E+02  0.49289785916E+02 -0.66534756696E+02  0.12157799031E+03  0.81497534391E+02 0.  0.
          6    2    1    2  501    0 -0.19592717695E+02  0.43771791332E+01 -0.16838874511E+03  0.24085547563E+03  0.17103671060E+03 0.  0.
         24    2    5    5    0    0  0.37833910944E+02  0.26989002508E+02 -0.45757363827E+02  0.10348860222E+03  0.80351374420E+02 0.  0.
          5    1    5    5  501    0 -0.57426628638E+02 -0.22611823374E+02 -0.12263138129E+03  0.13736687341E+03  0.47000000000E+01 0. -1.
        -11    1    6    6    0    0  0.20134033951E+02  0.41150719118E+02 -0.60915204713E+02  0.76219572108E+02  0.00000000000E+00 0.  1.
         12    1    6    6    0    0  0.17699876992E+02 -0.14161716610E+02  0.15157840886E+02  0.27269030112E+02  0.00000000000E+00 0. -1.
         -5    1    3    3    0  503 -0.16226310372E+02 -0.53666965049E+02 -0.12246165219E+03  0.13476788394E+03  0.47000000000E+01 0.  1.
         13    1    4    4    0    0  0.36938495302E+02  0.15820740765E+02 -0.76693607572E+02  0.86583241542E+02  0.00000000000E+00 0. -1.
        -14    1    4    4    0    0 -0.11194672353E+01  0.33469045151E+02  0.10158850876E+02  0.34994748767E+02  0.00000000000E+00 0.  1.
</event>
<event>
12    1  0.8562501E-002  0.2917244E+03  0.7818608E-02  0.1089453E+00
         21   -1    0    0  503  502  0.00000000000E+00  0.00000000000E+00  0.40504261715E+03  0.40504261715E+03  0.00000000000E+00 0.  1.
         21   -1    0    0  501  503 -0.00000000000E+00 -0.00000000000E+00 -0.22554901430E+03  0.22554901430E+03  0.00000000000E+00 0. -1.
          6    2    1    2  501    0  0.22424948882E+03 -0.71896549574E+02  0.72403752811E+01  0.29180807645E+03  0.17217021627E+03 0.  0.
         24    2    3    3    0    0  0.32396137135E+02  0.16927004518E+02  0.14295010250E+02  0.80220765420E+02  0.69964210160E+02 0.  0.
         -6    2    1    2    0  502 -0.22424948882E+03  0.71896549574E+02  0.17225322757E+03  0.33878355499E+03  0.17218064830E+03 0.  0.
        -24    2    5    5    0    0 -0.68868316080E+02  0.54056884103E+02  0.19570775271E+02  0.12016154387E+03  0.79942414914E+02 0.  0.
          5    1    3    3  501    0  0.19185335169E+03 -0.88823554092E+02 -0.70546349687E+01  0.21158731103E+03  0.47000000000E+01 0. -1.
        -11    1    4    4    0    0 -0.86108840817E+00  0.12467063515E+02 -0.25361353946E+02  0.28273086494E+02  0.00000000000E+00 0.  1.
         12    1    4    4    0    0  0.33257225543E+02  0.44599410027E+01  0.39656364195E+02  0.51947678926E+02  0.00000000000E+00 0. -1.
         -5    1    5    5    0  502 -0.15538117274E+03  0.17839665471E+02  0.15268245230E+03  0.21862201112E+03  0.47000000000E+01 0.  1.
         11    1    6    6    0    0 -0.56878073730E+02  0.50304839721E+01 -0.14936671173E+02  0.59021396002E+02  0.00000000000E+00 0. -1.
        -12    1    6    6    0    0 -0.11990242349E+02  0.49026400131E+02  0.34507446444E+02  0.61140147869E+02  0.00000000000E+00 0.  1.
</event>
<event>
12    1  0.8562501E-002  0.2064953E+03  0.7818608E-02  0.1144944E+00
         21   -1    0    0  503  502  0.00000000000E+00  0.00000000000E+00  0.45680720175E+03  0.45680720175E+03  0.00000000000E+00 0. -1.
         21   -1    0    0  501  503 -0.00000000000E+00 -0.00000000000E+00 -0.16154051488E+03  0.16154051488E+03  0.00000000000E+00 0. -1.
          6    2    1    2  501    0 -0.11117855957E+03 -0.29754040296E+02 -0.55677495716E+02  0.21115964949E+03  0.16805486908E+03 0.  0.
         24    2    3    3    0    0 -0.99234535116E+02 -0.55813467268E+02 -0.89819704839E+02  0.16633182444E+03  0.81462017882E+02 0.  0.
         -6    2    1    2    0  502  0.11117855957E+03  0.29754040296E+02  0.35094418258E+03  0.40718806715E+03  0.17144774049E+03 0.  0.
        -24    2    5    5    0    0  0.13410200395E+03 -0.10415719545E+02  0.29911072205E+03  0.33756126528E+03  0.79928399803E+02 0.  0.
          5    1    3    3  501    0 -0.11944024452E+02  0.26059426972E+02  0.34142209123E+02  0.44827825042E+02  0.47000000000E+01 0. -1.
        -13    1    4    4    0    0  0.12440248665E+02 -0.18285731741E+02 -0.12341951725E+02  0.25326893701E+02  0.00000000000E+00 0.  1.
         14    1    4    4    0    0 -0.11167478378E+03 -0.37527735527E+02 -0.77477753114E+02  0.14100493074E+03  0.00000000000E+00 0. -1.
         -5    1    5    5    0  502 -0.22923444380E+02  0.40169759841E+02  0.51833460529E+02  0.69626801868E+02  0.47000000000E+01 0.  1.
         11    1    6    6    0    0  0.19482876845E+02 -0.29836970483E+02  0.10947129733E+03  0.11512511557E+03  0.00000000000E+00 0. -1.
        -12    1    6    6    0    0  0.11461912710E+03  0.19421250938E+02  0.18963942473E+03  0.22243614971E+03  0.00000000000E+00 0.  1.
</event>
<event>
12    1  0.8562501E-002  0.2249383E+03  0.7818608E-02  0.1131514E+00
         21   -1    0    0  501  502  0.00000000000E+00  0.00000000000E+00  0.45597532895E+03  0.45597532895E+03  0.00000000000E+00 0. -1.
         21   -1    0    0  502  503 -0.00000000000E+00 -0.00000000000E+00 -0.11398954659E+03  0.11398954659E+03  0.00000000000E+00 0. -1.
         -6    2    1    2    0  503  0.41431407244E+02 -0.13795041234E+03  0.23588434753E+03  0.32125869022E+03  0.16376459588E+03 0.  0.
        -24    2    3    3    0    0  0.27246947689E+02 -0.16520408817E+03  0.18888829373E+03  0.26491438428E+03  0.80411793828E+02 0.  0.
          6    2    1    2  501    0 -0.41431407244E+02  0.13795041234E+03  0.10610143483E+03  0.24870618532E+03  0.17277260887E+03 0.  0.
         24    2    5    5    0    0  0.39824808200E+02  0.55467636544E+02  0.72969248796E+02  0.12818310620E+03  0.80272806057E+02 0.  0.
          5    1    5    5  501    0 -0.81256215444E+02  0.82482775794E+02  0.33132186034E+02  0.12052307913E+03  0.47000000000E+01 0. -1.
        -13    1    6    6    0    0  0.13768102569E+02  0.10532604140E+01  0.66024903513E+02  0.67453375673E+02  0.00000000000E+00 0.  1.
         14    1    6    6    0    0  0.26056705630E+02  0.54414376130E+02  0.69443452831E+01  0.60729730523E+02  0.00000000000E+00 0. -1.
         -5    1    3    3    0  503  0.14184459555E+02  0.27253675827E+02  0.46996053796E+02  0.56344305935E+02  0.47000000000E+01 0.  1.
         11    1    4    4    0    0  0.54551315379E+02 -0.92443186649E+02  0.12071113573E+03  0.16153255727E+03  0.00000000000E+00 0. -1.
        -12    1    4    4    0    0 -0.27304367691E+02 -0.72760901517E+02  0.68177158001E+02  0.10338182702E+03  0.00000000000E+00 0.  1.
</event>
<event>
12    1  0.8562501E-002  0.3069935E+03  0.7818608E-02  0.1081967E+00
         21   -1    0    0  501  502  0.00000000000E+00  0.00000000000E+00  0.83302737236E+02  0.83302737236E+02  0.00000000000E+00 0.  1.
         21   -1    0    0  502  503 -0.00000000000E+00 -0.00000000000E+00 -0.11404460679E+04  0.11404460679E+04  0.00000000000E+00 0. -1.
         -6    2    1    2    0  503 -0.25180379312E+03  0.19315739133E+02 -0.59816914568E+03  0.67234762499E+03  0.17454728295E+03 0.  0.
        -24    2    3    3    0    0 -0.10925718083E+03  0.69004945103E+02 -0.35138609831E+03  0.38301647159E+03  0.80812210757E+02 0.  0.
          6    2    1    2  501    0  0.25180379312E+03 -0.19315739133E+02 -0.45897418500E+03  0.55140118016E+03  0.17206891345E+03 0.  0.
         24    2    5    5    0    0  0.19391153206E+03 -0.45900866348E+02 -0.43204632937E+03  0.48207959414E+03  0.77641049474E+02 0.  0.
          5    1    5    5  501    0  0.57892261055E+02  0.26585127215E+02 -0.26927855626E+02  0.69321586016E+02  0.47000000000E+01 0. -1.
        -13    1    6    6    0    0  0.13531010875E+03 -0.23368363516E+02 -0.36620363404E+03  0.39110101959E+03  0.00000000000E+00 0.  1.
         14    1    6    6    0    0  0.58601423307E+02 -0.22532502832E+02 -0.65842695335E+02  0.90978574547E+02  0.00000000000E+00 0. -1.
         -5    1    3    3    0  503 -0.14254661229E+03 -0.49689205970E+02 -0.24678304737E+03  0.28933115341E+03  0.47000000000E+01 0.  1.
         13    1    4    4    0    0 -0.17165022288E+01  0.31713817508E+02 -0.37568860952E+02  0.49194836254E+02  0.00000000000E+00 0. -1.
        -14    1    4    4    0    0 -0.10754067860E+03  0.37291127595E+02 -0.31381723736E+03  0.33382163533E+03  0.00000000000E+00 0.  1.
</event>
<event>
12    1  0.8562501E-002  0.1718482E+03  0.7818608E-02  0.1177512E+00
         21   -1    0    0  501  502  0.00000000000E+00  0.00000000000E+00  0.83298890875E+02  0.83298890875E+02  0.00000000000E+00 0. -1.
         21   -1    0    0  502  503 -0.00000000000E+00 -0.00000000000E+00 -0.36831740611E+03  0.36831740611E+03  0.00000000000E+00 0. -1.
         -6    2    1    2    0  503 -0.40395267532E+01  0.65845162726E+01 -0.20497368015E+03  0.26748088523E+03  0.17167451989E+03 0.  0.
        -24    2    3    3    0    0  0.45738730465E+02 -0.22008291854E+01 -0.51833370845E+02  0.10614551552E+03  0.80518923351E+02 0.  0.
          6    2    1    2  501    0  0.40395267532E+01 -0.65845162726E+01 -0.80044835086E+02  0.18413541176E+03  0.16564721733E+03 0.  0.
         24    2    5    5    0    0 -0.58677444479E+02 -0.40753914686E+01 -0.66998195544E+02  0.11985462932E+03  0.80104448416E+02 0.  0.
          5    1    5    5  501    0  0.62716971232E+02 -0.25091248040E+01 -0.13046639542E+02  0.64280782441E+02  0.47000000000E+01 0. -1.
        -13    1    6    6    0    0 -0.29609098026E+02  0.21377507070E+02 -0.72159376185E+02  0.80874421579E+02  0.00000000000E+00 0.  1.
         14    1    6    6    0    0 -0.29068346453E+02 -0.25452898539E+02  0.51611806408E+01  0.38980207736E+02  0.00000000000E+00 0. -1.
         -5    1    3    3    0  503 -0.49778257218E+02  0.87853454580E+01 -0.15314030931E+03  0.16133536971E+03  0.47000000000E+01 0.  1.
         11    1    4    4    0    0 -0.35594667822E+00  0.50919958893E+01 -0.58746842876E+02  0.58968183524E+02  0.00000000000E+00 0. -1.
        -12    1    4    4    0    0  0.46094677143E+02 -0.72928250746E+01  0.69134720314E+01  0.47177331994E+02  0.00000000000E+00 0.  1.
</event>
<event>
12    1  0.8562501E-002  0.2205610E+03  0.7818608E-02  0.1133599E+00
         21   -1    0    0  503  502  0.00000000000E+00  0.00000000000E+00  0.74047903207E+02  0.74047903207E+02  0.00000000000E+00 0. -1.
         21   -1    0    0  501  503 -0.00000000000E+00 -0.00000000000E+00 -0.83049359515E+03  0.83049359515E+03  0.00000000000E+00 0. -1.
          6    2    1    2  501    0  0.13123109601E+03 -0.34679254015E+02 -0.58671020985E+03  0.62679822788E+03  0.17384733794E+03 0.  0.
         24    2    3    3    0    0  0.12858953897E+03 -0.63025251438E+02 -0.33291141921E+03  0.37136449963E+03  0.81080988501E+02 0.  0.
         -6    2    1    2    0  502 -0.13123109601E+03  0.34679254015E+02 -0.16973548210E+03  0.27774327048E+03  0.17293622870E+03 0.  0.
        -24    2    5    5    0    0 -0.12704393010E+03  0.79509210813E+02 -0.10915466790E+03  0.20211667177E+03  0.80464480996E+02 0.  0.
          5    1    3    3  501    0  0.26415570399E+01  0.28345997423E+02 -0.25379879064E+03  0.25543372825E+03  0.47000000000E+01 0. -1.
        -13    1    4    4    0    0  0.79223045299E+02 -0.48630953321E+02 -0.11710041455E+03  0.14951176414E+03  0.00000000000E+00 0.  1.
         14    1    4    4    0    0  0.49366493669E+02 -0.14394298118E+02 -0.21581100465E+03  0.22185273549E+03  0.00000000000E+00 0. -1.
         -5    1    5    5    0  502 -0.41871659067E+01 -0.44829956798E+02 -0.60580814198E+02  0.75626598719E+02  0.47000000000E+01 0.  1.
         11    1    6    6    0    0 -0.80349607027E+02  0.36914051693E+01 -0.60499997974E+02  0.10064758108E+03  0.00000000000E+00 0. -1.
        -12    1    6    6    0    0 -0.46694323075E+02  0.75817805644E+02 -0.48654669923E+02  0.10146909069E+03  0.00000000000E+00 0.  1.
</event>
<event>
12    1  0.8562501E-002  0.3926011E+03  0.7818608E-02  0.1046387E+00
         21   -1    0    0  501  502  0.00000000000E+00  0.00000000000E+00  0.37942591408E+03  0.37942591408E+03  0.00000000000E+00 0.  1.
         21   -1    0    0  502  503 -0.00000000000E+00 -0.00000000000E+00 -0.98815355773E+03  0.98815355773E+03  0.00000000000E+00 0. -1.
         -6    2    1    2    0  503  0.35065828391E+03  0.39750519470E+02 -0.82920316829E+03  0.91744946497E+03  0.17202991196E+03 0.  0.
        -24    2    3    3    0    0  0.27423378386E+03 -0.32711188127E+02 -0.61042947675E+03  0.67460090849E+03  0.78664157111E+02 0.  0.
          6    2    1    2  501    0 -0.35065828391E+03 -0.39750519470E+02  0.22047552464E+03  0.45013000684E+03  0.17165730459E+03 0.  0.
         24    2    5    5    0    0 -0.15173785345E+03  0.21819221005E+02  0.15822621385E+03  0.23274270894E+03  0.75054508452E+02 0.  0.
          5    1    5    5  501    0 -0.19892043045E+03 -0.61569740475E+02  0.62249310788E+02  0.21738729790E+03  0.47000000000E+01 0. -1.
        -11    1    6    6    0    0 -0.52168277100E+02 -0.17712130156E+02  0.21724394442E+02  0.59221600824E+02  0.00000000000E+00 0.  1.
         12    1    6    6    0    0 -0.99569576353E+02  0.39531351161E+02  0.13650181941E+03  0.17352110811E+03  0.00000000000E+00 0. -1.
         -5    1    3    3    0  503  0.76424500044E+02  0.72461707597E+02 -0.21877369154E+03  0.24284855648E+03  0.47000000000E+01 0.  1.
         11    1    4    4    0    0  0.13633545079E+03 -0.44321493186E+02 -0.37559881469E+03  0.40202763524E+03  0.00000000000E+00 0. -1.
        -12    1    4    4    0    0  0.13789833308E+03  0.11610305059E+02 -0.23483066206E+03  0.27257327325E+03  0.00000000000E+00 0.  1.
</event>
<event>
12    1  0.8562501E-002  0.2027486E+03  0.7818608E-02  0.1147761E+00
         21   -1    0    0  503  502  0.00000000000E+00  0.00000000000E+00  0.13862229450E+03  0.13862229450E+03  0.00000000000E+00 0.  1.
         21   -1    0    0  501  503 -0.00000000000E+00 -0.00000000000E+00 -0.37825497593E+03  0.37825497593E+03  0.00000000000E+00 0.  1.
          6    2    1    2  501    0  0.92915772721E+02 -0.50377554055E+02 -0.24193495885E+03  0.31565731214E+03  0.17301958161E+03 0.  0.
         24    2    3    3    0    0  0.25500409892E+02 -0.69074443646E+02 -0.21485631233E+03  0.24049250706E+03  0.79068712727E+02 0.  0.
         -6    2    1    2    0  502 -0.92915772721E+02  0.50377554055E+02  0.23022774165E+01  0.20121995830E+03  0.17121019935E+03 0.  0.
        -24    2    5    5    0    0 -0.98998357867E+02  0.92811329839E+02 -0.54520193018E+01  0.15740395338E+03  0.79571742584E+02 0.  0.
          5    1    3    3  501    0  0.67415362829E+02  0.18696889591E+02 -0.27078646517E+02  0.75164805081E+02  0.47000000000E+01 0. -1.
        -11    1    4    4    0    0 -0.21380813783E+02 -0.33027997912E+02 -0.13811065495E+03  0.14360550427E+03  0.00000000000E+00 0.  1.
         12    1    4    4    0    0  0.46881223675E+02 -0.36046445735E+02 -0.76745657378E+02  0.96887002790E+02  0.00000000000E+00 0. -1.
         -5    1    5    5    0  502  0.60825851465E+01 -0.42433775784E+02  0.77542967182E+01  0.43816004918E+02  0.47000000000E+01 0.  1.
         13    1    6    6    0    0 -0.66730385225E+02  0.34474186072E+02 -0.36909389231E+02  0.83688212019E+02  0.00000000000E+00 0. -1.
        -14    1    6    6    0    0 -0.32267972642E+02  0.58337143767E+02  0.31457369929E+02  0.73715741360E+02  0.00000000000E+00 0.  1.
</event>
<event>
12    1  0.8562501E-002  0.1824601E+03  0.7818608E-02  0.1165491E+00
         21   -1    0    0  501  502  0.00000000000E+00  0.00000000000E+00  0.55686529816E+02  0.55686529816E+02  0.00000000000E+00 0.  1.
         21   -1    0    0  502  503 -0.00000000000E+00 -0.00000000000E+00 -0.17762519060E+04  0.17762519060E+04  0.00000000000E+00 0.  1.
         -6    2    1    2    0  503  0.37634283214E+02 -0.46825473182E+02 -0.16067157639E+04  0.16170427453E+04  0.17228676606E+03 0.  0.
        -24    2    3    3    0    0  0.37354530715E-01 -0.81669808657E+02 -0.80540330559E+03  0.81407860993E+03  0.85904245759E+02 0.  0.
          6    2    1    2  501    0 -0.37634283214E+02  0.46825473182E+02 -0.11384961220E+03  0.21489569049E+03  0.17207399391E+03 0.  0.
         24    2    5    5    0    0 -0.88051042601E+02  0.48736402390E+02 -0.61699520389E+02  0.14218239492E+03  0.79251369620E+02 0.  0.
          5    1    5    5  501    0  0.50416759388E+02 -0.19109292077E+01 -0.52150091807E+02  0.72713295573E+02  0.47000000000E+01 0. -1.
        -11    1    6    6    0    0 -0.16975954941E+01 -0.13494690178E+02  0.71989676885E+01  0.15388750087E+02  0.00000000000E+00 0.  1.
         12    1    6    6    0    0 -0.86353447107E+02  0.62231092568E+02 -0.68898488077E+02  0.12679364483E+03  0.00000000000E+00 0. -1.
         -5    1    3    3    0  503  0.37596928683E+02  0.34844335475E+02 -0.80131245835E+03  0.80296413535E+03  0.47000000000E+01 0.  1.
         13    1    4    4    0    0 -0.41221121196E+02 -0.55674359270E+02 -0.50858207356E+03  0.51327822929E+03  0.00000000000E+00 0. -1.
        -14    1    4    4    0    0  0.41258475726E+02 -0.25995449387E+02 -0.29682123203E+03  0.30080038064E+03  0.00000000000E+00 0.  1.
</event>
<event>
12    1  0.8562501E-002  0.2159461E+03  0.7818608E-02  0.1137123E+00
         21   -1    0    0  501  502  0.00000000000E+00  0.00000000000E+00  0.97404809668E+02  0.97404809668E+02  0.00000000000E+00 0.  1.
         21   -1    0    0  502  503 -0.00000000000E+00 -0.00000000000E+00 -0.50514870617E+03  0.50514870617E+03  0.00000000000E+00 0. -1.
         -6    2    1    2    0  503  0.43218947052E+02 -0.12330296891E+03 -0.13189092676E+03  0.25222857888E+03  0.17074114887E+03 0.  0.
        -24    2    3    3    0    0  0.27384475322E+02 -0.14615811939E+03 -0.67743450673E+02  0.18215663666E+03  0.80496955343E+02 0.  0.
          6    2    1    2  501    0 -0.43218947052E+02  0.12330296891E+03 -0.27585296974E+03  0.35032493695E+03  0.17193371109E+03 0.  0.
         24    2    5    5    0    0 -0.23039396916E+02  0.88448009328E+02 -0.71917560816E+02  0.14239748936E+03  0.82164744610E+02 0.  0.
          5    1    5    5  501    0 -0.20179550135E+02  0.34854959580E+02 -0.20393540893E+03  0.20792744760E+03  0.47000000000E+01 0. -1.
        -11    1    6    6    0    0 -0.55776965557E+01  0.62240263157E+02 -0.87291141071E+02  0.10735317586E+03  0.00000000000E+00 0.  1.
         12    1    6    6    0    0 -0.17461700360E+02  0.26207746171E+02  0.15373580255E+02  0.35044313500E+02  0.00000000000E+00 0. -1.
         -5    1    3    3    0  503  0.15834471729E+02  0.22855150479E+02 -0.64147476088E+02  0.70071942223E+02  0.47000000000E+01 0.  1.
         13    1    4    4    0    0 -0.82319397444E+00 -0.82215910962E+02 -0.75770917158E+02  0.11180950564E+03  0.00000000000E+00 0. -1.
        -14    1    4    4    0    0  0.28207669297E+02 -0.63942208426E+02  0.80274664847E+01  0.70347131027E+02  0.00000000000E+00 0.  1.
</event>
<event>
12    1  0.8562501E-002  0.2157238E+03  0.7818608E-02  0.1137128E+00
         21   -1    0    0  501  502  0.00000000000E+00  0.00000000000E+00  0.39251079095E+03  0.39251079095E+03  0.00000000000E+00 0. -1.
         21   -1    0    0  502  503 -0.00000000000E+00 -0.00000000000E+00 -0.14737982163E+03  0.14737982163E+03  0.00000000000E+00 0. -1.
         -6    2    1    2    0  503 -0.11080693949E+03 -0.68517835690E+02  0.31182491691E+01  0.21574631461E+03  0.17194149337E+03 0.  0.
        -24    2    3    3    0    0 -0.94984833113E+02 -0.28199382874E+02 -0.59262734962E+02  0.13965824807E+03  0.78581364101E+02 0.  0.
          6    2    1    2  501    0  0.11080693949E+03  0.68517835690E+02  0.24201272015E+03  0.32414429797E+03  0.17183276040E+03 0.  0.
         24    2    5    5    0    0  0.12752801462E+03  0.27475750834E+02  0.12257259928E+03  0.19666065370E+03  0.81443595351E+02 0.  0.
          5    1    5    5  501    0 -0.16721075132E+02  0.41042084856E+02  0.11944012087E+03  0.12748364427E+03  0.47000000000E+01 0. -1.
        -11    1    6    6    0    0  0.30762540298E+02  0.18078485895E+02 -0.52509470668E+01  0.36065745284E+02  0.00000000000E+00 0.  1.
         12    1    6    6    0    0  0.96765474321E+02  0.93972649394E+01  0.12782354635E+03  0.16059490842E+03  0.00000000000E+00 0. -1.
         -5    1    3    3    0  503 -0.15822106374E+02 -0.40318452817E+02  0.62380984131E+02  0.76088066533E+02  0.47000000000E+01 0.  1.
         11    1    4    4    0    0 -0.61848738225E+02  0.13313237135E+02 -0.59050798655E+02  0.86541929287E+02  0.00000000000E+00 0. -1.
        -12    1    4    4    0    0 -0.33136094888E+02 -0.41512620009E+02 -0.21193630671E+00  0.53116318786E+02  0.00000000000E+00 0.  1.
</event>
<event>
12    1  0.8562501E-002  0.2111900E+03  0.7818608E-02  0.1140843E+00
         21   -1    0    0  501  502  0.00000000000E+00  0.00000000000E+00  0.89699009090E+03  0.89699009090E+03  0.00000000000E+00 0.  1.
         21   -1    0    0  502  503 -0.00000000000E+00 -0.00000000000E+00 -0.10102969755E+03  0.10102969755E+03  0.00000000000E+00 0. -1.
         -6    2    1    2    0  503  0.53423675803E+02  0.10826626104E+03  0.75397205883E+03  0.78269617995E+03  0.17194118818E+03 0.  0.
        -24    2    3    3    0    0  0.15546927511E+01  0.25611170204E+02  0.15847389198E+03  0.17923747203E+03  0.79710399764E+02 0.  0.
          6    2    1    2  501    0 -0.53423675803E+02 -0.10826626104E+03  0.41988334517E+02  0.21532360849E+03  0.17327886115E+03 0.  0.
         24    2    5    5    0    0  0.37470027190E+02 -0.22483212102E+02  0.22400848371E+02  0.88729152282E+02  0.73902413310E+02 0.  0.
          5    1    5    5  501    0 -0.90893702992E+02 -0.85783048943E+02  0.19587486147E+02  0.12659445621E+03  0.47000000000E+01 0. -1.
        -11    1    6    6    0    0  0.38831196243E+01 -0.22029142376E+02  0.43604015635E+02  0.49006855758E+02  0.00000000000E+00 0.  1.
         12    1    6    6    0    0  0.33586907565E+02 -0.45406972627E+00 -0.21203167264E+02  0.39722296524E+02  0.00000000000E+00 0. -1.
         -5    1    3    3    0  503  0.51868983052E+02  0.82655090841E+02  0.59549816685E+03  0.60345870792E+03  0.47000000000E+01 0.  1.
         11    1    4    4    0    0 -0.15038892827E+01  0.37287385302E+02  0.24322786231E+02  0.44544457743E+02  0.00000000000E+00 0. -1.
        -12    1    4    4    0    0  0.30585820337E+01 -0.11676215098E+02  0.13415110575E+03  0.13469301428E+03  0.00000000000E+00 0.  1.
</event>
<event>
12    1  0.8562501E-002  0.2202988E+03  0.7818608E-02  0.1133860E+00
         21   -1    0    0  503  502  0.00000000000E+00  0.00000000000E+00  0.38433260868E+03  0.38433260868E+03  0.00000000000E+00 0. -1.
         21   -1    0    0  501  503 -0.00000000000E+00 -0.00000000000E+00 -0.12589772891E+03  0.12589772891E+03  0.00000000000E+00 0. -1.
          6    2    1    2  501    0 -0.93858319801E+02  0.97728957762E+02  0.13993168310E+03  0.26008123500E+03  0.17233989521E+03 0.  0.
         24    2    3    3    0    0 -0.88812852854E+02  0.54133580534E+01  0.11031687433E+03  0.16288682372E+03  0.80282484397E+02 0.  0.
         -6    2    1    2    0  502  0.93858319801E+02 -0.97728957762E+02  0.11850319666E+03  0.25014910259E+03  0.17369868314E+03 0.  0.
        -24    2    5    5    0    0 -0.13551256585E+02 -0.75737869214E+02  0.96033760000E+02  0.13813396674E+03  0.62758651349E+02 0.  0.
          5    1    3    3  501    0 -0.50454669462E+01  0.92315599709E+02  0.29614808774E+02  0.97194411285E+02  0.47000000000E+01 0. -1.
        -13    1    4    4    0    0 -0.46642554071E+02 -0.33810444503E+02  0.32715751880E+02  0.66249486254E+02  0.00000000000E+00 0.  1.
         14    1    4    4    0    0 -0.42170298783E+02  0.39223802557E+02  0.77601122448E+02  0.96637337462E+02  0.00000000000E+00 0. -1.
         -5    1    5    5    0  502  0.10740957639E+03 -0.21991088548E+02  0.22469436663E+02  0.11201513585E+03  0.47000000000E+01 0.  1.
         13    1    6    6    0    0 -0.11044107970E+02 -0.73987371576E+02  0.10485101542E+03  0.12880154855E+03  0.00000000000E+00 0. -1.
        -14    1    6    6    0    0 -0.25071486141E+01 -0.17504976380E+01 -0.88172554200E+01  0.93324181912E+01  0.00000000000E+00 0.  1.
</event>
<event>
12    1  0.8562501E-002  0.1809644E+03  0.7818608E-02  0.1169334E+00
         21   -1    0    0  503  502  0.00000000000E+00  0.00000000000E+00  0.20205237709E+03  0.20205237709E+03  0.00000000000E+00 0.  1.
         21   -1    0    0  501  503 -0.00000000000E+00 -0.00000000000E+00 -0.27682267334E+03  0.27682267334E+03  0.00000000000E+00 0.  1.
          6    2    1    2  501    0 -0.47545170719E+02 -0.26293770572E+02 -0.19787753063E+03  0.26814855005E+03  0.17261582239E+03 0.  0.
         24    2    3    3    0    0 -0.26673254474E+02  0.20589167447E+02 -0.28800469384E+02  0.91392250579E+02  0.79923088709E+02 0.  0.
         -6    2    1    2    0  502  0.47545170719E+02  0.26293770572E+02  0.12310723437E+03  0.21072650038E+03  0.16216769462E+03 0.  0.
        -24    2    5    5    0    0  0.56251349472E+02  0.39097398856E+02  0.21589088056E+02  0.10792691635E+03  0.80556251367E+02 0.  0.
          5    1    3    3  501    0 -0.20871916245E+02 -0.46882938018E+02 -0.16907706124E+03  0.17675629947E+03  0.47000000000E+01 0. -1.
        -11    1    4    4    0    0 -0.50587406264E+02  0.31346014773E+02 -0.13468624631E+02  0.61016900643E+02  0.00000000000E+00 0.  1.
         12    1    4    4    0    0  0.23914151790E+02 -0.10756847326E+02 -0.15331844752E+02  0.30375349936E+02  0.00000000000E+00 0. -1.
         -5    1    5    5    0  502 -0.87061787530E+01 -0.12803628285E+02  0.10151814632E+03  0.10279958403E+03  0.47000000000E+01 0.  1.
         13    1    6    6    0    0  0.10288541362E+02  0.47474669395E+02 -0.12420269206E+02  0.50139419669E+02  0.00000000000E+00 0. -1.
        -14    1    6    6    0    0  0.45962808110E+02 -0.83772705390E+01  0.34009357261E+02  0.57787496678E+02  0.00000000000E+00 0.  1.
</event>
<event>
12    1  0.8562501E-002  0.1728324E+03  0.7818608E-02  0.1175572E+00
         21   -1    0    0  503  502  0.00000000000E+00  0.00000000000E+00  0.13150226185E+04  0.13150226185E+04  0.00000000000E+00 0.  1.
         21   -1    0    0  501  503 -0.00000000000E+00 -0.00000000000E+00 -0.24416275209E+02  0.24416275209E+02  0.00000000000E+00 0.  1.
          6    2    1    2  501    0 -0.16396291367E+02 -0.12576935651E+02  0.44786114255E+03  0.47915376206E+03  0.16906125224E+03 0.  0.
         24    2    3    3    0    0 -0.64404790380E+02 -0.17111853116E+02  0.39025744680E+03  0.40388320196E+03  0.79874736309E+02 0.  0.
         -6    2    1    2    0  502  0.16396291367E+02  0.12576935651E+02  0.84274520072E+03  0.86028513162E+03  0.17159258924E+03 0.  0.
        -24    2    5    5    0    0 -0.20290902624E+02  0.65317724522E+02  0.60521068852E+03  0.61417077711E+03  0.79042014723E+02 0.  0.
          5    1    3    3  501    0  0.48008499014E+02  0.45349174649E+01  0.57603695750E+02  0.75270560102E+02  0.47000000000E+01 0. -1.
        -13    1    4    4    0    0  0.15836541868E+02 -0.21233167140E+01  0.13373351165E+03  0.13468465640E+03  0.00000000000E+00 0.  1.
         14    1    4    4    0    0 -0.80241332248E+02 -0.14988536402E+02  0.25652393515E+03  0.26919854556E+03  0.00000000000E+00 0. -1.
         -5    1    5    5    0  502  0.36687193990E+02 -0.52740788871E+02  0.23753451220E+03  0.24611435451E+03  0.47000000000E+01 0.  1.
         13    1    6    6    0    0 -0.22244159801E+02  0.82064916233E+01  0.41212507382E+03  0.41280652323E+03  0.00000000000E+00 0. -1.
        -14    1    6    6    0    0  0.19532571768E+01  0.57111232898E+02  0.19308561470E+03  0.20136425388E+03  0.00000000000E+00 0.  1.
</event>
<event>
12    1  0.8562501E-002  0.2980008E+03  0.7818608E-02  0.1086916E+00
         21   -1    0    0  503  502  0.00000000000E+00  0.00000000000E+00  0.10050696011E+04  0.10050696011E+04  0.00000000000E+00 0. -1.
         21   -1    0    0  501  503 -0.00000000000E+00 -0.00000000000E+00 -0.87272434403E+02  0.87272434403E+02  0.00000000000E+00 0.  1.
          6    2    1    2  501    0 -0.46419088680E+02 -0.23292845410E+03  0.49507304341E+03  0.57513786117E+03  0.17110185422E+03 0.  0.
         24    2    3    3    0    0 -0.80388859415E+01 -0.20741741577E+03  0.47553952963E+03  0.52486360136E+03  0.79103399065E+02 0.  0.
         -6    2    1    2    0  502  0.46419088680E+02  0.23292845410E+03  0.42272412331E+03  0.51720417436E+03  0.17998354654E+03 0.  0.
        -24    2    5    5    0    0  0.54111938067E+02  0.54638662944E+02  0.10337785298E+03  0.15134824652E+03  0.79409230623E+02 0.  0.
          5    1    3    3  501    0 -0.38380202739E+02 -0.25511038324E+02  0.19533513785E+02  0.50274259810E+02  0.47000000000E+01 0. -1.
        -11    1    4    4    0    0 -0.67577703641E+01 -0.95619968088E+02  0.12888001306E+03  0.16062037083E+03  0.00000000000E+00 0.  1.
         12    1    4    4    0    0 -0.12811155774E+01 -0.11179744768E+03  0.34665951656E+03  0.36424323054E+03  0.00000000000E+00 0. -1.
         -5    1    5    5    0  502 -0.76928493873E+01  0.17828979115E+03  0.31934627033E+03  0.36585592784E+03  0.47000000000E+01 0.  1.
         13    1    6    6    0    0  0.45046950447E+02  0.37457418443E+02  0.11474854073E+03  0.12883909942E+03  0.00000000000E+00 0. -1.
        -14    1    6    6    0    0  0.90649876203E+01  0.17181244501E+02 -0.11370687748E+02  0.22509147097E+02  0.00000000000E+00 0.  1.
</event>
<event>
12    1  0.8562501E-002  0.1732417E+03  0.7818608E-02  0.1175894E+00
         21   -1    0    0  501  502  0.00000000000E+00  0.00000000000E+00  0.74670327477E+03  0.74670327477E+03  0.00000000000E+00 0. -1.
         21   -1    0    0  502  503 -0.00000000000E+00 -0.00000000000E+00 -0.43812587377E+02  0.43812587377E+02  0.00000000000E+00 0. -1.
         -6    2    1    2    0  503 -0.48094415546E+01 -0.19165847599E+01  0.21502827738E+03  0.27280704283E+03  0.16780857701E+03 0.  0.
        -24    2    3    3    0    0  0.36685532899E+01  0.36930037670E+01  0.26485696430E+02  0.83932114075E+02  0.79473335766E+02 0.  0.
          6    2    1    2  501    0  0.48094415546E+01  0.19165847599E+01  0.48786241001E+03  0.51770881931E+03  0.17316433372E+03 0.  0.
         24    2    5    5    0    0  0.92089394344E+01  0.93334234972E+01  0.93992301379E+02  0.12371628442E+03  0.79367808041E+02 0.  0.
          5    1    5    5  501    0 -0.43994978798E+01 -0.74168387374E+01  0.39387010863E+03  0.39399253489E+03  0.47000000000E+01 0. -1.
        -11    1    6    6    0    0  0.20552405668E+02  0.36680932682E+02  0.81248324219E+02  0.91483235565E+02  0.00000000000E+00 0.  1.
         12    1    6    6    0    0 -0.11343466234E+02 -0.27347509184E+02  0.12743977160E+02  0.32233048857E+02  0.00000000000E+00 0. -1.
         -5    1    3    3    0  503 -0.84779948445E+01 -0.56095885269E+01  0.18854258095E+03  0.18887492876E+03  0.47000000000E+01 0.  1.
         11    1    4    4    0    0  0.12681402627E+02 -0.73956485135E+01  0.52357360583E+02  0.54376527994E+02  0.00000000000E+00 0. -1.
        -12    1    4    4    0    0 -0.90128493371E+01  0.11088652281E+02 -0.25871664153E+02  0.29555586081E+02  0.00000000000E+00 0.  1.
</event>
<event>
12    1  0.8562501E-002  0.2084437E+03  0.7818608E-02  0.1142822E+00
         21   -1    0    0  501  502  0.00000000000E+00  0.00000000000E+00  0.59286003737E+03  0.59286003737E+03  0.00000000000E+00 0. -1.
         21   -1    0    0  502  503 -0.00000000000E+00 -0.00000000000E+00 -0.13699578945E+03  0.13699578945E+03  0.00000000000E+00 0.  1.
         -6    2    1    2    0  503  0.11426413402E+03 -0.28138639182E+02 -0.20961174560E+02  0.20949493822E+03  0.17204849015E+03 0.  0.
        -24    2    3    3    0    0  0.11852399167E+03 -0.61280011436E+02 -0.53328677465E+02  0.16273766941E+03  0.76396497309E+02 0.  0.
          6    2    1    2  501    0 -0.11426413402E+03  0.28138639182E+02  0.47682542248E+03  0.52036088860E+03  0.17194445477E+03 0.  0.
         24    2    5    5    0    0 -0.82112895877E+02  0.63148213689E+02  0.20666309780E+03  0.24600866226E+03  0.84145120798E+02 0.  0.
          5    1    5    5  501    0 -0.32151238145E+02 -0.35009574507E+02  0.27016232468E+03  0.27435222634E+03  0.47000000000E+01 0. -1.
        -13    1    6    6    0    0 -0.51730137747E+02  0.10901507255E+02  0.33464597541E+02  0.62567797630E+02  0.00000000000E+00 0.  1.
         14    1    6    6    0    0 -0.30382758130E+02  0.52246706433E+02  0.17319850026E+03  0.18344086463E+03  0.00000000000E+00 0. -1.
         -5    1    3    3    0  503 -0.42598576521E+01  0.33141372254E+02  0.32367502905E+02  0.46757268809E+02  0.47000000000E+01 0.  1.
         13    1    4    4    0    0  0.15420381927E+01 -0.23246319189E+02  0.88306910401E+01  0.24914861867E+02  0.00000000000E+00 0. -1.
        -14    1    4    4    0    0  0.11698195348E+03 -0.38033692247E+02 -0.62159368505E+02  0.13782280754E+03  0.00000000000E+00 0.  1.
</event>
<event>
12    1  0.8562501E-002  0.1987659E+03  0.7818608E-02  0.1152686E+00
         21   -1    0    0  501  502  0.00000000000E+00  0.00000000000E+00  0.64676830266E+03  0.64676830266E+03  0.00000000000E+00 0. -1.
         21   -1    0    0  502  503 -0.00000000000E+00 -0.00000000000E+00 -0.10839665824E+03  0.10839665824E+03  0.00000000000E+00 0.  1.
         -6    2    1    2    0  503  0.54239504817E+02  0.60856282853E+02  0.96121496811E+01  0.19028048165E+03  0.17166495633E+03 0.  0.
        -24    2    3    3    0    0  0.25685193291E+01 -0.29044410908E+02  0.19554391949E+01  0.86200028657E+02  0.81095290254E+02 0.  0.
          6    2    1    2  501    0 -0.54239504817E+02 -0.60856282853E+02  0.52875949474E+03  0.56488447925E+03  0.18128006117E+03 0.  0.
         24    2    5    5    0    0 -0.31838549159E+01  0.22769433721E+02  0.35534007257E+03  0.36564511104E+03  0.83073437449E+02 0.  0.
          5    1    5    5  501    0 -0.51055649901E+02 -0.83625716574E+02  0.17341942216E+03  0.19923936821E+03  0.47000000000E+01 0. -1.
        -13    1    6    6    0    0  0.53545552856E+00 -0.17840561094E+02  0.16332041450E+02  0.24193137678E+02  0.00000000000E+00 0.  1.
         14    1    6    6    0    0 -0.37193104444E+01  0.40609994815E+02  0.33900803112E+03  0.34145197336E+03  0.00000000000E+00 0. -1.
         -5    1    3    3    0  503  0.51670985488E+02  0.89900693761E+02  0.76567104862E+01  0.10408045299E+03  0.47000000000E+01 0.  1.
         13    1    4    4    0    0 -0.26752835296E+02 -0.25757260369E+02  0.28264071753E+02  0.46669137662E+02  0.00000000000E+00 0. -1.
        -14    1    4    4    0    0  0.29321354625E+02 -0.32871505394E+01 -0.26308632558E+02  0.39530890994E+02  0.00000000000E+00 0.  1.
</event>
<event>
12    1  0.8562501E-002  0.1836111E+03  0.7818608E-02  0.1164483E+00
         21   -1    0    0  501  502  0.00000000000E+00  0.00000000000E+00  0.16484443903E+03  0.16484443903E+03  0.00000000000E+00 0.  1.
         21   -1    0    0  502  503 -0.00000000000E+00 -0.00000000000E+00 -0.36070399026E+03  0.36070399026E+03  0.00000000000E+00 0.  1.
         -6    2    1    2    0  503  0.26857943261E+02  0.55484531430E+02 -0.27109983582E+03  0.32711925865E+03  0.17237170898E+03 0.  0.
        -24    2    3    3    0    0 -0.46315147679E+02  0.51150510958E+02 -0.19498768672E+03  0.22134480895E+03  0.78815346209E+02 0.  0.
          6    2    1    2  501    0 -0.26857943261E+02 -0.55484531430E+02  0.75240284588E+02  0.19842917063E+03  0.17295419332E+03 0.  0.
         24    2    5    5    0    0  0.31823030025E+02 -0.47627915599E+02 -0.71808442525E+01  0.96839232558E+02  0.77750555329E+02 0.  0.
          5    1    5    5  501    0 -0.58680973286E+02 -0.78566158311E+01  0.82421128841E+02  0.10158993807E+03  0.47000000000E+01 0. -1.
        -13    1    6    6    0    0 -0.30096763388E-01  0.10638091177E+02  0.21899303631E+02  0.24346445105E+02  0.00000000000E+00 0.  1.
         14    1    6    6    0    0  0.31853126789E+02 -0.58266006776E+02 -0.29080147883E+02  0.72492787453E+02  0.00000000000E+00 0. -1.
         -5    1    3    3    0  503  0.73173090939E+02  0.43340204723E+01 -0.76112149093E+02  0.10577444971E+03  0.47000000000E+01 0.  1.
         11    1    4    4    0    0 -0.45201087422E+02  0.64971223305E+01 -0.15432987539E+03  0.16094428024E+03  0.00000000000E+00 0. -1.
        -12    1    4    4    0    0 -0.11140602569E+01  0.44653388627E+02 -0.40657811334E+02  0.60400528711E+02  0.00000000000E+00 0.  1.
</event>
<event>
12    1  0.8562501E-002  0.2541272E+03  0.7818608E-02  0.1111667E+00
         21   -1    0    0  501  502  0.00000000000E+00  0.00000000000E+00  0.91515549168E+03  0.91515549168E+03  0.00000000000E+00 0. -1.
         21   -1    0    0  502  503 -0.00000000000E+00 -0.00000000000E+00 -0.68906070137E+02  0.68906070137E+02  0.00000000000E+00 0. -1.
         -6    2    1    2    0  503  0.16646619234E+03  0.65348996416E+02  0.41812535735E+03  0.48619528262E+03  0.17197544552E+03 0.  0.
        -24    2    3    3    0    0  0.17464271611E+03  0.81981249285E+02  0.29410916092E+03  0.36071383239E+03  0.79957906529E+02 0.  0.
          6    2    1    2  501    0 -0.16646619234E+03 -0.65348996416E+02  0.42812406419E+03  0.49786627919E+03  0.18055230015E+03 0.  0.
         24    2    5    5    0    0 -0.72620450741E+02  0.36807488748E+02  0.16862262330E+03  0.20357720616E+03  0.79884721235E+02 0.  0.
          5    1    5    5  501    0 -0.93845741603E+02 -0.10215648516E+03  0.25950144089E+03  0.29428907303E+03  0.47000000000E+01 0. -1.
        -13    1    6    6    0    0  0.10266059121E+02 -0.88499634962E+01  0.47833442798E+01  0.14373385344E+02  0.00000000000E+00 0.  1.
         14    1    6    6    0    0 -0.82886509862E+02  0.45657452244E+02  0.16383927902E+03  0.18920382082E+03  0.00000000000E+00 0. -1.
         -5    1    3    3    0  503 -0.81765237644E+01 -0.16632252869E+02  0.12401619643E+03  0.12548145023E+03  0.47000000000E+01 0.  1.
         11    1    4    4    0    0  0.15446487094E+03  0.45302881271E+02  0.26378850284E+03  0.30902446770E+03  0.00000000000E+00 0. -1.
        -12    1    4    4    0    0  0.20177845170E+02  0.36678368014E+02  0.30320658080E+02  0.51689364692E+02  0.00000000000E+00 0.  1.
</event>
<event>
12    1  0.8562501E-002  0.2225011E+03  0.7818608E-02  0.1132131E+00
         21   -1    0    0  501  502  0.00000000000E+00  0.00000000000E+00  0.32234235399E+03  0.32234235399E+03  0.00000000000E+00 0. -1.
         21   -1    0    0  502  503 -0.00000000000E+00 -0.00000000000E+00 -0.24167184660E+03  0.24167184660E+03  0.00000000000E+00 0. -1.
         -6    2    1    2    0  503 -0.10436981660E+03  0.89091135439E+02 -0.13024806612E+03  0.25782028816E+03  0.17514694753E+03 0.  0.
        -24    2    3    3    0    0 -0.58763672881E+02  0.12061721028E+03 -0.12791886285E+03  0.20213071169E+03  0.80572380304E+02 0.  0.
          6    2    1    2  501    0  0.10436981660E+03 -0.89091135439E+02  0.21091857351E+03  0.30619391243E+03  0.17446426090E+03 0.  0.
         24    2    5    5    0    0  0.10507479701E+03 -0.34865852261E+02  0.67103632359E+02  0.15242231027E+03  0.80456961000E+02 0.  0.
          5    1    5    5  501    0 -0.70498040801E+00 -0.54225283178E+02  0.14381494115E+03  0.15377160216E+03  0.47000000000E+01 0. -1.
        -13    1    6    6    0    0  0.63456069828E+02  0.21153626618E+02  0.36745965732E+02  0.76317853184E+02  0.00000000000E+00 0.  1.
         14    1    6    6    0    0  0.41618727180E+02 -0.56019478878E+02  0.30357666628E+02  0.76104457090E+02  0.00000000000E+00 0. -1.
         -5    1    3    3    0  503 -0.45606143719E+02 -0.31526074845E+02 -0.23292032738E+01  0.55689576475E+02  0.47000000000E+01 0.  1.
         11    1    4    4    0    0 -0.73199615602E+02  0.78255692713E+02 -0.11100839993E+03  0.15428869700E+03  0.00000000000E+00 0. -1.
        -12    1    4    4    0    0  0.14435942722E+02  0.42361517571E+02 -0.16910462910E+02  0.47842014684E+02  0.00000000000E+00 0.  1.
</event>
<event>
12    1  0.8562501E-002  0.1792921E+03  0.7818608E-02  0.1168916E+00
         21   -1    0    0  501  502  0.00000000000E+00  0.00000000000E+00  0.13307061708E+04  0.13307061708E+04  0.00000000000E+00 0. -1.
         21   -1    0    0  502  503 -0.00000000000E+00 -0.00000000000E+00 -0.37478936892E+02  0.37478936892E+02  0.00000000000E+00 0. -1.
         -6    2    1    2    0  503  0.49316133048E+02 -0.14223352665E+01  0.23720512420E+03  0.29734144257E+03  0.17237041076E+03 0.  0.
        -24    2    3    3    0    0  0.67424714157E+01 -0.63291714867E+02  0.11375538205E+03  0.15276528398E+03  0.79659544010E+02 0.  0.
          6    2    1    2  501    0 -0.49316133048E+02  0.14223352665E+01  0.10560221097E+04  0.10708436651E+04  0.17055601696E+03 0.  0.
         24    2    5    5    0    0 -0.28629198451E+02  0.61324080397E+02  0.79685504688E+03  0.80399946940E+03  0.82806444340E+02 0.  0.
          5    1    5    5  501    0 -0.20686934598E+02 -0.59901745131E+02  0.25916706282E+03  0.26684419571E+03  0.47000000000E+01 0. -1.
        -11    1    6    6    0    0  0.12327566059E+02  0.20192294306E+01  0.18547180648E+02  0.22361665466E+02  0.00000000000E+00 0.  1.
         12    1    6    6    0    0 -0.40956764510E+02  0.59304850967E+02  0.77830786623E+03  0.78163780393E+03  0.00000000000E+00 0. -1.
         -5    1    3    3    0  503  0.42573661633E+02  0.61869379600E+02  0.12344974214E+03  0.14457615859E+03  0.47000000000E+01 0.  1.
         11    1    4    4    0    0  0.13845841732E+02 -0.23385725049E+02 -0.46877707396E+01  0.27578518159E+02  0.00000000000E+00 0. -1.
        -12    1    4    4    0    0 -0.71033703162E+01 -0.39905989818E+02  0.11844315279E+03  0.12518676582E+03  0.00000000000E+00 0.  1.
</event>
<event>
12    1  0.8562501E-002  0.2194541E+03  0.7818608E-02  0.1134523E+00
         21   -1    0    0  501  502  0.00000000000E+00  0.00000000000E+00  0.10465584860E+04  0.10465584860E+04  0.00000000000E+00 0.  1.
         21   -1    0    0  502  503 -0.00000000000E+00 -0.00000000000E+00 -0.40114219948E+03  0.40114219948E+03  0.00000000000E+00 0. -1.
         -6    2    1    2    0  503 -0.39201452408E+02  0.12854296299E+03 -0.35850297815E+03  0.42033854008E+03  0.17349367635E+03 0.  0.
        -24    2    3    3    0    0  0.36425903434E+02  0.10681696447E+03 -0.21963728868E+03  0.26065984497E+03  0.83464398759E+02 0.  0.
          6    2    1    2  501    0  0.39201452408E+02 -0.12854296299E+03  0.10039192647E+04  0.10273621454E+04  0.17192742839E+03 0.  0.
         24    2    5    5    0    0 -0.19807638410E+02 -0.66061785413E+02  0.26908827585E+03  0.28750767155E+03  0.74132711880E+02 0.  0.
          5    1    5    5  501    0  0.59009090818E+02 -0.62481177578E+02  0.73483098883E+03  0.73985447387E+03  0.47000000000E+01 0. -1.
        -11    1    6    6    0    0 -0.14462620516E+02 -0.54833165630E+02  0.26916263596E+03  0.27507156895E+03  0.00000000000E+00 0.  1.
         12    1    6    6    0    0 -0.53450178936E+01 -0.11228619783E+02 -0.74360115056E-01  0.12436102603E+02  0.00000000000E+00 0. -1.
         -5    1    3    3    0  503 -0.75627355842E+02  0.21725998524E+02 -0.13886568947E+03  0.15967869512E+03  0.47000000000E+01 0.  1.
         13    1    4    4    0    0  0.50400300080E+02  0.60295536986E+02 -0.18500258768E+03  0.20100173999E+03  0.00000000000E+00 0. -1.
        -14    1    4    4    0    0 -0.13974396646E+02  0.46521427481E+02 -0.34634700997E+02  0.59658104979E+02  0.00000000000E+00 0.  1.
</event>
<event>
12    1  0.8562501E-002  0.2142772E+03  0.7818608E-02  0.1138357E+00
         21   -1    0    0  503  502  0.00000000000E+00  0.00000000000E+00  0.10028008932E+03  0.10028008932E+03  0.00000000000E+00 0. -1.
         21   -1    0    0  501  503 -0.00000000000E+00 -0.00000000000E+00 -0.65056235734E+03  0.65056235734E+03  0.00000000000E+00 0. -1.
          6    2    1    2  501    0  0.74781282929E+02 -0.10409629476E+03 -0.47993093684E+03  0.52531185234E+03  0.17085244866E+03 0.  0.
         24    2    3    3    0    0  0.56206431016E+02  0.45921092133E+01 -0.16195963945E+03  0.18873195061E+03  0.78794504991E+02 0.  0.
         -6    2    1    2    0  502 -0.74781282929E+02  0.10409629476E+03 -0.70351331183E+02  0.22553059433E+03  0.17171622032E+03 0.  0.
        -24    2    5    5    0    0 -0.11841568232E+03  0.78303648728E+02 -0.65521850712E+02  0.17439708985E+03  0.77249574781E+02 0.  0.
          5    1    3    3  501    0  0.18574851913E+02 -0.10868840398E+03 -0.31797129739E+03  0.33657990173E+03  0.47000000000E+01 0. -1.
        -13    1    4    4    0    0 -0.13858392823E+02  0.37824861667E+01 -0.25333792539E+01  0.14586989534E+02  0.00000000000E+00 0.  1.
         14    1    4    4    0    0  0.70064823839E+02  0.80962304665E+00 -0.15942626019E+03  0.17414496108E+03  0.00000000000E+00 0. -1.
         -5    1    5    5    0  502  0.43634399386E+02  0.25792646036E+02 -0.48294804703E+01  0.51133504485E+02  0.47000000000E+01 0.  1.
         11    1    6    6    0    0 -0.10273132973E+03  0.82929165182E+02 -0.78429097612E+02  0.15356463101E+03  0.00000000000E+00 0. -1.
        -12    1    6    6    0    0 -0.15684352587E+02 -0.46255164547E+01  0.12907246900E+02  0.20832458834E+02  0.00000000000E+00 0.  1.
</event>
<event>
12    1  0.8562501E-002  0.2172796E+03  0.7818608E-02  0.1136163E+00
         21   -1    0    0  501  502  0.00000000000E+00  0.00000000000E+00  0.10562218239E+04  0.10562218239E+04  0.00000000000E+00 0.  1.
         21   -1    0    0  502  503 -0.00000000000E+00 -0.00000000000E+00 -0.52747182424E+02  0.52747182424E+02  0.00000000000E+00 0.  1.
         -6    2    1    2    0  503 -0.46317409793E+01  0.12995074605E+03  0.28294189950E+03  0.35674437809E+03  0.17407407442E+03 0.  0.
        -24    2    3    3    0    0  0.11604717652E+02  0.10608879023E+03  0.87489674942E+02  0.15911675450E+03  0.79209831812E+02 0.  0.
          6    2    1    2  501    0  0.46317409793E+01 -0.12995074605E+03  0.72053274201E+03  0.75222462827E+03  0.17252770687E+03 0.  0.
         24    2    5    5    0    0 -0.25593401902E+02 -0.10895527762E+03  0.30114996031E+03  0.33120399155E+03  0.80489196033E+02 0.  0.
          5    1    5    5  501    0  0.30225142882E+02 -0.20995468422E+02  0.41938278170E+03  0.42102063672E+03  0.47000000000E+01 0. -1.
        -13    1    6    6    0    0  0.41608912053E+01 -0.16679936414E+02  0.15417835758E+03  0.15513381075E+03  0.00000000000E+00 0.  1.
         14    1    6    6    0    0 -0.29754293108E+02 -0.92275341210E+02  0.14697160274E+03  0.17607018080E+03  0.00000000000E+00 0. -1.
         -5    1    3    3    0  503 -0.16236458631E+02  0.23861955818E+02  0.19545222456E+03  0.19762762360E+03  0.47000000000E+01 0.  1.
         13    1    4    4    0    0  0.89914105774E+01  0.22495428718E+01  0.46556678258E+02  0.47470308591E+02  0.00000000000E+00 0. -1.
        -14    1    4    4    0    0  0.26133070747E+01  0.10383924736E+03  0.40932996684E+02  0.11164644590E+03  0.00000000000E+00 0.  1.
</event>
<event>
12    1  0.8562501E-002  0.1819247E+03  0.7818608E-02  0.1168306E+00
         21   -1    0    0  503  502  0.00000000000E+00  0.00000000000E+00  0.24172278807E+03  0.24172278807E+03  0.00000000000E+00 0. -1.
         21   -1    0    0  501  503 -0.00000000000E+00 -0.00000000000E+00 -0.21418993077E+03  0.21418993077E+03  0.00000000000E+00 0. -1.
          6    2    1    2  501    0 -0.70383375501E+01  0.58936696340E+02 -0.12950978566E+03  0.21558175889E+03  0.16180122933E+03 0.  0.
         24    2    3    3    0    0  0.47552622850E+02  0.25613655535E+02 -0.11699828212E+03  0.15024244663E+03  0.77245604798E+02 0.  0.
         -6    2    1    2    0  502  0.70383375501E+01 -0.58936696340E+02  0.15704264296E+03  0.24033095994E+03  0.17196949214E+03 0.  0.
        -24    2    5    5    0    0 -0.46937058604E+02  0.22259163295E+01  0.70502894527E+02  0.12131236208E+03  0.86821592256E+02 0.  0.
          5    1    3    3  501    0 -0.54590960401E+02  0.33323040805E+02 -0.12511503546E+02  0.65339312262E+02  0.47000000000E+01 0. -1.
        -13    1    4    4    0    0 -0.20381385931E+02  0.11221407753E+01 -0.15284623818E+02  0.25500584653E+02  0.00000000000E+00 0.  1.
         14    1    4    4    0    0  0.67934008782E+02  0.24491514760E+02 -0.10171365830E+03  0.12474186198E+03  0.00000000000E+00 0. -1.
         -5    1    5    5    0  502  0.53975396154E+02 -0.61162612670E+02  0.86539748436E+02  0.11901859787E+03  0.47000000000E+01 0.  1.
         11    1    6    6    0    0 -0.15083451062E+02 -0.31324656602E+02  0.66294677554E+02  0.74858058211E+02  0.00000000000E+00 0. -1.
        -12    1    6    6    0    0 -0.31853607543E+02  0.33550572931E+02  0.42082169732E+01  0.46454303865E+02  0.00000000000E+00 0.  1.
</event>
<event>
12    1  0.8562501E-002  0.1751033E+03  0.7818608E-02  0.1172663E+00
         21   -1    0    0  503  502  0.00000000000E+00  0.00000000000E+00  0.21948364586E+03  0.21948364586E+03  0.00000000000E+00 0.  1.
         21   -1    0    0  501  503 -0.00000000000E+00 -0.00000000000E+00 -0.30397552936E+03  0.30397552936E+03  0.00000000000E+00 0.  1.
          6    2    1    2  501    0  0.35038517893E+01 -0.29079450155E+02 -0.23471240694E+03  0.29274856799E+03  0.17249324246E+03 0.  0.
         24    2    3    3    0    0 -0.31183320534E+01 -0.85908032947E+02 -0.14888223563E+03  0.18949039908E+03  0.79691763294E+02 0.  0.
         -6    2    1    2    0  502 -0.35038517893E+01  0.29079450155E+02  0.15022052343E+03  0.23071060722E+03  0.17263628595E+03 0.  0.
        -24    2    5    5    0    0 -0.29359951588E+01 -0.52559901850E+02  0.75407692052E+02  0.11987579321E+03  0.76894228836E+02 0.  0.
          5    1    3    3  501    0  0.66221838427E+01  0.56828582792E+02 -0.85830171308E+02  0.10325816891E+03  0.47000000000E+01 0. -1.
        -13    1    4    4    0    0 -0.33916090703E+02 -0.11242539918E+02 -0.55710257551E+02  0.66184051770E+02  0.00000000000E+00 0.  1.
         14    1    4    4    0    0  0.30797758649E+02 -0.74665493029E+02 -0.93171978077E+02  0.12330634731E+03  0.00000000000E+00 0. -1.
         -5    1    5    5    0  502 -0.56785663046E+00  0.81639352005E+02  0.74812831381E+02  0.11083481401E+03  0.47000000000E+01 0.  1.
         11    1    6    6    0    0  0.28843922899E+02 -0.22173415848E+02  0.48003500228E+01  0.36697079161E+02  0.00000000000E+00 0. -1.
        -12    1    6    6    0    0 -0.31779918058E+02 -0.30386486001E+02  0.70607342029E+02  0.83178714054E+02  0.00000000000E+00 0.  1.
</event>
<event>
12    1  0.8562501E-002  0.1789693E+03  0.7818608E-02  0.1169430E+00
         21   -1    0    0  503  502  0.00000000000E+00  0.00000000000E+00  0.35644651363E+03  0.35644651363E+03  0.00000000000E+00 0. -1.
         21   -1    0    0  501  503 -0.00000000000E+00 -0.00000000000E+00 -0.19281574632E+03  0.19281574632E+03  0.00000000000E+00 0.  1.
          6    2    1    2  501    0  0.46664972311E+02  0.19408969228E+02 -0.11983121390E+03  0.21538232057E+03  0.17168487546E+03 0.  0.
         24    2    3    3    0    0 -0.87367740631E+01 -0.32912088194E+02 -0.20492046419E+02  0.90093826498E+02  0.80854417544E+02 0.  0.
         -6    2    1    2    0  502 -0.46664972311E+02 -0.19408969228E+02  0.28346198121E+03  0.33387993938E+03  0.16902896616E+03 0.  0.
        -24    2    5    5    0    0 -0.76226428047E+02  0.34439306722E+02  0.19678278069E+03  0.22753667307E+03  0.77800646735E+02 0.  0.
          5    1    3    3  501    0  0.55401746374E+02  0.52321057422E+02 -0.99339167478E+02  0.12528849407E+03  0.47000000000E+01 0. -1.
        -13    1    4    4    0    0 -0.33279718018E+02 -0.27158308738E+02 -0.39630193638E+02  0.58443696089E+02  0.00000000000E+00 0.  1.
         14    1    4    4    0    0  0.24542943954E+02 -0.57537794567E+01  0.19138147218E+02  0.31650130409E+02  0.00000000000E+00 0. -1.
         -5    1    5    5    0  502  0.29561455736E+02 -0.53848275950E+02  0.86679200516E+02  0.10634326631E+03  0.47000000000E+01 0.  1.
         13    1    6    6    0    0 -0.97916185846E+01 -0.93790437892E+01  0.10577224243E+03  0.10663774906E+03  0.00000000000E+00 0. -1.
        -14    1    6    6    0    0 -0.66434809462E+02  0.43818350512E+02  0.91010538265E+02  0.12089892400E+03  0.00000000000E+00 0.  1.
</event>
<event>
12    1  0.8562501E-002  0.1883382E+03  0.7818608E-02  0.1160307E+00
         21   -1    0    0  503  502  0.00000000000E+00  0.00000000000E+00  0.76792780471E+02  0.76792780471E+02  0.00000000000E+00 0.  1.
         21   -1    0    0  501  503 -0.00000000000E+00 -0.00000000000E+00 -0.12988070728E+04  0.12988070728E+04  0.00000000000E+00 0.  1.
          6    2    1    2  501    0  0.64491902551E+02 -0.38208423517E+02 -0.11634583401E+04  0.11783687827E+04  0.17116830799E+03 0.  0.
         24    2    3    3    0    0  0.94964711461E+02 -0.53364375990E+02 -0.73118159717E+03  0.74472887736E+03  0.90158303538E+02 0.  0.
         -6    2    1    2    0  502 -0.64491902551E+02  0.38208423517E+02 -0.58555952250E+02  0.19723107064E+03  0.17277791108E+03 0.  0.
        -24    2    5    5    0    0 -0.49482549724E+02 -0.38132344211E+02 -0.52181974973E+01  0.10278426248E+03  0.81454138173E+02 0.  0.
          5    1    3    3  501    0 -0.30472808910E+02  0.15155952472E+02 -0.43227674296E+03  0.43363990531E+03  0.47000000000E+01 0. -1.
        -11    1    4    4    0    0  0.36581381503E+02 -0.50170832415E+02 -0.56808272424E+03  0.57146591454E+03  0.00000000000E+00 0.  1.
         12    1    4    4    0    0  0.58383329958E+02 -0.31935435751E+01 -0.16309887293E+03  0.17326296283E+03  0.00000000000E+00 0. -1.
         -5    1    5    5    0  502 -0.15009352827E+02  0.76340767729E+02 -0.53337754752E+02  0.94446808161E+02  0.47000000000E+01 0.  1.
         11    1    6    6    0    0 -0.18784693525E+02 -0.14859555677E+02 -0.42749249432E+02  0.49001728875E+02  0.00000000000E+00 0. -1.
        -12    1    6    6    0    0 -0.30697856199E+02 -0.23272788534E+02  0.37531051934E+02  0.53782533602E+02  0.00000000000E+00 0.  1.
</event>
<event>
12    1  0.8562501E-002  0.2203034E+03  0.7818608E-02  0.1136744E+00
         21   -1    0    0  503  502  0.00000000000E+00  0.00000000000E+00  0.73425839674E+03  0.73425839674E+03  0.00000000000E+00 0.  1.
         21   -1    0    0  501  503 -0.00000000000E+00 -0.00000000000E+00 -0.66685368259E+02  0.66685368259E+02  0.00000000000E+00 0. -1.
          6    2    1    2  501    0  0.62189254155E+02  0.94101022681E+02  0.23268437068E+03  0.32043031166E+03  0.18923811051E+03 0.  0.
         24    2    3    3    0    0 -0.38061440848E+01  0.12210053834E+03  0.17915208555E+03  0.23083588652E+03  0.79162545131E+02 0.  0.
         -6    2    1    2    0  502 -0.62189254155E+02 -0.94101022681E+02  0.43488865780E+03  0.48051345334E+03  0.17041868546E+03 0.  0.
        -24    2    5    5    0    0  0.22069864370E+02 -0.84409152656E+02  0.24778950096E+03  0.27503421864E+03  0.81438324357E+02 0.  0.
          5    1    3    3  501    0  0.65995398239E+02 -0.27999515655E+02  0.53532285125E+02  0.89594425141E+02  0.47000000000E+01 0. -1.
        -13    1    4    4    0    0  0.69592630757E+01  0.12154470687E+02  0.83625161694E+02  0.84789917847E+02  0.00000000000E+00 0.  1.
         14    1    4    4    0    0 -0.10765407160E+02  0.10994606765E+03  0.95526923857E+02  0.14604596867E+03  0.00000000000E+00 0. -1.
         -5    1    5    5    0  502 -0.84259118525E+02 -0.96918700251E+01  0.18709915684E+03  0.20547923470E+03  0.47000000000E+01 0.  1.
         11    1    6    6    0    0 -0.19392266843E+02 -0.13993389503E+02  0.14783268358E+02  0.28114408876E+02  0.00000000000E+00 0. -1.
        -12    1    6    6    0    0  0.41462131213E+02 -0.70415763153E+02  0.23300623260E+03  0.24691980977E+03  0.00000000000E+00 0.  1.
</event>
<event>
12    1  0.8562501E-002  0.2218635E+03  0.7818608E-02  0.1132936E+00
         21   -1    0    0  501  502  0.00000000000E+00  0.00000000000E+00  0.16872675939E+04  0.16872675939E+04  0.00000000000E+00 0. -1.
         21   -1    0    0  502  503 -0.00000000000E+00 -0.00000000000E+00 -0.39531794088E+02  0.39531794088E+02  0.00000000000E+00 0.  1.
         -6    2    1    2    0  503 -0.40364148078E+01 -0.13742860046E+03  0.37220891741E+03  0.43212095055E+03  0.17113189309E+03 0.  0.
        -24    2    3    3    0    0  0.59383595787E+02 -0.57628206653E+02  0.16298066947E+03  0.19933617799E+03  0.79528558302E+02 0.  0.
          6    2    1    2  501    0  0.40364148078E+01  0.13742860046E+03  0.12755268824E+04  0.12946784375E+04  0.17412787194E+03 0.  0.
         24    2    5    5    0    0 -0.24671100594E+02  0.10130114020E+01  0.25037798035E+03  0.26008397788E+03  0.65915499775E+02 0.  0.
          5    1    5    5  501    0  0.28707515402E+02  0.13641558906E+03  0.10251489021E+04  0.10345944596E+04  0.47000000000E+01 0. -1.
        -13    1    6    6    0    0  0.90672148788E+01  0.26494519483E+02  0.10680826544E+03  0.11041820283E+03  0.00000000000E+00 0.  1.
         14    1    6    6    0    0 -0.33738315473E+02 -0.25481508081E+02  0.14356971490E+03  0.14966577505E+03  0.00000000000E+00 0. -1.
         -5    1    3    3    0  503 -0.63420010595E+02 -0.79800393805E+02  0.20922824794E+03  0.23278477255E+03  0.47000000000E+01 0.  1.
         11    1    4    4    0    0  0.22276604969E+02 -0.71574316507E+02  0.10139890093E+03  0.12609864005E+03  0.00000000000E+00 0. -1.
        -12    1    4    4    0    0  0.37106990819E+02  0.13946109854E+02  0.61581768542E+02  0.73237537947E+02  0.00000000000E+00 0.  1.
</event>
<event>
12    1  0.8562501E-002  0.1778341E+03  0.7818608E-02  0.1170107E+00
         21   -1    0    0  501  502  0.00000000000E+00  0.00000000000E+00  0.29584019928E+03  0.29584019928E+03  0.00000000000E+00 0.  1.
         21   -1    0    0  502  503 -0.00000000000E+00 -0.00000000000E+00 -0.33511812861E+03  0.33511812861E+03  0.00000000000E+00 0.  1.
         -6    2    1    2    0  503 -0.75758556094E+01  0.43408684298E+02 -0.28026200368E+03  0.33192131696E+03  0.17228831211E+03 0.  0.
        -24    2    3    3    0    0  0.51465819677E+02  0.66919754361E+01 -0.95705821125E+02  0.13464711528E+03  0.79225805937E+02 0.  0.
          6    2    1    2  501    0  0.75758556094E+01 -0.43408684298E+02  0.24098407434E+03  0.29903701093E+03  0.17148790732E+03 0.  0.
         24    2    5    5    0    0 -0.40219388117E+02 -0.38185936723E+02  0.55698416654E+02  0.10755717554E+03  0.73419802836E+02 0.  0.
          5    1    5    5  501    0  0.47795243726E+02 -0.52227475750E+01  0.18528565769E+03  0.19147983539E+03  0.47000000000E+01 0. -1.
        -11    1    6    6    0    0 -0.29836867557E+02  0.72235489533E+01  0.52562238670E+02  0.60870413659E+02  0.00000000000E+00 0.  1.
         12    1    6    6    0    0 -0.10382520560E+02 -0.45409485676E+02  0.31361779847E+01  0.46686761881E+02  0.00000000000E+00 0. -1.
         -5    1    3    3    0  503 -0.59041675286E+02  0.36716708862E+02 -0.18455618255E+03  0.19727420168E+03  0.47000000000E+01 0.  1.
         11    1    4    4    0    0 -0.40314467287E+01 -0.28227584418E+02 -0.22131222144E+02  0.36094876068E+02  0.00000000000E+00 0. -1.
        -12    1    4    4    0    0  0.55497266405E+02  0.34919559854E+02 -0.73574598981E+02  0.98552239214E+02  0.00000000000E+00 0.  1.
</event>
<event>
12    1  0.8562501E-002  0.2151854E+03  0.7818608E-02  0.1137565E+00
         21   -1    0    0  501  502  0.00000000000E+00  0.00000000000E+00  0.53264612486E+03  0.53264612486E+03  0.00000000000E+00 0. -1.
         21   -1    0    0  502  503 -0.00000000000E+00 -0.00000000000E+00 -0.10377436379E+03  0.10377436379E+03  0.00000000000E+00 0. -1.
         -6    2    1    2    0  503  0.53256316335E+01 -0.12879291038E+03  0.34286009243E+03  0.40468187995E+03  0.17204186950E+03 0.  0.
        -24    2    3    3    0    0  0.58044976838E+02 -0.44822843159E+02  0.12410523503E+03  0.16446098330E+03  0.79164380011E+02 0.  0.
          6    2    1    2  501    0 -0.53256316335E+01  0.12879291038E+03  0.86011668634E+02  0.23173860870E+03  0.17230438040E+03 0.  0.
         24    2    5    5    0    0 -0.62455762910E+02  0.47796529573E+02  0.25985076368E+02  0.11576642504E+03  0.80878986229E+02 0.  0.
          5    1    5    5  501    0  0.57130131276E+02  0.80996380803E+02  0.60026592266E+02  0.11597218366E+03  0.47000000000E+01 0. -1.
        -11    1    6    6    0    0 -0.50469804735E+01 -0.25362250401E+01  0.38052770642E+02  0.38469699802E+02  0.00000000000E+00 0.  1.
         12    1    6    6    0    0 -0.57408782436E+02  0.50332754613E+02 -0.12067694274E+02  0.77296725240E+02  0.00000000000E+00 0. -1.
         -5    1    3    3    0  503 -0.52719345205E+02 -0.83970067217E+02  0.21875485741E+03  0.24022089665E+03  0.47000000000E+01 0.  1.
         13    1    4    4    0    0  0.21125364188E+02  0.13986672289E+02  0.75671372795E+02  0.79800154602E+02  0.00000000000E+00 0. -1.
        -14    1    4    4    0    0  0.36919612650E+02 -0.58809515448E+02  0.48433862232E+02  0.84660828700E+02  0.00000000000E+00 0.  1.
</event>
<event>
12    1  0.8562501E-002  0.2144592E+03  0.7818608E-02  0.1138426E+00
         21   -1    0    0  503  502  0.00000000000E+00  0.00000000000E+00  0.48804624184E+02  0.48804624184E+02  0.00000000000E+00 0. -1.
         21   -1    0    0  501  503 -0.00000000000E+00 -0.00000000000E+00 -0.95113057971E+03  0.95113057971E+03  0.00000000000E+00 0. -1.
          6    2    1    2  501    0  0.10904354303E+03  0.64173914619E+02 -0.38709626684E+03  0.44253389978E+03  0.17315873373E+03 0.  0.
         24    2    3    3    0    0  0.53584470900E+02  0.29540649458E+02 -0.76928665746E+02  0.12551465352E+03  0.78051029091E+02 0.  0.
         -6    2    1    2    0  502 -0.10904354303E+03 -0.64173914619E+02 -0.51522968868E+03  0.55740130411E+03  0.17095553844E+03 0.  0.
        -24    2    5    5    0    0 -0.78166094292E+02 -0.20017770857E+02 -0.14851779309E+03  0.18672235104E+03  0.79353966933E+02 0.  0.
          5    1    3    3  501    0  0.55459072127E+02  0.34633265161E+02 -0.31016760109E+03  0.31701924627E+03  0.47000000000E+01 0. -1.
        -11    1    4    4    0    0  0.95519075759E+01 -0.24685840549E+02 -0.35564481474E+02  0.44333531378E+02  0.00000000000E+00 0.  1.
         12    1    4    4    0    0  0.44032563325E+02  0.54226490007E+02 -0.41364184272E+02  0.81181122140E+02  0.00000000000E+00 0. -1.
         -5    1    5    5    0  502 -0.30877448735E+02 -0.44156143762E+02 -0.36671189560E+03  0.37067895306E+03  0.47000000000E+01 0.  1.
         13    1    6    6    0    0 -0.58210253818E+02 -0.43598964043E+02 -0.13427360961E+03  0.15270463501E+03  0.00000000000E+00 0. -1.
        -14    1    6    6    0    0 -0.19955840474E+02  0.23581193187E+02 -0.14244183475E+02  0.34017716031E+02  0.00000000000E+00 0.  1.
</event>
<event>
12    1  0.8562501E-002  0.1836875E+03  0.7818608E-02  0.1166351E+00
         21   -1    0    0  503  502  0.00000000000E+00  0.00000000000E+00  0.23502501356E+04  0.23502501356E+04  0.00000000000E+00 0. -1.
         21   -1    0    0  501  503 -0.00000000000E+00 -0.00000000000E+00 -0.47053304966E+02  0.47053304966E+02  0.00000000000E+00 0. -1.
          6    2    1    2  501    0  0.14770930933E+02  0.29813843251E+02  0.15042759870E+03  0.23742274922E+03  0.18064897936E+03 0.  0.
         24    2    3    3    0    0  0.74119478163E+02  0.21502554209E+02  0.13525542992E+03  0.17542587600E+03  0.80772209123E+02 0.  0.
         -6    2    1    2    0  502 -0.14770930933E+02 -0.29813843251E+02  0.21527692319E+04  0.21598806913E+04  0.17193658496E+03 0.  0.
        -24    2    5    5    0    0 -0.18834803647E+02 -0.85382591057E+02  0.13784086814E+04  0.13835040090E+04  0.80174266802E+02 0.  0.
          5    1    3    3  501    0 -0.59348547229E+02  0.83112890419E+01  0.15172168786E+02  0.61996873223E+02  0.47000000000E+01 0. -1.
        -11    1    4    4    0    0  0.95088938529E+01  0.21618586147E+02  0.98080296244E+02  0.10088372932E+03  0.00000000000E+00 0.  1.
         12    1    4    4    0    0  0.64610584310E+02 -0.11603193772E+00  0.37175133672E+02  0.74542146681E+02  0.00000000000E+00 0. -1.
         -5    1    5    5    0  502  0.40638727141E+01  0.55568747806E+02  0.77436055049E+03  0.77637668238E+03  0.47000000000E+01 0.  1.
         13    1    6    6    0    0 -0.85065480654E+01  0.65015330141E+01  0.52354083219E+03  0.52365029768E+03  0.00000000000E+00 0. -1.
        -14    1    6    6    0    0 -0.10328255582E+02 -0.91884124071E+02  0.85486784925E+03  0.85985371128E+03  0.00000000000E+00 0.  1.
</event>
<event>
12    1  0.8562501E-002  0.1841225E+03  0.7818608E-02  0.1164060E+00
         21   -1    0    0  503  502  0.00000000000E+00  0.00000000000E+00  0.37790837376E+02  0.37790837376E+02  0.00000000000E+00 0. -1.
         21   -1    0    0  501  503 -0.00000000000E+00 -0.00000000000E+00 -0.95645910520E+03  0.95645910520E+03  0.00000000000E+00 0. -1.
          6    2    1    2  501    0  0.60288690568E+02 -0.27485075768E+02 -0.58812196021E+03  0.61626986399E+03  0.17178751287E+03 0.  0.
         24    2    3    3    0    0  0.72214789567E+02  0.31529871585E+02 -0.27145311619E+03  0.29389393030E+03  0.80484404346E+02 0.  0.
         -6    2    1    2    0  502 -0.60288690568E+02  0.27485075768E+02 -0.33054630761E+03  0.37798007859E+03  0.17093250929E+03 0.  0.
        -24    2    5    5    0    0 -0.30548776965E+02  0.82781764705E+02 -0.23590016381E+03  0.26430436084E+03  0.80136505612E+02 0.  0.
          5    1    3    3  501    0 -0.11926098999E+02 -0.59014947353E+02 -0.31666884402E+03  0.32237593369E+03  0.47000000000E+01 0. -1.
        -13    1    4    4    0    0  0.82326876681E+02  0.32805875845E+02 -0.26925864179E+03  0.28346808690E+03  0.00000000000E+00 0.  1.
         14    1    4    4    0    0 -0.10112087114E+02 -0.12760042598E+01 -0.21944744028E+01  0.10425843398E+02  0.00000000000E+00 0. -1.
         -5    1    5    5    0  502 -0.29739913603E+02 -0.55296688937E+02 -0.94646143804E+02  0.11367571775E+03  0.47000000000E+01 0.  1.
         13    1    6    6    0    0 -0.48506660881E+01  0.28769056193E+02 -0.10348158942E+02  0.30955967909E+02  0.00000000000E+00 0. -1.
        -14    1    6    6    0    0 -0.25698110877E+02  0.54012708513E+02 -0.22555200487E+03  0.23334839293E+03  0.00000000000E+00 0.  1.
</event>
<event>
12    1  0.8562501E-002  0.2311843E+03  0.7818608E-02  0.1126074E+00
         21   -1    0    0  501  502  0.00000000000E+00  0.00000000000E+00  0.10108300718E+03  0.10108300718E+03  0.00000000000E+00 0.  1.
         21   -1    0    0  502  503 -0.00000000000E+00 -0.00000000000E+00 -0.57473219293E+03  0.57473219293E+03  0.00000000000E+00 0. -1.
         -6    2    1    2    0  503 -0.38066389603E+02 -0.14706245052E+03 -0.33665249113E+03  0.40838841448E+03  0.17426928281E+03 0.  0.
        -24    2    3    3    0    0 -0.77208063550E+01 -0.15586063953E+03 -0.33280380068E+03  0.37621443477E+03  0.80167208832E+02 0.  0.
          6    2    1    2  501    0  0.38066389603E+02  0.14706245052E+03 -0.13699669462E+03  0.26742678563E+03  0.17225729873E+03 0.  0.
         24    2    5    5    0    0 -0.12318567580E+02  0.13140429438E+03 -0.46425050837E+02  0.16250236320E+03  0.82661339293E+02 0.  0.
          5    1    5    5  501    0  0.50384957183E+02  0.15658156141E+02 -0.90571643786E+02  0.10492442243E+03  0.47000000000E+01 0. -1.
        -13    1    6    6    0    0  0.94890383223E+01 -0.43815650873E+01 -0.19848348651E+02  0.22432050844E+02  0.00000000000E+00 0.  1.
         14    1    6    6    0    0 -0.21807605902E+02  0.13578585946E+03 -0.26576702186E+02  0.14007031236E+03  0.00000000000E+00 0. -1.
         -5    1    3    3    0  503 -0.30345583248E+02  0.87981890171E+01 -0.38486904446E+01  0.32173979716E+02  0.47000000000E+01 0.  1.
         11    1    4    4    0    0  0.20561516173E+02 -0.38436817590E+02 -0.15685058677E+03  0.16279518256E+03  0.00000000000E+00 0. -1.
        -12    1    4    4    0    0 -0.28282322528E+02 -0.11742382194E+03 -0.17595321391E+03  0.21341925221E+03  0.00000000000E+00 0.  1.
</event>
<event>
12    1  0.8562501E-002  0.2074604E+03  0.7818608E-02  0.1144655E+00
         21   -1    0    0  503  502  0.00000000000E+00  0.00000000000E+00  0.35465683744E+03  0.35465683744E+03  0.00000000000E+00 0.  1.
         21   -1    0    0  501  503 -0.00000000000E+00 -0.00000000000E+00 -0.12938481575E+03  0.12938481575E+03  0.00000000000E+00 0. -1.
          6    2    1    2  501    0 -0.10556418462E+03  0.16547599538E+02  0.40585687219E+02  0.20628478859E+03  0.17172243846E+03 0.  0.
         24    2    3    3    0    0 -0.69388405585E+02  0.49334708825E+01  0.93293180542E+02  0.14114075720E+03  0.79862418209E+02 0.  0.
         -6    2    1    2    0  502  0.10556418462E+03 -0.16547599538E+02  0.18468633447E+03  0.27775686461E+03  0.17782635792E+03 0.  0.
        -24    2    5    5    0    0  0.19767117453E+02  0.45839943389E+02  0.56123059607E+02  0.11101170609E+03  0.81742043809E+02 0.  0.
          5    1    3    3  501    0 -0.36175779035E+02  0.11614128656E+02 -0.52707493323E+02  0.65144031389E+02  0.47000000000E+01 0. -1.
        -13    1    4    4    0    0 -0.85835836569E+02  0.86150621546E+01  0.64261025940E+02  0.10757085846E+03  0.00000000000E+00 0.  1.
         14    1    4    4    0    0  0.16447430984E+02 -0.36815912721E+01  0.29032154602E+02  0.33569898736E+02  0.00000000000E+00 0. -1.
         -5    1    5    5    0  502  0.85797067167E+02 -0.62387542928E+02  0.12856327487E+03  0.16674515852E+03  0.47000000000E+01 0.  1.
         13    1    6    6    0    0  0.21741434969E+02  0.15101037353E+02 -0.17140664525E+02  0.31536228436E+02  0.00000000000E+00 0. -1.
        -14    1    6    6    0    0 -0.19743175155E+01  0.30738906037E+02  0.73263724132E+02  0.79475477649E+02  0.00000000000E+00 0.  1.
</event>
<event>
12    1  0.8562501E-002  0.1862387E+03  0.7818608E-02  0.1162247E+00
         21   -1    0    0  501  502  0.00000000000E+00  0.00000000000E+00  0.23914382724E+02  0.23914382724E+02  0.00000000000E+00 0.  1.
         21   -1    0    0  502  503 -0.00000000000E+00 -0.00000000000E+00 -0.15784979917E+04  0.15784979917E+04  0.00000000000E+00 0. -1.
         -6    2    1    2    0  503  0.70182548194E+02 -0.76081793919E+01 -0.10185872508E+04  0.10354732531E+04  0.17234092957E+03 0.  0.
        -24    2    3    3    0    0  0.34439458957E+02  0.59818573318E+02 -0.69396397861E+03  0.70196718984E+03  0.80047448142E+02 0.  0.
          6    2    1    2  501    0 -0.70182548194E+02  0.76081793919E+01 -0.53599635820E+03  0.56693912131E+03  0.17071730084E+03 0.  0.
         24    2    5    5    0    0  0.13198034359E+01  0.25546618390E+01 -0.43702189773E+03  0.44464374874E+03  0.81924697228E+02 0.  0.
          5    1    5    5  501    0 -0.71502351630E+02  0.50535175529E+01 -0.98974460468E+02  0.12229537257E+03  0.47000000000E+01 0. -1.
        -11    1    6    6    0    0  0.16249514721E+02  0.37097964761E+02 -0.15856955687E+03  0.16366004425E+03  0.00000000000E+00 0.  1.
         12    1    6    6    0    0 -0.14929711286E+02 -0.34543302922E+02 -0.27845234086E+03  0.28098370449E+03  0.00000000000E+00 0. -1.
         -5    1    3    3    0  503  0.35743089237E+02 -0.67426752710E+02 -0.32462327218E+03  0.33350606329E+03  0.47000000000E+01 0.  1.
         11    1    4    4    0    0  0.34005530315E+02  0.40034909307E+02 -0.66390262956E+03  0.66597738069E+03  0.00000000000E+00 0. -1.
        -12    1    4    4    0    0  0.43392864232E+00  0.19783664011E+02 -0.30061349052E+02  0.35989809149E+02  0.00000000000E+00 0.  1.
</event>
<event>
12    1  0.8562501E-002  0.2160260E+03  0.7818608E-02  0.1137107E+00
         21   -1    0    0  503  502  0.00000000000E+00  0.00000000000E+00  0.10348655108E+03  0.10348655108E+03  0.00000000000E+00 0. -1.
         21   -1    0    0  501  503 -0.00000000000E+00 -0.00000000000E+00 -0.57787152425E+03  0.57787152425E+03  0.00000000000E+00 0.  1.
          6    2    1    2  501    0 -0.69759232967E+02 -0.10533246194E+03 -0.75483853823E+02  0.22771799461E+03  0.17377109874E+03 0.  0.
         24    2    3    3    0    0 -0.49284856946E+02 -0.71881967245E+02 -0.11965754742E+03  0.16845973885E+03  0.80403610730E+02 0.  0.
         -6    2    1    2    0  502  0.69759232967E+02  0.10533246194E+03 -0.39890111936E+03  0.45364008072E+03  0.17523110937E+03 0.  0.
        -24    2    5    5    0    0  0.94975704771E+02  0.43131154339E+02 -0.16721989072E+03  0.21238678060E+03  0.79151574524E+02 0.  0.
          5    1    3    3  501    0 -0.20474376021E+02 -0.33450494698E+02  0.44173693602E+02  0.59258255758E+02  0.47000000000E+01 0. -1.
        -11    1    4    4    0    0  0.12931153976E+02 -0.17418867854E+02  0.15333114015E+01  0.21748166459E+02  0.00000000000E+00 0.  1.
         12    1    4    4    0    0 -0.62216010922E+02 -0.54463099391E+02 -0.12119085883E+03  0.14671157239E+03  0.00000000000E+00 0. -1.
         -5    1    5    5    0  502 -0.25216471804E+02  0.62201307603E+02 -0.23168122863E+03  0.24125330012E+03  0.47000000000E+01 0.  1.
         13    1    6    6    0    0  0.25792824090E+02  0.29640205408E+02 -0.10691212001E+02  0.40719940634E+02  0.00000000000E+00 0. -1.
        -14    1    6    6    0    0  0.69182880681E+02  0.13490948932E+02 -0.15652867872E+03  0.17166683997E+03  0.00000000000E+00 0.  1.
</event>
<event>
12    1  0.8562501E-002  0.1942735E+03  0.7818608E-02  0.1155054E+00
         21   -1    0    0  503  502  0.00000000000E+00  0.00000000000E+00  0.24705787198E+02  0.24705787198E+02  0.00000000000E+00 0.  1.
         21   -1    0    0  501  503 -0.00000000000E+00 -0.00000000000E+00 -0.15243102573E+04  0.15243102573E+04  0.00000000000E+00 0.  1.
          6    2    1    2  501    0  0.76503352908E+02  0.45516053526E+02 -0.81785809420E+03  0.84061527771E+03  0.17267804936E+03 0.  0.
         24    2    3    3    0    0  0.45158163279E+01  0.56947369372E+02 -0.65274670780E+03  0.66006960392E+03  0.79688280184E+02 0.  0.
         -6    2    1    2    0  502 -0.76503352908E+02 -0.45516053526E+02 -0.68174637587E+03  0.70840076675E+03  0.17067235042E+03 0.  0.
        -24    2    5    5    0    0  0.19461731787E+02 -0.18214040640E+02 -0.24121903194E+03  0.25669164781E+03  0.83626971763E+02 0.  0.
          5    1    3    3  501    0  0.71987536580E+02 -0.11431315846E+02 -0.16511138640E+03  0.18054567379E+03  0.47000000000E+01 0. -1.
        -11    1    4    4    0    0  0.23911371758E+02 -0.79087015105E+01 -0.28763010675E+03  0.28873063496E+03  0.00000000000E+00 0.  1.
         12    1    4    4    0    0 -0.19395555430E+02  0.64856070882E+02 -0.36511660105E+03  0.37133896896E+03  0.00000000000E+00 0. -1.
         -5    1    5    5    0  502 -0.95965084695E+02 -0.27302012886E+02 -0.44052734393E+03  0.45170911894E+03  0.47000000000E+01 0.  1.
         11    1    6    6    0    0  0.26511035097E+02  0.29406453811E+02 -0.10500059197E+03  0.11221719485E+03  0.00000000000E+00 0. -1.
        -12    1    6    6    0    0 -0.70493033099E+01 -0.47620494451E+02 -0.13621843997E+03  0.14447445296E+03  0.00000000000E+00 0.  1.
</event>
<event>
12    1  0.8562501E-002  0.1833082E+03  0.7818608E-02  0.1164803E+00
         21   -1    0    0  503  502  0.00000000000E+00  0.00000000000E+00  0.49495360431E+03  0.49495360431E+03  0.00000000000E+00 0.  1.
         21   -1    0    0  501  503 -0.00000000000E+00 -0.00000000000E+00 -0.90395263201E+02  0.90395263201E+02  0.00000000000E+00 0.  1.
          6    2    1    2  501    0  0.22360911440E+02 -0.60008539212E+02  0.55699781783E+02  0.19158380956E+03  0.17175813011E+03 0.  0.
         24    2    3    3    0    0  0.66542768929E+02 -0.72668386422E+02  0.10871836472E+02  0.12721034497E+03  0.79722271407E+02 0.  0.
         -6    2    1    2    0  502 -0.22360911440E+02  0.60008539212E+02  0.34885855933E+03  0.39376505795E+03  0.17101927174E+03 0.  0.
        -24    2    5    5    0    0  0.20634726247E+02  0.62523683120E+02  0.10851594298E+03  0.14954873162E+03  0.79082933505E+02 0.  0.
          5    1    3    3  501    0 -0.44181857489E+02  0.12659847210E+02  0.44827945311E+02  0.64373464591E+02  0.47000000000E+01 0. -1.
        -11    1    4    4    0    0  0.40054564474E+02 -0.56088929880E+00  0.27529731874E+02  0.48606263681E+02  0.00000000000E+00 0.  1.
         12    1    4    4    0    0  0.26488204455E+02 -0.72107497123E+02 -0.16657895403E+02  0.78604081293E+02  0.00000000000E+00 0. -1.
         -5    1    5    5    0  502 -0.42995637687E+02 -0.25151439071E+01  0.24034261635E+03  0.24421632632E+03  0.47000000000E+01 0.  1.
         13    1    6    6    0    0  0.36397066475E+02  0.39832761134E+02  0.10931757981E+03  0.12190868945E+03  0.00000000000E+00 0. -1.
        -14    1    6    6    0    0 -0.15762340228E+02  0.22690921986E+02 -0.80163682837E+00  0.27640042179E+02  0.00000000000E+00 0.  1.
</event>
<event>
12    1  0.8562501E-002  0.1733639E+03  0.7818608E-02  0.1174478E+00
         21   -1    0    0  503  502  0.00000000000E+00  0.00000000000E+00  0.16936632671E+04  0.16936632671E+04  0.00000000000E+00 0.  1.
         21   -1    0    0  501  503 -0.00000000000E+00 -0.00000000000E+00 -0.19694071232E+02  0.19694071232E+02  0.00000000000E+00 0.  1.
          6    2    1    2  501    0 -0.12855155695E+02 -0.94279357439E+01  0.56573821494E+03  0.59170496740E+03  0.17262937061E+03 0.  0.
         24    2    3    3    0    0 -0.74832115482E+02  0.50701146454E+01  0.37941876371E+03  0.39475734767E+03  0.79051968433E+02 0.  0.
         -6    2    1    2    0  502  0.12855155695E+02  0.94279357439E+01  0.11082309809E+04  0.11216523709E+04  0.17226140930E+03 0.  0.
        -24    2    5    5    0    0  0.16779259806E+02 -0.37612976116E+02  0.36426920675E+03  0.37617973065E+03  0.84397009608E+02 0.  0.
          5    1    3    3  501    0  0.61976959787E+02 -0.14498050389E+02  0.18631945123E+03  0.19694761972E+03  0.47000000000E+01 0. -1.
        -11    1    4    4    0    0 -0.24664461522E+02 -0.22777225424E+02  0.49028112162E+02  0.59421321446E+02  0.00000000000E+00 0.  1.
         12    1    4    4    0    0 -0.50167653960E+02  0.27847340069E+02  0.33039065155E+03  0.33533602622E+03  0.00000000000E+00 0. -1.
         -5    1    5    5    0  502 -0.39241041119E+01  0.47040911860E+02  0.74396177415E+03  0.74547264026E+03  0.47000000000E+01 0.  1.
         13    1    6    6    0    0  0.33598433034E+02 -0.31847506962E+02  0.35088382673E+03  0.35392453752E+03  0.00000000000E+00 0. -1.
        -14    1    6    6    0    0 -0.16819173227E+02 -0.57654691540E+01  0.13385380024E+02  0.22255193124E+02  0.00000000000E+00 0.  1.
</event>
<event>
12    1  0.8562501E-002  0.2574894E+03  0.7818608E-02  0.1108677E+00
         21   -1    0    0  503  502  0.00000000000E+00  0.00000000000E+00  0.17363486330E+03  0.17363486330E+03  0.00000000000E+00 0. -1.
         21   -1    0    0  501  503 -0.00000000000E+00 -0.00000000000E+00 -0.40450998851E+03  0.40450998851E+03  0.00000000000E+00 0.  1.
          6    2    1    2  501    0  0.18490623425E+03 -0.49145168729E+02 -0.46796418272E+02  0.26170724661E+03  0.17232299641E+03 0.  0.
         24    2    3    3    0    0  0.87405214175E+02  0.43472385458E+01 -0.82679752163E+02  0.14475601659E+03  0.80372837287E+02 0.  0.
         -6    2    1    2    0  502 -0.18490623425E+03  0.49145168729E+02 -0.18407870693E+03  0.31643760519E+03  0.17216917424E+03 0.  0.
        -24    2    5    5    0    0 -0.41768828891E+02  0.36744913798E+02 -0.18606534130E+02  0.97245422147E+02  0.77560590891E+02 0.  0.
          5    1    3    3  501    0  0.97501020078E+02 -0.53492407275E+02  0.35883333891E+02  0.11695123002E+03  0.47000000000E+01 0. -1.
        -11    1    4    4    0    0  0.89821227183E+02 -0.19223852141E+02 -0.50587134073E+02  0.10486404282E+03  0.00000000000E+00 0.  1.
         12    1    4    4    0    0 -0.24160130085E+01  0.23571090687E+02 -0.32092618090E+02  0.39891973766E+02  0.00000000000E+00 0. -1.
         -5    1    5    5    0  502 -0.14313740536E+03  0.12400254931E+02 -0.16547217280E+03  0.21919218305E+03  0.47000000000E+01 0.  1.
         13    1    6    6    0    0  0.39707249312E+01 -0.50056966640E+01  0.22186515369E+02  0.23088203043E+02  0.00000000000E+00 0. -1.
        -14    1    6    6    0    0 -0.45739553822E+02  0.41750610462E+02 -0.40793049499E+02  0.74157219104E+02  0.00000000000E+00 0.  1.
</event>
<event>
12    1  0.8562501E-002  0.2139436E+03  0.7818608E-02  0.1139482E+00
         21   -1    0    0  503  502  0.00000000000E+00  0.00000000000E+00  0.14640811729E+03  0.14640811729E+03  0.00000000000E+00 0.  1.
         21   -1    0    0  501  503 -0.00000000000E+00 -0.00000000000E+00 -0.43093050613E+03  0.43093050613E+03  0.00000000000E+00 0.  1.
          6    2    1    2  501    0 -0.87960806416E+02  0.82260357932E+02 -0.29695875243E+03  0.36303390767E+03  0.17060260114E+03 0.  0.
         24    2    3    3    0    0 -0.92034657373E+02  0.11039267306E+03 -0.29021432342E+03  0.33344335615E+03  0.79392681176E+02 0.  0.
         -6    2    1    2    0  502  0.87960806416E+02 -0.82260357932E+02  0.12436363601E+02  0.21430471575E+03  0.17682753773E+03 0.  0.
        -24    2    5    5    0    0 -0.72885019045E+01 -0.30926193080E+02  0.49171648211E+02  0.99940392854E+02  0.80998021318E+02 0.  0.
          5    1    3    3  501    0  0.40738509571E+01 -0.28132315127E+02 -0.67444290185E+01  0.29590551513E+02  0.47000000000E+01 0. -1.
        -11    1    4    4    0    0  0.96007529555E+01  0.36789080835E+02 -0.55245941665E+02  0.67065080306E+02  0.00000000000E+00 0.  1.
         12    1    4    4    0    0 -0.10163541033E+03  0.73603592224E+02 -0.23496838175E+03  0.26637827585E+03  0.00000000000E+00 0. -1.
         -5    1    5    5    0  502  0.95249308320E+02 -0.51334164852E+02 -0.36735284611E+02  0.11436432290E+03  0.47000000000E+01 0.  1.
         13    1    6    6    0    0  0.46853329241E+01 -0.20351234027E+02  0.70366122998E+02  0.73399702566E+02  0.00000000000E+00 0. -1.
        -14    1    6    6    0    0 -0.11973834829E+02 -0.10574959052E+02 -0.21194474786E+02  0.26540690287E+02  0.00000000000E+00 0.  1.
</event>
<event>
12    1  0.8562501E-002  0.2427868E+03  0.7818608E-02  0.1118191E+00
         21   -1    0    0  503  502  0.00000000000E+00  0.00000000000E+00  0.49930912846E+03  0.49930912846E+03  0.00000000000E+00 0. -1.
         21   -1    0    0  501  503 -0.00000000000E+00 -0.00000000000E+00 -0.19816627994E+03  0.19816627994E+03  0.00000000000E+00 0.  1.
          6    2    1    2  501    0  0.15938793091E+03 -0.61128665615E+02 -0.72411193718E+02  0.25195543566E+03  0.17057823514E+03 0.  0.
         24    2    3    3    0    0  0.15717030505E+03 -0.27272536945E+02 -0.10056917051E+03  0.20761451810E+03  0.86852369047E+02 0.  0.
         -6    2    1    2    0  502 -0.15938793091E+03  0.61128665615E+02  0.37355404224E+03  0.44551997275E+03  0.17263892194E+03 0.  0.
        -24    2    5    5    0    0 -0.19469054322E+02  0.60404566600E+02  0.16846153422E+03  0.19719993089E+03  0.80503220361E+02 0.  0.
          5    1    3    3  501    0  0.22176258610E+01 -0.33856128670E+02  0.28157976793E+02  0.44340917560E+02  0.47000000000E+01 0. -1.
        -11    1    4    4    0    0  0.72023256984E+02  0.28180894525E+02 -0.26063881769E+02  0.81613958951E+02  0.00000000000E+00 0.  1.
         12    1    4    4    0    0  0.85147048061E+02 -0.55453431469E+02 -0.74505288741E+02  0.12600055915E+03  0.00000000000E+00 0. -1.
         -5    1    5    5    0  502 -0.13991887658E+03  0.72409901500E+00  0.20509250802E+03  0.24832004186E+03  0.47000000000E+01 0.  1.
         11    1    6    6    0    0 -0.50807448747E+02  0.31299425716E+02  0.10163711776E+03  0.11786074243E+03  0.00000000000E+00 0. -1.
        -12    1    6    6    0    0  0.31338394425E+02  0.29105140884E+02  0.66824416461E+02  0.79339188465E+02  0.00000000000E+00 0.  1.
</event>
<event>
12    1  0.8562501E-002  0.2855400E+03  0.7818608E-02  0.1092703E+00
         21   -1    0    0  503  502  0.00000000000E+00  0.00000000000E+00  0.12888052795E+04  0.12888052795E+04  0.00000000000E+00 0.  1.
         21   -1    0    0  501  503 -0.00000000000E+00 -0.00000000000E+00 -0.63275685549E+02  0.63275685549E+02  0.00000000000E+00 0. -1.
          6    2    1    2  501    0 -0.22172276732E+03 -0.52531465882E+02  0.60204582554E+03  0.66632744811E+03  0.17208297882E+03 0.  0.
         24    2    3    3    0    0 -0.12621400364E+03  0.29841273110E+02  0.26376727142E+03  0.30527113360E+03  0.82442799829E+02 0.  0.
         -6    2    1    2    0  502  0.22172276732E+03  0.52531465882E+02  0.62348376843E+03  0.68575351695E+03  0.17206201226E+03 0.  0.
        -24    2    5    5    0    0  0.85689734963E+02 -0.31902543269E+02  0.33467716802E+03  0.35550296020E+03  0.77543826151E+02 0.  0.
          5    1    3    3  501    0 -0.95508763684E+02 -0.82372738992E+02  0.33827855412E+03  0.36105631451E+03  0.47000000000E+01 0. -1.
        -11    1    4    4    0    0 -0.13011610584E+03  0.82665618464E+01  0.23856147696E+03  0.27186414868E+03  0.00000000000E+00 0.  1.
         12    1    4    4    0    0  0.39021022031E+01  0.21574711264E+02  0.25205794454E+02  0.33406984925E+02  0.00000000000E+00 0. -1.
         -5    1    5    5    0  502  0.13603303236E+03  0.84434009151E+02  0.28880660041E+03  0.33025055675E+03  0.47000000000E+01 0.  1.
         13    1    6    6    0    0  0.74006741347E+02  0.71290684570E+01  0.16458279271E+03  0.18059711249E+03  0.00000000000E+00 0. -1.
        -14    1    6    6    0    0  0.11682993617E+02 -0.39031611726E+02  0.17009437531E+03  0.17490584771E+03  0.00000000000E+00 0.  1.
</event>
<event>
12    1  0.8562501E-002  0.2263773E+03  0.7818608E-02  0.1129490E+00
         21   -1    0    0  503  502  0.00000000000E+00  0.00000000000E+00  0.55869728354E+02  0.55869728354E+02  0.00000000000E+00 0.  1.
         21   -1    0    0  501  503 -0.00000000000E+00 -0.00000000000E+00 -0.12381753226E+04  0.12381753226E+04  0.00000000000E+00 0.  1.
          6    2    1    2  501    0  0.57523162410E+02  0.13382731989E+03 -0.92516960625E+03  0.95246284045E+03  0.17328588042E+03 0.  0.
         24    2    3    3    0    0 -0.16491669948E+02  0.12055277942E+03 -0.70131202149E+03  0.71626648763E+03  0.79963629289E+02 0.  0.
         -6    2    1    2    0  502 -0.57523162410E+02 -0.13382731989E+03 -0.25713598799E+03  0.34158221049E+03  0.17129163565E+03 0.  0.
        -24    2    5    5    0    0 -0.85512706083E+00 -0.14078362226E+03 -0.14908310652E+03  0.21928269469E+03  0.77706936634E+02 0.  0.
          5    1    3    3  501    0  0.74014832358E+02  0.13274540473E+02 -0.22385758476E+03  0.23619635282E+03  0.47000000000E+01 0. -1.
        -11    1    4    4    0    0  0.19487821795E+02  0.29337357266E+02 -0.34221724680E+03  0.34402485337E+03  0.00000000000E+00 0.  1.
         12    1    4    4    0    0 -0.35979491743E+02  0.91215422150E+02 -0.35909477469E+03  0.37224163426E+03  0.00000000000E+00 0. -1.
         -5    1    5    5    0  502 -0.56668035349E+02  0.69563023693E+01 -0.10805288147E+03  0.12229951580E+03  0.47000000000E+01 0.  1.
         13    1    6    6    0    0  0.31104831234E+02 -0.31934634690E+02 -0.24815200964E+02  0.51020835134E+02  0.00000000000E+00 0. -1.
        -14    1    6    6    0    0 -0.31959958295E+02 -0.10884898757E+03 -0.12426790556E+03  0.16826185955E+03  0.00000000000E+00 0.  1.
</event>
<event>
12    1  0.8562501E-002  0.1973930E+03  0.7818608E-02  0.1152343E+00
         21   -1    0    0  503  502  0.00000000000E+00  0.00000000000E+00  0.23693256716E+03  0.23693256716E+03  0.00000000000E+00 0. -1.
         21   -1    0    0  501  503 -0.00000000000E+00 -0.00000000000E+00 -0.24093644386E+03  0.24093644386E+03  0.00000000000E+00 0. -1.
          6    2    1    2  501    0  0.62550685726E+02  0.73435701785E+02  0.13391491378E+03  0.23853131855E+03  0.17221671003E+03 0.  0.
         24    2    3    3    0    0  0.23004152227E+02 -0.27511730280E+02  0.46440171596E+02  0.99146122518E+02  0.79919820757E+02 0.  0.
         -6    2    1    2    0  502 -0.62550685726E+02 -0.73435701785E+02 -0.13791879048E+03  0.23933769247E+03  0.17016329712E+03 0.  0.
        -24    2    5    5    0    0 -0.61900664707E+02 -0.10184191722E+03 -0.56306510591E+02  0.15279296512E+03  0.77277413660E+02 0.  0.
          5    1    3    3  501    0  0.39546533499E+02  0.10094743206E+03  0.87474742188E+02  0.13938519603E+03  0.47000000000E+01 0. -1.
        -13    1    4    4    0    0  0.20260080035E+02  0.52425874598E+01  0.60033936838E+02  0.63576954461E+02  0.00000000000E+00 0.  1.
         14    1    4    4    0    0  0.27440721922E+01 -0.32754317739E+02 -0.13593765242E+02  0.35569168057E+02  0.00000000000E+00 0. -1.
         -5    1    5    5    0  502 -0.65002101991E+00  0.28406215435E+02 -0.81612279894E+02  0.86544727351E+02  0.47000000000E+01 0.  1.
         13    1    6    6    0    0 -0.61424823572E+02 -0.82724171718E+02 -0.73908228174E+02  0.12680190743E+03  0.00000000000E+00 0. -1.
        -14    1    6    6    0    0 -0.47584113423E+00 -0.19117745502E+02  0.17601717583E+02  0.25991057688E+02  0.00000000000E+00 0.  1.
</event>
<event>
12    1  0.8562501E-002  0.2204368E+03  0.7818608E-02  0.1133606E+00
         21   -1    0    0  503  502  0.00000000000E+00  0.00000000000E+00  0.22794398655E+03  0.22794398655E+03  0.00000000000E+00 0.  1.
         21   -1    0    0  501  503 -0.00000000000E+00 -0.00000000000E+00 -0.21618987292E+03  0.21618987292E+03  0.00000000000E+00 0.  1.
          6    2    1    2  501    0  0.70001640868E+02 -0.11841622881E+03  0.33154471927E+02  0.22266066163E+03  0.17191834765E+03 0.  0.
         24    2    3    3    0    0 -0.85479253291E+01 -0.88491291138E+01  0.22344769788E+02  0.87331716665E+02  0.83523445124E+02 0.  0.
         -6    2    1    2    0  502 -0.70001640868E+02  0.11841622881E+03 -0.21400358296E+02  0.22147319784E+03  0.17224914821E+03 0.  0.
        -24    2    5    5    0    0  0.22219531151E+02  0.71338278572E+02 -0.42036460607E+02  0.11578962918E+03  0.77828764933E+02 0.  0.
          5    1    3    3  501    0  0.78549566197E+02 -0.10956709969E+03  0.10809702140E+02  0.13532894496E+03  0.47000000000E+01 0. -1.
        -11    1    4    4    0    0  0.26799720121E+02 -0.30900235433E+02  0.19591651779E+01  0.40949821447E+02  0.00000000000E+00 0.  1.
         12    1    4    4    0    0 -0.35347645450E+02  0.22051106319E+02  0.20385604610E+02  0.46381895218E+02  0.00000000000E+00 0. -1.
         -5    1    5    5    0  502 -0.92221172020E+02  0.47077950234E+02  0.20636102312E+02  0.10568356866E+03  0.47000000000E+01 0.  1.
         11    1    6    6    0    0  0.43005316126E+02  0.11470744318E+02 -0.18018000398E+02  0.48017533555E+02  0.00000000000E+00 0. -1.
        -12    1    6    6    0    0 -0.20785784975E+02  0.59867534253E+02 -0.24018460209E+02  0.67772095625E+02  0.00000000000E+00 0.  1.
</event>
<event>
12    1  0.8562501E-002  0.1794998E+03  0.7818608E-02  0.1168602E+00
         21   -1    0    0  501  502  0.00000000000E+00  0.00000000000E+00  0.21772549916E+03  0.21772549916E+03  0.00000000000E+00 0.  1.
         21   -1    0    0  502  503 -0.00000000000E+00 -0.00000000000E+00 -0.47147597961E+03  0.47147597961E+03  0.00000000000E+00 0. -1.
         -6    2    1    2    0  503  0.33388637457E+02  0.29181642755E+02 -0.41264160939E+03  0.44947965667E+03  0.17260502476E+03 0.  0.
        -24    2    3    3    0    0  0.21772912644E+02 -0.42862881687E+02 -0.11484928269E+03  0.14284029454E+03  0.70012182214E+02 0.  0.
          6    2    1    2  501    0 -0.33388637457E+02 -0.29181642755E+02  0.15889112894E+03  0.23972182210E+03  0.17393617148E+03 0.  0.
         24    2    5    5    0    0  0.22696800934E+02  0.10374490289E+02  0.14859985152E+03  0.17016418807E+03  0.79064278967E+02 0.  0.
          5    1    5    5  501    0 -0.56085438391E+02 -0.39556133044E+02  0.10291277424E+02  0.69557634031E+02  0.47000000000E+01 0. -1.
        -13    1    6    6    0    0  0.19256395911E+02 -0.18130796357E+01 -0.16220361218E+01  0.19409457551E+02  0.00000000000E+00 0.  1.
         14    1    6    6    0    0  0.34404050229E+01  0.12187569925E+02  0.15022188764E+03  0.15075473052E+03  0.00000000000E+00 0. -1.
         -5    1    3    3    0  503  0.11615724813E+02  0.72044524442E+02 -0.29779232670E+03  0.30663936213E+03  0.47000000000E+01 0.  1.
         11    1    4    4    0    0  0.21681611117E+02 -0.11992347234E+02 -0.10853918015E+03  0.11133131761E+03  0.00000000000E+00 0. -1.
        -12    1    4    4    0    0  0.91301527068E-01 -0.30870534452E+02 -0.63101025435E+01  0.31508976934E+02  0.00000000000E+00 0.  1.
</event>
<event>
12    1  0.8562501E-002  0.2039666E+03  0.7818608E-02  0.1146731E+00
         21   -1    0    0  501  502  0.00000000000E+00  0.00000000000E+00  0.20387698457E+03  0.20387698457E+03  0.00000000000E+00 0.  1.
         21   -1    0    0  502  503 -0.00000000000E+00 -0.00000000000E+00 -0.20262221659E+03  0.20262221659E+03  0.00000000000E+00 0.  1.
         -6    2    1    2    0  503 -0.10600222051E+03 -0.13253176102E+02  0.16454221071E+00  0.20396661707E+03  0.17375337802E+03 0.  0.
        -24    2    3    3    0    0 -0.50303797257E+02  0.38968266458E+02 -0.49357661471E+02  0.11284070377E+03  0.79043329084E+02 0.  0.
          6    2    1    2  501    0  0.10600222051E+03  0.13253176102E+02  0.10902257668E+01  0.20253258410E+03  0.17206435308E+03 0.  0.
         24    2    5    5    0    0  0.60175149036E+02 -0.24363201816E+02  0.61274215958E+02  0.11791984840E+03  0.77045096801E+02 0.  0.
          5    1    5    5  501    0  0.45827071475E+02  0.37616377917E+02 -0.60183990191E+02  0.84612735702E+02  0.47000000000E+01 0. -1.
        -11    1    6    6    0    0  0.24474967953E+01 -0.30296792634E+02 -0.39104111551E+01  0.30645998106E+02  0.00000000000E+00 0.  1.
         12    1    6    6    0    0  0.57727652240E+02  0.59335908189E+01  0.65184627113E+02  0.87273850294E+02  0.00000000000E+00 0. -1.
         -5    1    3    3    0  503 -0.55698423254E+02 -0.52221442560E+02  0.49522203682E+02  0.91125913293E+02  0.47000000000E+01 0.  1.
         13    1    4    4    0    0 -0.11769261668E+02 -0.24282488368E+02 -0.87101669673E+01  0.28355277642E+02  0.00000000000E+00 0. -1.
        -14    1    4    4    0    0 -0.38534535590E+02  0.63250754825E+02 -0.40647494504E+02  0.84485426131E+02  0.00000000000E+00 0.  1.
</event>
<event>
12    1  0.8562501E-002  0.1971738E+03  0.7818608E-02  0.1152189E+00
         21   -1    0    0  501  502  0.00000000000E+00  0.00000000000E+00  0.94165896926E+02  0.94165896926E+02  0.00000000000E+00 0.  1.
         21   -1    0    0  502  503 -0.00000000000E+00 -0.00000000000E+00 -0.21693864983E+04  0.21693864983E+04  0.00000000000E+00 0.  1.
         -6    2    1    2    0  503  0.93982418553E+02 -0.18026982420E+02 -0.20560334518E+04  0.20654471969E+04  0.17216533108E+03 0.  0.
        -24    2    3    3    0    0  0.11125333405E+03 -0.51564980879E+02 -0.13833767436E+04  0.13917171182E+04  0.90050379220E+02 0.  0.
          6    2    1    2  501    0 -0.93982418553E+02  0.18026982420E+02 -0.19187149561E+02  0.19810519830E+03  0.17239447727E+03 0.  0.
         24    2    5    5    0    0 -0.10744945795E+03  0.37884743033E+02 -0.60685235036E+02  0.14994013934E+03  0.76280455322E+02 0.  0.
          5    1    5    5  501    0  0.13467039398E+02 -0.19857760614E+02  0.41498085475E+02  0.48165058962E+02  0.47000000000E+01 0. -1.
        -11    1    6    6    0    0 -0.77784176261E+02 -0.11879404272E+02 -0.41173723188E+02  0.88807509838E+02  0.00000000000E+00 0.  1.
         12    1    6    6    0    0 -0.29665281690E+02  0.49764147306E+02 -0.19511511848E+02  0.61132629499E+02  0.00000000000E+00 0. -1.
         -5    1    3    3    0  503 -0.17270915494E+02  0.33537998459E+02 -0.67265670815E+03  0.67373007866E+03  0.47000000000E+01 0.  1.
         13    1    4    4    0    0  0.47704084811E+02  0.23175559024E+02 -0.41223657113E+03  0.41563418630E+03  0.00000000000E+00 0. -1.
        -14    1    4    4    0    0  0.63549249236E+02 -0.74740539903E+02 -0.97114017250E+03  0.97608293194E+03  0.00000000000E+00 0.  1.
</event>
<event>
12    1  0.8562501E-002  0.1994400E+03  0.7818608E-02  0.1151583E+00
         21   -1    0    0  503  502  0.00000000000E+00  0.00000000000E+00  0.33719207821E+02  0.33719207821E+02  0.00000000000E+00 0.  1.
         21   -1    0    0  501  503 -0.00000000000E+00 -0.00000000000E+00 -0.12511555567E+04  0.12511555567E+04  0.00000000000E+00 0. -1.
          6    2    1    2  501    0  0.95843194482E+02 -0.33552608017E+02 -0.80719609830E+03  0.83146969129E+03  0.17165258811E+03 0.  0.
         24    2    3    3    0    0  0.79264960313E+01  0.24903497775E+02 -0.48779177868E+03  0.49503593621E+03  0.80229329118E+02 0.  0.
         -6    2    1    2    0  502 -0.95843194482E+02  0.33552608017E+02 -0.41024025058E+03  0.45340507323E+03  0.16421754411E+03 0.  0.
        -24    2    5    5    0    0 -0.16804377655E+01  0.31138146747E+02 -0.68351795629E+02  0.98747125329E+02  0.64082905217E+02 0.  0.
          5    1    3    3  501    0  0.87916698450E+02 -0.58456105792E+02 -0.31940431961E+03  0.33643375508E+03  0.47000000000E+01 0. -1.
        -13    1    4    4    0    0 -0.25308197130E+02  0.13949159798E+02 -0.39180747445E+03  0.39287171053E+03  0.00000000000E+00 0.  1.
         14    1    4    4    0    0  0.33234693161E+02  0.10954337977E+02 -0.95984304236E+02  0.10216422568E+03  0.00000000000E+00 0. -1.
         -5    1    5    5    0  502 -0.94162756716E+02  0.24144612701E+01 -0.34188845495E+03  0.35465794790E+03  0.47000000000E+01 0.  1.
         13    1    6    6    0    0  0.25152535354E+02  0.77027795202E+01 -0.54511962702E+02  0.60527158571E+02  0.00000000000E+00 0. -1.
        -14    1    6    6    0    0 -0.26832973120E+02  0.23435367227E+02 -0.13839832927E+02  0.38219966758E+02  0.00000000000E+00 0.  1.
</event>
<event>
12    1  0.8562501E-002  0.2120004E+03  0.7818608E-02  0.1143423E+00
         21   -1    0    0  501  502  0.00000000000E+00  0.00000000000E+00  0.12537169580E+03  0.12537169580E+03  0.00000000000E+00 0. -1.
         21   -1    0    0  502  503 -0.00000000000E+00 -0.00000000000E+00 -0.13260531483E+04  0.13260531483E+04  0.00000000000E+00 0. -1.
         -6    2    1    2    0  503  0.83983543894E+02  0.15362185093E+02 -0.12227909215E+04  0.12382746382E+04  0.17554831141E+03 0.  0.
        -24    2    3    3    0    0  0.55515793186E+02 -0.47570880934E+02 -0.98163018345E+03  0.98737311332E+03  0.77219530224E+02 0.  0.
          6    2    1    2  501    0 -0.83983543894E+02 -0.15362185093E+02  0.22109468942E+02  0.21315020592E+03  0.19404883223E+03 0.  0.
         24    2    5    5    0    0 -0.50561770859E+02  0.67667706589E+02 -0.24115087064E+02  0.11230489168E+03  0.69967421596E+02 0.  0.
          5    1    5    5  501    0 -0.33421773035E+02 -0.83029891682E+02  0.46224556006E+02  0.10084531424E+03  0.47000000000E+01 0. -1.
        -11    1    6    6    0    0  0.14944315528E+02  0.10646454645E+02  0.75824589311E+01  0.19853796779E+02  0.00000000000E+00 0.  1.
         12    1    6    6    0    0 -0.65506086387E+02  0.57021251944E+02 -0.31697545995E+02  0.92451094905E+02  0.00000000000E+00 0. -1.
         -5    1    3    3    0  503  0.28467750708E+02  0.62933066027E+02 -0.24116073803E+03  0.25090152490E+03  0.47000000000E+01 0.  1.
         13    1    4    4    0    0  0.65594661762E+02 -0.24958343537E+02 -0.87907188284E+03  0.88186901168E+03  0.00000000000E+00 0. -1.
        -14    1    4    4    0    0 -0.10078868576E+02 -0.22612537397E+02 -0.10255830061E+03  0.10550410164E+03  0.00000000000E+00 0.  1.
</event>
<event>
12    1  0.8562501E-002  0.1785124E+03  0.7818608E-02  0.1169585E+00
         21   -1    0    0  501  502  0.00000000000E+00  0.00000000000E+00  0.15037959622E+03  0.15037959622E+03  0.00000000000E+00 0. -1.
         21   -1    0    0  502  503 -0.00000000000E+00 -0.00000000000E+00 -0.34090527660E+03  0.34090527660E+03  0.00000000000E+00 0. -1.
         -6    2    1    2    0  503 -0.21518700674E+02 -0.32141637881E+02 -0.24753352506E+03  0.30518766748E+03  0.17427141759E+03 0.  0.
        -24    2    3    3    0    0 -0.21973187067E+02 -0.89526691369E+02 -0.17422512122E+03  0.21197037833E+03  0.77969218347E+02 0.  0.
          6    2    1    2  501    0  0.21518700674E+02  0.32141637881E+02  0.57007844680E+02  0.18609720534E+03  0.17287607156E+03 0.  0.
         24    2    5    5    0    0  0.75865224421E+02  0.16132016868E+01  0.56546205442E+02  0.12358454126E+03  0.79482896225E+02 0.  0.
          5    1    5    5  501    0 -0.54346523747E+02  0.30528436194E+02  0.46163923799E+00  0.62512664082E+02  0.47000000000E+01 0. -1.
        -13    1    6    6    0    0  0.84159339879E+02  0.14481554033E+02  0.25752033140E+02  0.89194602454E+02  0.00000000000E+00 0.  1.
         14    1    6    6    0    0 -0.82941154578E+01 -0.12868352346E+02  0.30794172301E+02  0.34389938806E+02  0.00000000000E+00 0. -1.
         -5    1    3    3    0  503  0.45448639339E+00  0.57385053488E+02 -0.73308403847E+02  0.93217289149E+02  0.47000000000E+01 0.  1.
         11    1    4    4    0    0  0.10895531808E+02 -0.84894819607E+02 -0.14140276344E+03  0.16528939627E+03  0.00000000000E+00 0. -1.
        -12    1    4    4    0    0 -0.32868718876E+02 -0.46318717623E+01 -0.32822357775E+02  0.46680982064E+02  0.00000000000E+00 0.  1.
</event>
<event>
12    1  0.8562501E-002  0.2014936E+03  0.7818608E-02  0.1150879E+00
         21   -1    0    0  503  502  0.00000000000E+00  0.00000000000E+00  0.33961064215E+02  0.33961064215E+02  0.00000000000E+00 0.  1.
         21   -1    0    0  501  503 -0.00000000000E+00 -0.00000000000E+00 -0.12186181442E+04  0.12186181442E+04  0.00000000000E+00 0.  1.
          6    2    1    2  501    0 -0.27010221234E+02 -0.77077672334E+02 -0.74516662502E+03  0.76910063675E+03  0.17196502778E+03 0.  0.
         24    2    3    3    0    0  0.26245755609E+02 -0.99998834706E+02 -0.49279552964E+03  0.51011253174E+03  0.81723646340E+02 0.  0.
         -6    2    1    2    0  502  0.27010221234E+02  0.77077672334E+02 -0.43949045492E+03  0.48347857162E+03  0.18419866891E+03 0.  0.
        -24    2    5    5    0    0  0.32193331870E+01  0.83037385585E+02 -0.44352532022E+03  0.45818243211E+03  0.79440920855E+02 0.  0.
          5    1    3    3  501    0 -0.53255976843E+02  0.22921162372E+02 -0.25237109538E+03  0.25898810501E+03  0.47000000000E+01 0. -1.
        -11    1    4    4    0    0 -0.14264298767E+02 -0.81776620164E+02 -0.25399756943E+03  0.26721835847E+03  0.00000000000E+00 0.  1.
         12    1    4    4    0    0  0.40510054376E+02 -0.18222214542E+02 -0.23879796021E+03  0.24289417327E+03  0.00000000000E+00 0. -1.
         -5    1    5    5    0  502  0.23790888047E+02 -0.59597132516E+01  0.40348653023E+01  0.25296139510E+02  0.47000000000E+01 0.  1.
         11    1    6    6    0    0  0.33895556786E+02  0.71333154997E+02 -0.25952924923E+03  0.27127985361E+03  0.00000000000E+00 0. -1.
        -12    1    6    6    0    0 -0.30676223599E+02  0.11704230589E+02 -0.18399607099E+03  0.18690257849E+03  0.00000000000E+00 0.  1.
</event>
<event>
12    1  0.8562501E-002  0.1997768E+03  0.7818608E-02  0.1150288E+00
         21   -1    0    0  503  502  0.00000000000E+00  0.00000000000E+00  0.61129814872E+03  0.61129814872E+03  0.00000000000E+00 0. -1.
         21   -1    0    0  501  503 -0.00000000000E+00 -0.00000000000E+00 -0.29668462733E+03  0.29668462733E+03  0.00000000000E+00 0. -1.
          6    2    1    2  501    0 -0.21661091587E+02 -0.99539073573E+02 -0.24396411158E+03  0.31532404211E+03  0.17185323313E+03 0.  0.
         24    2    3    3    0    0 -0.12024678881E+02 -0.12604561716E+03 -0.12802389456E+03  0.19591013494E+03  0.77191792870E+02 0.  0.
         -6    2    1    2    0  502  0.21661091587E+02  0.99539073573E+02  0.55857763298E+03  0.59265873394E+03  0.16987693428E+03 0.  0.
        -24    2    5    5    0    0  0.55756731206E+02  0.14242449773E+02  0.37425155671E+03  0.38665820223E+03  0.78285868481E+02 0.  0.
          5    1    3    3  501    0 -0.96364127060E+01  0.26506543587E+02 -0.11594021702E+03  0.11941390717E+03  0.47000000000E+01 0. -1.
        -13    1    4    4    0    0  0.43227002453E+01 -0.12418445428E+03 -0.12939802078E+03  0.17939986679E+03  0.00000000000E+00 0.  1.
         14    1    4    4    0    0 -0.16347379126E+02 -0.18611628782E+01  0.13741262177E+01  0.16510268151E+02  0.00000000000E+00 0. -1.
         -5    1    5    5    0  502 -0.34095639619E+02  0.85296623800E+02  0.18432607627E+03  0.20600053171E+03  0.47000000000E+01 0.  1.
         11    1    6    6    0    0  0.89432455203E+01  0.34171491380E+02  0.24859386848E+03  0.25109078818E+03  0.00000000000E+00 0. -1.
        -12    1    6    6    0    0  0.46813485686E+02 -0.19929041607E+02  0.12565768823E+03  0.13556741405E+03  0.00000000000E+00 0.  1.
</event>
<event>
12    1  0.8562501E-002  0.1808245E+03  0.7818608E-02  0.1167055E+00
         21   -1    0    0  503  502  0.00000000000E+00  0.00000000000E+00  0.13279139004E+03  0.13279139004E+03  0.00000000000E+00 0. -1.
         21   -1    0    0  501  503 -0.00000000000E+00 -0.00000000000E+00 -0.42166126891E+03  0.42166126891E+03  0.00000000000E+00 0. -1.
          6    2    1    2  501    0  0.58570408761E+02  0.26112212518E+01 -0.32343269247E+03  0.37054853837E+03  0.17105613545E+03 0.  0.
         24    2    3    3    0    0 -0.32154656859E+02  0.37329023231E+02 -0.16452398044E+03  0.18424117924E+03  0.66703028845E+02 0.  0.
         -6    2    1    2    0  502 -0.58570408761E+02 -0.26112212518E+01  0.34562813597E+02  0.18390412058E+03  0.17084737699E+03 0.  0.
        -24    2    5    5    0    0 -0.72274166473E+02  0.54351521987E+02  0.12301475961E+02  0.12105347026E+03  0.79529700551E+02 0.  0.
          5    1    3    3  501    0  0.90725065621E+02 -0.34717801980E+02 -0.15890871203E+03  0.18630735913E+03  0.47000000000E+01 0. -1.
        -11    1    4    4    0    0 -0.36453639994E+02  0.28171029904E+02 -0.45375043453E+02  0.64663508744E+02  0.00000000000E+00 0.  1.
         12    1    4    4    0    0  0.42989831343E+01  0.91579933269E+01 -0.11914893699E+03  0.11957767050E+03  0.00000000000E+00 0. -1.
         -5    1    5    5    0  502  0.13703757712E+02 -0.56962743238E+02  0.22261337635E+02  0.62850650323E+02  0.47000000000E+01 0.  1.
         13    1    6    6    0    0 -0.42579900263E+02 -0.10603416608E+02 -0.12203995805E+02  0.45545777672E+02  0.00000000000E+00 0. -1.
        -14    1    6    6    0    0 -0.29694266211E+02  0.64954938595E+02  0.24505471766E+02  0.75507692589E+02  0.00000000000E+00 0.  1.
</event>
<event>
12    1  0.8562501E-002  0.1924792E+03  0.7818608E-02  0.1156358E+00
         21   -1    0    0  503  502  0.00000000000E+00  0.00000000000E+00  0.87891167745E+02  0.87891167745E+02  0.00000000000E+00 0.  1.
         21   -1    0    0  501  503 -0.00000000000E+00 -0.00000000000E+00 -0.55690643648E+03  0.55690643648E+03  0.00000000000E+00 0.  1.
          6    2    1    2  501    0  0.85847765711E+02 -0.47274208239E+01 -0.39436297479E+03  0.43882844627E+03  0.17220935512E+03 0.  0.
         24    2    3    3    0    0  0.44352060373E+02 -0.57842553834E+01 -0.78611039734E+02  0.12032509472E+03  0.79359120345E+02 0.  0.
         -6    2    1    2    0  502 -0.85847765711E+02  0.47274208239E+01 -0.74652293953E+02  0.20596915796E+03  0.17163374275E+03 0.  0.
        -24    2    5    5    0    0 -0.58237736890E+02  0.51982837930E+01 -0.11758226119E+03  0.15470896394E+03  0.81796205444E+02 0.  0.
          5    1    3    3  501    0  0.41495705338E+02  0.10568345595E+01 -0.31575193505E+03  0.31850335155E+03  0.47000000000E+01 0. -1.
        -13    1    4    4    0    0  0.27823173149E+02  0.21121665572E+02 -0.81445557432E+02  0.88620723005E+02  0.00000000000E+00 0.  1.
         14    1    4    4    0    0  0.16528887224E+02 -0.26905920955E+02  0.28345176979E+01  0.31704371716E+02  0.00000000000E+00 0. -1.
         -5    1    5    5    0  502 -0.27610028821E+02 -0.47086296916E+00  0.42929967237E+02  0.51260194014E+02  0.47000000000E+01 0.  1.
         11    1    6    6    0    0 -0.54892432303E+02 -0.14879534204E+02 -0.29042386854E+02  0.63859532541E+02  0.00000000000E+00 0. -1.
        -12    1    6    6    0    0 -0.33453045870E+01  0.20077817997E+02 -0.88539874336E+02  0.90849431400E+02  0.00000000000E+00 0.  1.
</event>
<event>
12    1  0.8562501E-002  0.1983355E+03  0.7818608E-02  0.1153195E+00
         21   -1    0    0  501  502  0.00000000000E+00  0.00000000000E+00  0.59389915377E+02  0.59389915377E+02  0.00000000000E+00 0.  1.
         21   -1    0    0  502  503 -0.00000000000E+00 -0.00000000000E+00 -0.63211388731E+03  0.63211388731E+03  0.00000000000E+00 0.  1.
         -6    2    1    2    0  503  0.65182045707E+02  0.33546807158E+02 -0.30382861300E+03  0.36283440114E+03  0.18429023094E+03 0.  0.
        -24    2    3    3    0    0 -0.83284995163E+01 -0.20874530341E+02 -0.23333312628E+03  0.24726110889E+03  0.78667644089E+02 0.  0.
          6    2    1    2  501    0 -0.65182045707E+02 -0.33546807158E+02 -0.26889535893E+03  0.32866940155E+03  0.17419751464E+03 0.  0.
         24    2    5    5    0    0 -0.37779449603E+02 -0.67788238617E+01 -0.27582332501E+03  0.28945825623E+03  0.78957812878E+02 0.  0.
          5    1    5    5  501    0 -0.27402596104E+02 -0.26767983296E+02  0.69279660807E+01  0.39211145316E+02  0.47000000000E+01 0. -1.
        -13    1    6    6    0    0  0.15358587093E+02 -0.22161793855E+02 -0.48404580620E+02  0.55407894107E+02  0.00000000000E+00 0.  1.
         14    1    6    6    0    0 -0.53138036696E+02  0.15382969993E+02 -0.22741874439E+03  0.23405036212E+03  0.00000000000E+00 0. -1.
         -5    1    3    3    0  503  0.73510545223E+02  0.54421337499E+02 -0.70495486718E+02  0.11557329225E+03  0.47000000000E+01 0.  1.
         13    1    4    4    0    0 -0.15501962391E+02  0.96887160565E+01 -0.20227811789E+03  0.20310248406E+03  0.00000000000E+00 0. -1.
        -14    1    4    4    0    0  0.71734628749E+01 -0.30563246398E+02 -0.31055008397E+02  0.44158624826E+02  0.00000000000E+00 0.  1.
</event>
<event>
12    1  0.8562501E-002  0.2144658E+03  0.7818608E-02  0.1138162E+00
         21   -1    0    0  501  502  0.00000000000E+00  0.00000000000E+00  0.27431224444E+04  0.27431224444E+04  0.00000000000E+00 0. -1.
         21   -1    0    0  502  503 -0.00000000000E+00 -0.00000000000E+00 -0.88560853857E+02  0.88560853857E+02  0.00000000000E+00 0. -1.
         -6    2    1    2    0  503  0.12092281335E+03  0.51908622640E+02  0.52452328430E+02  0.22078682448E+03  0.16934799442E+03 0.  0.
        -24    2    3    3    0    0  0.10794891757E+03  0.60552865136E+02  0.94315611528E+02  0.17586834975E+03  0.81942806800E+02 0.  0.
          6    2    1    2  501    0 -0.12092281335E+03 -0.51908622640E+02  0.26021092622E+04  0.26108964738E+04  0.16879263290E+03 0.  0.
         24    2    5    5    0    0 -0.12214700562E+02 -0.64753297952E+02  0.13107332864E+04  0.13148808720E+04  0.80918297705E+02 0.  0.
          5    1    5    5  501    0 -0.10870811278E+03  0.12844675312E+02  0.12913759758E+04  0.12960156019E+04  0.47000000000E+01 0. -1.
        -13    1    6    6    0    0  0.23055311071E+02 -0.13554901121E+02  0.78950317896E+03  0.78995604453E+03  0.00000000000E+00 0.  1.
         14    1    6    6    0    0 -0.35270011634E+02 -0.51198396830E+02  0.52123010743E+03  0.52492482743E+03  0.00000000000E+00 0. -1.
         -5    1    3    3    0  503  0.12973895779E+02 -0.86442424963E+01 -0.41863283098E+02  0.44918474727E+02  0.47000000000E+01 0.  1.
         11    1    4    4    0    0  0.86714950137E+01 -0.46009775994E+01 -0.12674343307E+02  0.16031306837E+02  0.00000000000E+00 0. -1.
        -12    1    4    4    0    0  0.99277422554E+02  0.65153842735E+02  0.10698995483E+03  0.15983704291E+03  0.00000000000E+00 0.  1.
</event>
<event>
12    1  0.8562501E-002  0.1917424E+03  0.7818608E-02  0.1157012E+00
         21   -1    0    0  503  502  0.00000000000E+00  0.00000000000E+00  0.20214014116E+04  0.20214014116E+04  0.00000000000E+00 0. -1.
         21   -1    0    0  501  503 -0.00000000000E+00 -0.00000000000E+00 -0.57745515434E+02  0.57745515434E+02  0.00000000000E+00 0. -1.
          6    2    1    2  501    0  0.50962009473E+02  0.69046406285E+02  0.12047976150E+03  0.22602432079E+03  0.17090081342E+03 0.  0.
         24    2    3    3    0    0  0.92752509431E+02  0.78910651250E+02  0.10714917419E+03  0.18081874842E+03  0.79903412719E+02 0.  0.
         -6    2    1    2    0  502 -0.50962009473E+02 -0.69046406285E+02  0.18431761347E+04  0.18531226062E+04  0.17146602497E+03 0.  0.
        -24    2    5    5    0    0  0.93875861004E+01 -0.51085532209E+02  0.54501891005E+03  0.55343074410E+03  0.80883359416E+02 0.  0.
          5    1    3    3  501    0 -0.41790499958E+02 -0.98642449651E+01  0.13330587304E+02  0.45205572370E+02  0.47000000000E+01 0. -1.
        -13    1    4    4    0    0  0.58229002265E+02  0.36073313704E+01  0.66752382471E+02  0.88653878144E+02  0.00000000000E+00 0.  1.
         14    1    4    4    0    0  0.34523507166E+02  0.75303319880E+02  0.40396791722E+02  0.92164870278E+02  0.00000000000E+00 0. -1.
         -5    1    5    5    0  502 -0.60349595574E+02 -0.17960874076E+02  0.12981572246E+04  0.12996918621E+04  0.47000000000E+01 0.  1.
         11    1    6    6    0    0 -0.74045914007E+01 -0.52476185630E+02  0.52313049826E+03  0.52580804125E+03  0.00000000000E+00 0. -1.
        -12    1    6    6    0    0  0.16792177501E+02  0.13906534207E+01  0.21888411788E+02  0.27622702851E+02  0.00000000000E+00 0.  1.
</event>
<event>
12    1  0.8562501E-002  0.2186287E+03  0.7818608E-02  0.1135263E+00
         21   -1    0    0  503  502  0.00000000000E+00  0.00000000000E+00  0.10380478333E+03  0.10380478333E+03  0.00000000000E+00 0.  1.
         21   -1    0    0  501  503 -0.00000000000E+00 -0.00000000000E+00 -0.54979457836E+03  0.54979457836E+03  0.00000000000E+00 0. -1.
          6    2    1    2  501    0 -0.50147376950E+02  0.12446235106E+03 -0.35679804908E+03  0.41747723931E+03  0.17022561873E+03 0.  0.
         24    2    3    3    0    0 -0.95052312231E+02  0.11182478771E+03 -0.24890020549E+03  0.29983287748E+03  0.80054462207E+02 0.  0.
         -6    2    1    2    0  502  0.50147376950E+02 -0.12446235106E+03 -0.89191745954E+02  0.23612212237E+03  0.17260606270E+03 0.  0.
        -24    2    5    5    0    0  0.31142433740E+02 -0.15802522252E+03 -0.67916923408E+02  0.19182356392E+03  0.79004740731E+02 0.  0.
          5    1    3    3  501    0  0.44904935281E+02  0.12637563350E+02 -0.10789784359E+03  0.11764436184E+03  0.47000000000E+01 0. -1.
        -13    1    4    4    0    0 -0.21840876844E+01  0.53711317500E+02 -0.11410699445E+03  0.12613517371E+03  0.00000000000E+00 0.  1.
         14    1    4    4    0    0 -0.92868224546E+02  0.58113470211E+02 -0.13479321104E+03  0.17369770376E+03  0.00000000000E+00 0. -1.
         -5    1    5    5    0  502  0.19004943210E+02  0.33562871456E+02 -0.21274822546E+02  0.44298558454E+02  0.47000000000E+01 0.  1.
         11    1    6    6    0    0 -0.17864981491E+01 -0.22521317641E+02 -0.45208397906E+02  0.50539099370E+02  0.00000000000E+00 0. -1.
        -12    1    6    6    0    0  0.32928931889E+02 -0.13550390487E+03 -0.22708525502E+02  0.14128446455E+03  0.00000000000E+00 0.  1.
</event>
<event>
12    1  0.8562501E-002  0.2246198E+03  0.7818608E-02  0.1132050E+00
         21   -1    0    0  503  502  0.00000000000E+00  0.00000000000E+00  0.12854354023E+03  0.12854354023E+03  0.00000000000E+00 0. -1.
         21   -1    0    0  501  503 -0.00000000000E+00 -0.00000000000E+00 -0.76161371996E+03  0.76161371996E+03  0.00000000000E+00 0. -1.
          6    2    1    2  501    0 -0.13989883722E+03  0.31624598015E+02 -0.63544316970E+03  0.67397483434E+03  0.17286484766E+03 0.  0.
         24    2    3    3    0    0 -0.31584250472E+02 -0.38696253589E+02 -0.21724211845E+03  0.23626342127E+03  0.78302626265E+02 0.  0.
         -6    2    1    2    0  502  0.13989883722E+03 -0.31624598015E+02  0.23729899682E+01  0.21618242584E+03  0.16173252705E+03 0.  0.
        -24    2    5    5    0    0  0.58349144428E+02 -0.12819815416E+02 -0.58737644016E+02  0.11244924972E+03  0.75005017261E+02 0.  0.
          5    1    3    3  501    0 -0.10831458675E+03  0.70320851604E+02 -0.41820105125E+03  0.43771141308E+03  0.47000000000E+01 0. -1.
        -13    1    4    4    0    0 -0.45287770663E+02 -0.10038202705E+02 -0.59976418230E+02  0.75821622437E+02  0.00000000000E+00 0.  1.
         14    1    4    4    0    0  0.13703520191E+02 -0.28658050884E+02 -0.15726570022E+03  0.16044179883E+03  0.00000000000E+00 0. -1.
         -5    1    5    5    0  502  0.81549692796E+02 -0.18804782599E+02  0.61110633984E+02  0.10373317613E+03  0.47000000000E+01 0.  1.
         13    1    6    6    0    0 -0.27308566850E+01 -0.29748274077E+02 -0.71266749302E+01  0.30711673421E+02  0.00000000000E+00 0. -1.
        -14    1    6    6    0    0  0.61080001113E+02  0.16928458660E+02 -0.51610969086E+02  0.81737576295E+02  0.00000000000E+00 0.  1.
</event>
<event>
12    1  0.8562501E-002  0.1870521E+03  0.7818608E-02  0.1161194E+00
         21   -1    0    0  503  502  0.00000000000E+00  0.00000000000E+00  0.21093772625E+03  0.21093772625E+03  0.00000000000E+00 0.  1.
         21   -1    0    0  501  503 -0.00000000000E+00 -0.00000000000E+00 -0.29019123970E+03  0.29019123970E+03  0.00000000000E+00 0.  1.
          6    2    1    2  501    0  0.46310726826E+02  0.59375816071E+02 -0.20375991975E+03  0.27659822499E+03  0.17122588069E+03 0.  0.
         24    2    3    3    0    0 -0.90692974741E+01  0.54603715485E+02 -0.19877598958E+03  0.22059242533E+03  0.78008372491E+02 0.  0.
         -6    2    1    2    0  502 -0.46310726826E+02 -0.59375816071E+02  0.12450640630E+03  0.22453074096E+03  0.17100303352E+03 0.  0.
        -24    2    5    5    0    0  0.27963849148E+01 -0.52382704553E+02  0.51614329880E+01  0.95202767628E+02  0.79278995129E+02 0.  0.
          5    1    3    3  501    0  0.55380024300E+02  0.47721005865E+01 -0.49839301695E+01  0.56005799659E+02  0.47000000000E+01 0. -1.
        -13    1    4    4    0    0  0.21247122408E+02  0.35571001778E+01 -0.12112133574E+02  0.24714306626E+02  0.00000000000E+00 0.  1.
         14    1    4    4    0    0 -0.30316419882E+02  0.51046615307E+02 -0.18666385600E+03  0.19587811870E+03  0.00000000000E+00 0. -1.
         -5    1    5    5    0  502 -0.49107111741E+02 -0.69931115184E+01  0.11934497331E+03  0.12932797333E+03  0.47000000000E+01 0.  1.
         13    1    6    6    0    0 -0.37354532705E+02 -0.18392623190E+02 -0.39091018684E+01  0.41820219737E+02  0.00000000000E+00 0. -1.
        -14    1    6    6    0    0  0.40150917620E+02 -0.33990081363E+02  0.90705348564E+01  0.53382547891E+02  0.00000000000E+00 0.  1.
</event>
<event>
12    1  0.8562501E-002  0.1803358E+03  0.7818608E-02  0.1168399E+00
         21   -1    0    0  503  502  0.00000000000E+00  0.00000000000E+00  0.74097649180E+03  0.74097649180E+03  0.00000000000E+00 0.  1.
         21   -1    0    0  501  503 -0.00000000000E+00 -0.00000000000E+00 -0.11553819147E+03  0.11553819147E+03  0.00000000000E+00 0.  1.
          6    2    1    2  501    0 -0.48247683690E+02  0.22456091808E+02 -0.27888881016E+02  0.17875556559E+03  0.16835571717E+03 0.  0.
         24    2    3    3    0    0 -0.74203729376E+02  0.42068949364E+02 -0.60028031615E+02  0.13278388419E+03  0.82171803973E+02 0.  0.
         -6    2    1    2    0  502  0.48247683690E+02 -0.22456091808E+02  0.65332718135E+03  0.67775911768E+03  0.17230467397E+03 0.  0.
        -24    2    5    5    0    0  0.47574195543E+01  0.35969184029E+02  0.20553884104E+03  0.22406163736E+03  0.81492250680E+02 0.  0.
          5    1    3    3  501    0  0.25956045686E+02 -0.19612857556E+02  0.32139150599E+02  0.45971681396E+02  0.47000000000E+01 0. -1.
        -13    1    4    4    0    0  0.11735352577E+01 -0.47730834708E+01 -0.41922301625E+02  0.42209464394E+02  0.00000000000E+00 0.  1.
         14    1    4    4    0    0 -0.75377264634E+02  0.46842032835E+02 -0.18105729989E+02  0.90574419801E+02  0.00000000000E+00 0. -1.
         -5    1    5    5    0  502  0.43490264136E+02 -0.58425275837E+02  0.44778834031E+03  0.45369748032E+03  0.47000000000E+01 0.  1.
         11    1    6    6    0    0  0.16926327084E+02  0.17687190861E+02  0.86694462551E+01  0.25971071743E+02  0.00000000000E+00 0. -1.
        -12    1    6    6    0    0 -0.12168907529E+02  0.18281993168E+02  0.19686939478E+03  0.19809056562E+03  0.00000000000E+00 0.  1.
</event>
<event>
12    1  0.8562501E-002  0.2626411E+03  0.7818608E-02  0.1105576E+00
         21   -1    0    0  501  502  0.00000000000E+00  0.00000000000E+00  0.22849741718E+03  0.22849741718E+03  0.00000000000E+00 0. -1.
         21   -1    0    0  502  503 -0.00000000000E+00 -0.00000000000E+00 -0.33468302714E+03  0.33468302714E+03  0.00000000000E+00 0.  1.
         -6    2    1    2    0  503  0.19747228801E+03 -0.19385331747E+02  0.35161288930E+02  0.26492001409E+03  0.17197442254E+03 0.  0.
        -24    2    3    3    0    0  0.18745509559E+03  0.31222745567E+02  0.48024344962E+02  0.21154333526E+03  0.79561122901E+02 0.  0.
          6    2    1    2  501    0 -0.19747228801E+03  0.19385331747E+02 -0.14134689889E+03  0.29826043022E+03  0.17207336456E+03 0.  0.
         24    2    5    5    0    0 -0.17681110304E+03  0.18388450595E+02 -0.17278845270E+03  0.26033234508E+03  0.79478168292E+02 0.  0.
          5    1    5    5  501    0 -0.20661184973E+02  0.99688115115E+00  0.31441553809E+02  0.37928085141E+02  0.47000000000E+01 0. -1.
        -13    1    6    6    0    0 -0.10863197094E+03  0.35421276944E+02 -0.14536617967E+03  0.18489699338E+03  0.00000000000E+00 0.  1.
         14    1    6    6    0    0 -0.68179132104E+02 -0.17032826349E+02 -0.27422273032E+02  0.75435351700E+02  0.00000000000E+00 0. -1.
         -5    1    3    3    0  503  0.10017192421E+02 -0.50608077314E+02 -0.12863056032E+02  0.53376678839E+02  0.47000000000E+01 0.  1.
         13    1    4    4    0    0  0.10693814101E+03 -0.16232360957E+02  0.47366923611E+02  0.11807997712E+03  0.00000000000E+00 0. -1.
        -14    1    4    4    0    0  0.80516954581E+02  0.47455106524E+02  0.65742135076E+00  0.93463358131E+02  0.00000000000E+00 0.  1.
</event>
<event>
12    1  0.8562501E-002  0.1807568E+03  0.7818608E-02  0.1168530E+00
         21   -1    0    0  501  502  0.00000000000E+00  0.00000000000E+00  0.23008340146E+02  0.23008340146E+02  0.00000000000E+00 0. -1.
         21   -1    0    0  502  503 -0.00000000000E+00 -0.00000000000E+00 -0.16180206889E+04  0.16180206889E+04  0.00000000000E+00 0. -1.
         -6    2    1    2    0  503 -0.16288187016E+02  0.70243146020E+01 -0.11049806426E+04  0.11187225148E+04  0.17390571761E+03 0.  0.
        -24    2    3    3    0    0 -0.30885822993E+02  0.69102932993E+02 -0.75869641412E+03  0.76658375988E+03  0.79380493218E+02 0.  0.
          6    2    1    2  501    0  0.16288187016E+02 -0.70243146020E+01 -0.49003170619E+03  0.52230651426E+03  0.17988433988E+03 0.  0.
         24    2    5    5    0    0 -0.24610335174E+02  0.59999115611E+02 -0.25164124907E+03  0.27127478447E+03  0.77853246462E+02 0.  0.
          5    1    5    5  501    0  0.40898522190E+02 -0.67023430213E+02 -0.23839045712E+03  0.25103172979E+03  0.47000000000E+01 0. -1.
        -11    1    6    6    0    0  0.15988507661E+02  0.52524670575E+02 -0.18414112471E+03  0.19215209394E+03  0.00000000000E+00 0.  1.
         12    1    6    6    0    0 -0.40598842836E+02  0.74744450368E+01 -0.67500124363E+02  0.79122690533E+02  0.00000000000E+00 0. -1.
         -5    1    3    3    0  503  0.14597635978E+02 -0.62078618391E+02 -0.34628422844E+03  0.35213875490E+03  0.47000000000E+01 0.  1.
         13    1    4    4    0    0 -0.93927131703E+01  0.24300849223E+02 -0.59359982409E+03  0.59417127623E+03  0.00000000000E+00 0. -1.
        -14    1    4    4    0    0 -0.21493109823E+02  0.44802083770E+02 -0.16509659003E+03  0.17241248366E+03  0.00000000000E+00 0.  1.
</event>
<event>
12    1  0.8562501E-002  0.2221457E+03  0.7818608E-02  0.1132499E+00
         21   -1    0    0  501  502  0.00000000000E+00  0.00000000000E+00  0.45760856907E+03  0.45760856907E+03  0.00000000000E+00 0.  1.
         21   -1    0    0  502  503 -0.00000000000E+00 -0.00000000000E+00 -0.10774853674E+03  0.10774853674E+03  0.00000000000E+00 0.  1.
         -6    2    1    2    0  503  0.84147287863E+02  0.11202190079E+03  0.19270339216E+03  0.29324143934E+03  0.17095693049E+03 0.  0.
        -24    2    3    3    0    0  0.10354932116E+03  0.12480022386E+03  0.11982378674E+03  0.21660429871E+03  0.79133586820E+02 0.  0.
          6    2    1    2  501    0 -0.84147287863E+02 -0.11202190079E+03  0.15715664017E+03  0.27211566647E+03  0.17239215203E+03 0.  0.
         24    2    5    5    0    0 -0.97808094797E+02 -0.10968549317E+03  0.65623770111E+02  0.17942029039E+03  0.79295842133E+02 0.  0.
          5    1    5    5  501    0  0.13660806934E+02 -0.23364076139E+01  0.91532870056E+02  0.92695376084E+02  0.47000000000E+01 0. -1.
        -11    1    6    6    0    0 -0.10513398841E+03 -0.69380290124E+02  0.51568959813E+02  0.13611075561E+03  0.00000000000E+00 0.  1.
         12    1    6    6    0    0  0.73258936161E+01 -0.40305203048E+02  0.14054810298E+02  0.43309534776E+02  0.00000000000E+00 0. -1.
         -5    1    3    3    0  503 -0.19402033300E+02 -0.12778323075E+02  0.72879605423E+02  0.76637140626E+02  0.47000000000E+01 0.  1.
         13    1    4    4    0    0  0.51642095975E+02  0.10863096113E+03  0.55750526720E+02  0.13257342502E+03  0.00000000000E+00 0. -1.
        -14    1    4    4    0    0  0.51907225188E+02  0.16169262735E+02  0.64073260018E+02  0.84030873692E+02  0.00000000000E+00 0.  1.
</event>
<event>
12    1  0.8562501E-002  0.2575245E+03  0.7818608E-02  0.1108965E+00
         21   -1    0    0  501  502  0.00000000000E+00  0.00000000000E+00  0.38848406563E+03  0.38848406563E+03  0.00000000000E+00 0. -1.
         21   -1    0    0  502  503 -0.00000000000E+00 -0.00000000000E+00 -0.32131475269E+03  0.32131475269E+03  0.00000000000E+00 0.  1.
         -6    2    1    2    0  503  0.14248998519E+03 -0.12584108731E+03 -0.21059493482E+03  0.33102200953E+03  0.17054609080E+03 0.  0.
        -24    2    3    3    0    0  0.16596278557E+03 -0.13070419651E+03 -0.16504219522E+03  0.27933289779E+03  0.78490180314E+02 0.  0.
          6    2    1    2  501    0 -0.14248998519E+03  0.12584108731E+03  0.27776424775E+03  0.37877680878E+03  0.17372253282E+03 0.  0.
         24    2    5    5    0    0 -0.12331356660E+03  0.59824509904E+02  0.26512516930E+03  0.30872140338E+03  0.78945182341E+02 0.  0.
          5    1    5    5  501    0 -0.19176418598E+02  0.66016577405E+02  0.12639078450E+02  0.70055405406E+02  0.47000000000E+01 0. -1.
        -11    1    6    6    0    0 -0.54622052490E+02 -0.14928737642E+02  0.97447014619E+02  0.11270473142E+03  0.00000000000E+00 0.  1.
         12    1    6    6    0    0 -0.68691514106E+02  0.74753247546E+02  0.16767815468E+03  0.19601667196E+03  0.00000000000E+00 0. -1.
         -5    1    3    3    0  503 -0.23472800372E+02  0.48631091977E+01 -0.45552739592E+02  0.51689111743E+02  0.47000000000E+01 0.  1.
         13    1    4    4    0    0  0.72713393639E+02 -0.38238229930E+02 -0.21787325773E+02  0.84994631637E+02  0.00000000000E+00 0. -1.
        -14    1    4    4    0    0  0.93249391928E+02 -0.92465966576E+02 -0.14325486945E+03  0.19433826615E+03  0.00000000000E+00 0.  1.
</event>
<event>
12    1  0.8562501E-002  0.2047064E+03  0.7818608E-02  0.1145880E+00
         21   -1    0    0  503  502  0.00000000000E+00  0.00000000000E+00  0.47649868941E+03  0.47649868941E+03  0.00000000000E+00 0. -1.
         21   -1    0    0  501  503 -0.00000000000E+00 -0.00000000000E+00 -0.33993369280E+03  0.33993369280E+03  0.00000000000E+00 0. -1.
          6    2    1    2  501    0  0.97509964144E+01  0.11192528638E+03 -0.28327298963E+03  0.34934712766E+03  0.17081416010E+03 0.  0.
         24    2    3    3    0    0  0.60902656993E+01  0.52580775318E+01 -0.56632674259E+02  0.98789316084E+02  0.80543966024E+02 0.  0.
         -6    2    1    2    0  502 -0.97509964144E+01 -0.11192528638E+03  0.41983798623E+03  0.46708525455E+03  0.17112085984E+03 0.  0.
        -24    2    5    5    0    0 -0.72723162229E+02 -0.57832474741E+02  0.26805924921E+03  0.29402341315E+03  0.77205912546E+02 0.  0.
          5    1    3    3  501    0  0.36607307151E+01  0.10666720885E+03 -0.22664031537E+03  0.25055781158E+03  0.47000000000E+01 0. -1.
        -11    1    4    4    0    0  0.26013452876E+02  0.16529842403E+02  0.66183312369E+01  0.31523605897E+02  0.00000000000E+00 0.  1.
         12    1    4    4    0    0 -0.19923187177E+02 -0.11271764872E+02 -0.63251005496E+02  0.67265710186E+02  0.00000000000E+00 0. -1.
         -5    1    5    5    0  502  0.62972165815E+02 -0.54092811637E+02  0.15177873702E+03  0.17306184140E+03  0.47000000000E+01 0.  1.
         13    1    6    6    0    0 -0.74266254056E+02 -0.25191841933E+02  0.12726940502E+03  0.14949115975E+03  0.00000000000E+00 0. -1.
        -14    1    6    6    0    0  0.15430918268E+01 -0.32640632808E+02  0.14078984420E+03  0.14453225339E+03  0.00000000000E+00 0.  1.
</event>
<event>
12    1  0.8562501E-002  0.2231507E+03  0.7818608E-02  0.1131799E+00
         21   -1    0    0  503  502  0.00000000000E+00  0.00000000000E+00  0.81443922503E+03  0.81443922503E+03  0.00000000000E+00 0.  1.
         21   -1    0    0  501  503 -0.00000000000E+00 -0.00000000000E+00 -0.63304303001E+02  0.63304303001E+02  0.00000000000E+00 0.  1.
          6    2    1    2  501    0  0.13944174454E+03  0.22845774304E+02  0.28685500390E+03  0.36262018569E+03  0.17100197742E+03 0.  0.
         24    2    3    3    0    0  0.88873555843E+02 -0.47197160280E+02  0.12436355120E+03  0.17853130337E+03  0.79253091735E+02 0.  0.
         -6    2    1    2    0  502 -0.13944174454E+03 -0.22845774304E+02  0.46427991813E+03  0.51512334234E+03  0.17271446356E+03 0.  0.
        -24    2    5    5    0    0 -0.92994594063E+02 -0.25044860077E+02  0.13875139253E+03  0.18625697929E+03  0.78514163464E+02 0.  0.
          5    1    3    3  501    0  0.50568188699E+02  0.70042934584E+02  0.16249145270E+03  0.18408888232E+03  0.47000000000E+01 0. -1.
        -13    1    4    4    0    0 -0.11458430762E+02 -0.11104452110E+02  0.17679050267E+01  0.16053970860E+02  0.00000000000E+00 0.  1.
         14    1    4    4    0    0  0.10033198661E+03 -0.36092708170E+02  0.12259564618E+03  0.16247733251E+03  0.00000000000E+00 0. -1.
         -5    1    5    5    0  502 -0.46447150480E+02  0.21990857735E+01  0.32552852560E+03  0.32886636305E+03  0.47000000000E+01 0.  1.
         11    1    6    6    0    0 -0.15678340896E+02 -0.41960777436E+02  0.56638076067E+02  0.72210725498E+02  0.00000000000E+00 0. -1.
        -12    1    6    6    0    0 -0.77316253167E+02  0.16915917359E+02  0.82113316461E+02  0.11404625379E+03  0.00000000000E+00 0.  1.
</event>
<event>
12    1  0.8562501E-002  0.2179350E+03  0.7818608E-02  0.1135678E+00
         21   -1    0    0  501  502  0.00000000000E+00  0.00000000000E+00  0.85449420480E+03  0.85449420480E+03  0.00000000000E+00 0.  1.
         21   -1    0    0  502  503 -0.00000000000E+00 -0.00000000000E+00 -0.77221028475E+02  0.77221028475E+02  0.00000000000E+00 0.  1.
         -6    2    1    2    0  503  0.13331075827E+03 -0.11453760693E+02  0.63794900788E+03  0.67414732592E+03  0.17202538615E+03 0.  0.
        -24    2    3    3    0    0  0.34227609112E+02 -0.19093119172E+02  0.14062345443E+03  0.16696823885E+03  0.81039252356E+02 0.  0.
          6    2    1    2  501    0 -0.13331075827E+03  0.11453760693E+02  0.13932416844E+03  0.25756790735E+03  0.17037328454E+03 0.  0.
         24    2    5    5    0    0 -0.12164357917E+03  0.56790696099E+02  0.14195933673E+03  0.21044471888E+03  0.78180450884E+02 0.  0.
          5    1    5    5  501    0 -0.11667179096E+02 -0.45336935406E+02 -0.26351682974E+01  0.47123188475E+02  0.47000000000E+01 0. -1.
        -11    1    6    6    0    0 -0.75181955125E+02  0.82289805476E+01  0.33204400058E+02  0.82598878203E+02  0.00000000000E+00 0.  1.
         12    1    6    6    0    0 -0.46461624048E+02  0.48561715551E+02  0.10875493668E+03  0.12784584067E+03  0.00000000000E+00 0. -1.
         -5    1    3    3    0  503  0.99083149156E+02  0.76393584795E+01  0.49732555345E+03  0.50717908707E+03  0.47000000000E+01 0.  1.
         11    1    4    4    0    0  0.21656174288E+02  0.18527445795E+02  0.96018741114E+01  0.30074110443E+02  0.00000000000E+00 0. -1.
        -12    1    4    4    0    0  0.12571434824E+02 -0.37620564968E+02  0.13102158032E+03  0.13689412840E+03  0.00000000000E+00 0.  1.
</event>
<event>
12    1  0.8562501E-002  0.2018216E+03  0.7818608E-02  0.1148480E+00
         21   -1    0    0  501  502  0.00000000000E+00  0.00000000000E+00  0.15547784581E+04  0.15547784581E+04  0.00000000000E+00 0. -1.
         21   -1    0    0  502  503 -0.00000000000E+00 -0.00000000000E+00 -0.33941711478E+02  0.33941711478E+02  0.00000000000E+00 0.  1.
         -6    2    1    2    0  503  0.12977017048E+02 -0.10201349259E+03  0.11420405820E+04  0.11595133719E+04  0.17216100896E+03 0.  0.
        -24    2    3    3    0    0  0.18792252577E+02 -0.91506653942E+02  0.42586783768E+03  0.44322453327E+03  0.79736787292E+02 0.  0.
          6    2    1    2  501    0 -0.12977017048E+02  0.10201349259E+03  0.37879616461E+03  0.42920679768E+03  0.17365709087E+03 0.  0.
         24    2    5    5    0    0  0.59256219674E+01  0.13677478877E+03  0.26491209717E+03  0.30855304394E+03  0.79272352422E+02 0.  0.
          5    1    5    5  501    0 -0.18902639015E+02 -0.34761296190E+02  0.11388406744E+03  0.12065375374E+03  0.47000000000E+01 0. -1.
        -13    1    6    6    0    0 -0.16496542455E+02  0.72262068657E+01  0.75005465009E+01  0.19509284366E+02  0.00000000000E+00 0.  1.
         14    1    6    6    0    0  0.22422164423E+02  0.12954858191E+03  0.25741155067E+03  0.28904375957E+03  0.00000000000E+00 0. -1.
         -5    1    3    3    0  503 -0.58152355293E+01 -0.10506838643E+02  0.71617274428E+03  0.71628883858E+03  0.47000000000E+01 0.  1.
         11    1    4    4    0    0  0.35838840499E+02 -0.79227242410E+02  0.22431471257E+03  0.24057944364E+03  0.00000000000E+00 0. -1.
        -12    1    4    4    0    0 -0.17046587922E+02 -0.12279411532E+02  0.20155312511E+03  0.20264508963E+03  0.00000000000E+00 0.  1.
</event>
<event>
12    1  0.8562501E-002  0.1871095E+03  0.7818608E-02  0.1162157E+00
         21   -1    0    0  501  502  0.00000000000E+00  0.00000000000E+00  0.14364353539E+03  0.14364353539E+03  0.00000000000E+00 0. -1.
         21   -1    0    0  502  503 -0.00000000000E+00 -0.00000000000E+00 -0.37419258561E+03  0.37419258561E+03  0.00000000000E+00 0. -1.
         -6    2    1    2    0  503 -0.11551087946E+02 -0.61407892052E+02 -0.27247420674E+03  0.33053316024E+03  0.17636785375E+03 0.  0.
        -24    2    3    3    0    0 -0.33756620046E+02  0.14200823268E+02 -0.68722400400E+02  0.11202308707E+03  0.80530931581E+02 0.  0.
          6    2    1    2  501    0  0.11551087946E+02  0.61407892052E+02  0.41925156516E+02  0.18730296077E+03  0.17152353636E+03 0.  0.
         24    2    5    5    0    0  0.15129224066E+02  0.85734048585E+02  0.79535177473E+02  0.14212366655E+03  0.79335185318E+02 0.  0.
          5    1    5    5  501    0 -0.35781361198E+01 -0.24326156533E+02 -0.37610020958E+02  0.45179294219E+02  0.47000000000E+01 0. -1.
        -11    1    6    6    0    0 -0.28532031415E+02  0.43688484522E+02  0.16627778355E+02  0.54765349534E+02  0.00000000000E+00 0.  1.
         12    1    6    6    0    0  0.43661255481E+02  0.42045564063E+02  0.62907399118E+02  0.87358317013E+02  0.00000000000E+00 0. -1.
         -5    1    3    3    0  503  0.22205532099E+02 -0.75608715320E+02 -0.20375180634E+03  0.21851007317E+03  0.47000000000E+01 0.  1.
         11    1    4    4    0    0 -0.44410902076E+02  0.26458583799E+02 -0.77806473563E+02  0.93414304088E+02  0.00000000000E+00 0. -1.
        -12    1    4    4    0    0  0.10654282030E+02 -0.12257760532E+02  0.90840731631E+01  0.18608782982E+02  0.00000000000E+00 0.  1.
</event>
<event>
12    1  0.8562501E-002  0.1937969E+03  0.7818608E-02  0.1155282E+00
         21   -1    0    0  503  502  0.00000000000E+00  0.00000000000E+00  0.78025082012E+03  0.78025082012E+03  0.00000000000E+00 0.  1.
         21   -1    0    0  501  503 -0.00000000000E+00 -0.00000000000E+00 -0.55468836949E+02  0.55468836949E+02  0.00000000000E+00 0.  1.
          6    2    1    2  501    0  0.74308226755E+02  0.48681776406E+02  0.20885855987E+03  0.28491953606E+03  0.17223709263E+03 0.  0.
         24    2    3    3    0    0  0.44537585149E+02  0.98436401152E+02  0.15276663165E+03  0.20410983245E+03  0.81546663914E+02 0.  0.
         -6    2    1    2    0  502 -0.74308226755E+02 -0.48681776406E+02  0.51592342330E+03  0.55080012102E+03  0.17120796325E+03 0.  0.
        -24    2    5    5    0    0 -0.54724900712E+02  0.62866959954E+01  0.45966822361E+03  0.46961036113E+03  0.78769779629E+02 0.  0.
          5    1    3    3  501    0  0.29770641606E+02 -0.49754624745E+02  0.56091928221E+02  0.80809703605E+02  0.47000000000E+01 0. -1.
        -11    1    4    4    0    0  0.27593478383E+02  0.14741580995E+02  0.97492234493E+02  0.10238872031E+03  0.00000000000E+00 0.  1.
         12    1    4    4    0    0  0.16944106766E+02  0.83694820157E+02  0.55274397156E+02  0.10172111215E+03  0.00000000000E+00 0. -1.
         -5    1    5    5    0  502 -0.19583326043E+02 -0.54968472402E+02  0.56255199695E+02  0.81189759883E+02  0.47000000000E+01 0.  1.
         13    1    6    6    0    0  0.59316575200E+01  0.18569909067E+02  0.31874245834E+02  0.37362998156E+02  0.00000000000E+00 0. -1.
        -14    1    6    6    0    0 -0.60656558232E+02 -0.12283213072E+02  0.42779397778E+03  0.43224736298E+03  0.00000000000E+00 0.  1.
</event>
<event>
12    1  0.8562501E-002  0.1883581E+03  0.7818608E-02  0.1160090E+00
         21   -1    0    0  501  502  0.00000000000E+00  0.00000000000E+00  0.43853457584E+02  0.43853457584E+02  0.00000000000E+00 0.  1.
         21   -1    0    0  502  503 -0.00000000000E+00 -0.00000000000E+00 -0.13801417356E+04  0.13801417356E+04  0.00000000000E+00 0.  1.
         -6    2    1    2    0  503 -0.63321992714E+02  0.44551548546E+02 -0.11278342028E+04  0.11434547449E+04  0.17170978216E+03 0.  0.
        -24    2    3    3    0    0 -0.20911699606E+02 -0.39155621114E+02 -0.46496578850E+03  0.47396079575E+03  0.80468562723E+02 0.  0.
          6    2    1    2  501    0  0.63321992714E+02 -0.44551548546E+02 -0.20845407517E+03  0.28054044828E+03  0.17104188501E+03 0.  0.
         24    2    5    5    0    0 -0.22799739076E+02 -0.27619034875E+02 -0.50883042435E+02  0.10011211608E+03  0.78426478872E+02 0.  0.
          5    1    5    5  501    0  0.86121731790E+02 -0.16932513671E+02 -0.15757103273E+03  0.18042833220E+03  0.47000000000E+01 0. -1.
        -11    1    6    6    0    0 -0.24758859303E+01  0.16791720870E+02 -0.48309025297E+02  0.51204041110E+02  0.00000000000E+00 0.  1.
         12    1    6    6    0    0 -0.20323853146E+02 -0.44410755745E+02 -0.25740171382E+01  0.48908074965E+02  0.00000000000E+00 0. -1.
         -5    1    3    3    0  503 -0.42410293108E+02  0.83707169660E+02 -0.66286841432E+03  0.66949394913E+03  0.47000000000E+01 0.  1.
         11    1    4    4    0    0 -0.32647549180E+02  0.14400430947E+02 -0.14461158627E+03  0.14894880249E+03  0.00000000000E+00 0. -1.
        -12    1    4    4    0    0  0.11735849574E+02 -0.53556052062E+02 -0.32035420223E+03  0.32501199326E+03  0.00000000000E+00 0.  1.
</event>
<event>
12    1  0.8562501E-002  0.1812367E+03  0.7818608E-02  0.1167786E+00
         21   -1    0    0  501  502  0.00000000000E+00  0.00000000000E+00  0.48691254226E+03  0.48691254226E+03  0.00000000000E+00 0.  1.
         21   -1    0    0  502  503 -0.00000000000E+00 -0.00000000000E+00 -0.23682673402E+03  0.23682673402E+03  0.00000000000E+00 0.  1.
         -6    2    1    2    0  503  0.19428333620E+01 -0.35021840999E+02 -0.18211109580E+03  0.25692645023E+03  0.17781013938E+03 0.  0.
        -24    2    3    3    0    0 -0.17140908175E+01 -0.36409930790E+02 -0.12454394611E+02  0.87159592023E+02  0.78186068894E+02 0.  0.
          6    2    1    2  501    0 -0.19428333620E+01  0.35021840999E+02  0.43219690404E+03  0.46681282605E+03  0.17288651409E+03 0.  0.
         24    2    5    5    0    0 -0.41682858261E+02  0.58329085899E+02  0.17347562578E+03  0.20397963357E+03  0.79838306827E+02 0.  0.
          5    1    5    5  501    0  0.39740024899E+02 -0.23307244900E+02  0.25872127826E+03  0.26283319248E+03  0.47000000000E+01 0. -1.
        -13    1    6    6    0    0 -0.58488951858E+02  0.20779128260E+02  0.13037654564E+03  0.14439796853E+03  0.00000000000E+00 0.  1.
         14    1    6    6    0    0  0.16806093597E+02  0.37549957639E+02  0.43099080136E+02  0.59581665042E+02  0.00000000000E+00 0. -1.
         -5    1    3    3    0  503  0.36569241795E+01  0.13880897912E+01 -0.16965670119E+03  0.16976685821E+03  0.47000000000E+01 0.  1.
         11    1    4    4    0    0  0.35415631096E+02 -0.86263714115E+01  0.65639044790E+01  0.37037360215E+02  0.00000000000E+00 0. -1.
        -12    1    4    4    0    0 -0.37129721914E+02 -0.27783559378E+02 -0.19018299090E+02  0.50122231808E+02  0.00000000000E+00 0.  1.
</event>
<event>
12    1  0.8562501E-002  0.1806307E+03  0.7818608E-02  0.1167826E+00
         21   -1    0    0  501  502  0.00000000000E+00  0.00000000000E+00  0.29508623805E+03  0.29508623805E+03  0.00000000000E+00 0. -1.
         21   -1    0    0  502  503 -0.00000000000E+00 -0.00000000000E+00 -0.13229201927E+03  0.13229201927E+03  0.00000000000E+00 0. -1.
         -6    2    1    2    0  503  0.23521820743E+02  0.35986263709E+02  0.17060941950E+03  0.24657858199E+03  0.17275744802E+03 0.  0.
        -24    2    3    3    0    0  0.44315813605E+02  0.41207458930E+02  0.31941048635E+02  0.10618393075E+03  0.81196370326E+02 0.  0.
          6    2    1    2  501    0 -0.23521820743E+02 -0.35986263709E+02 -0.78152007206E+01  0.18079967533E+03  0.17543989857E+03 0.  0.
         24    2    5    5    0    0 -0.68672846946E+02 -0.57070824860E+02  0.21357933722E+02  0.12286578491E+03  0.81650479544E+02 0.  0.
          5    1    5    5  501    0  0.45151026203E+02  0.21084561150E+02 -0.29173134442E+02  0.57933890420E+02  0.47000000000E+01 0. -1.
        -11    1    6    6    0    0 -0.39731882887E+02 -0.48228582832E+01 -0.25059874063E+02  0.47221602766E+02  0.00000000000E+00 0.  1.
         12    1    6    6    0    0 -0.28940964059E+02 -0.52247966576E+02  0.46417807784E+02  0.75644182139E+02  0.00000000000E+00 0. -1.
         -5    1    3    3    0  503 -0.20793992862E+02 -0.52211952208E+01  0.13866837087E+03  0.14039465124E+03  0.47000000000E+01 0.  1.
         11    1    4    4    0    0 -0.78062864787E+01  0.16971130808E+02  0.43688259541E+02  0.47514433714E+02  0.00000000000E+00 0. -1.
        -12    1    4    4    0    0  0.52122100084E+02  0.24236328122E+02 -0.11747210906E+02  0.58669497033E+02  0.00000000000E+00 0.  1.
</event>
<event>
12    1  0.8562501E-002  0.2360650E+03  0.7818608E-02  0.1125593E+00
         21   -1    0    0  501  502  0.00000000000E+00  0.00000000000E+00  0.33019981287E+03  0.33019981287E+03  0.00000000000E+00 0. -1.
         21   -1    0    0  502  503 -0.00000000000E+00 -0.00000000000E+00 -0.20452973661E+03  0.20452973661E+03  0.00000000000E+00 0. -1.
         -6    2    1    2    0  503 -0.30160610462E+02  0.13128654822E+03 -0.65033537523E+02  0.24485921912E+03  0.19385782423E+03 0.  0.
        -24    2    3    3    0    0 -0.92660671012E+02  0.44222440974E+02 -0.17687437545E+02  0.12759814492E+03  0.73666932209E+02 0.  0.
          6    2    1    2  501    0  0.30160610462E+02 -0.13128654822E+03  0.19070361379E+03  0.28987033036E+03  0.17178800872E+03 0.  0.
         24    2    5    5    0    0 -0.13382350788E+02 -0.80739596774E+02  0.34557051846E+02  0.12000325709E+03  0.80676031627E+02 0.  0.
          5    1    5    5  501    0  0.43542961250E+02 -0.50546951451E+02  0.15614656194E+03  0.16986707327E+03  0.47000000000E+01 0. -1.
        -13    1    6    6    0    0  0.17283986046E+02 -0.78441908722E+02  0.10598520638E+02  0.81019737455E+02  0.00000000000E+00 0.  1.
         14    1    6    6    0    0 -0.30666336834E+02 -0.22976880520E+01  0.23958531208E+02  0.38983519631E+02  0.00000000000E+00 0. -1.
         -5    1    3    3    0  503  0.62500060550E+02  0.87064107251E+02 -0.47346099978E+02  0.11726107420E+03  0.47000000000E+01 0.  1.
         13    1    4    4    0    0  0.38571354898E+01  0.22438164123E+02 -0.17395172200E+02  0.28652063089E+02  0.00000000000E+00 0. -1.
        -14    1    4    4    0    0 -0.96517806502E+02  0.21784276851E+02 -0.29226534472E+00  0.98946081827E+02  0.00000000000E+00 0.  1.
</event>
<event>
12    1  0.8562501E-002  0.1896269E+03  0.7818608E-02  0.1158997E+00
         21   -1    0    0  503  502  0.00000000000E+00  0.00000000000E+00  0.49983112069E+03  0.49983112069E+03  0.00000000000E+00 0.  1.
         21   -1    0    0  501  503 -0.00000000000E+00 -0.00000000000E+00 -0.17242278360E+03  0.17242278360E+03  0.00000000000E+00 0.  1.
          6    2    1    2  501    0  0.51855153505E+02 -0.58047289245E+02 -0.93472464979E+02  0.21062742516E+03  0.17195454570E+03 0.  0.
         24    2    3    3    0    0 -0.28884287775E+02 -0.62434737238E+02 -0.36158894863E+02  0.11140523814E+03  0.79820191132E+02 0.  0.
         -6    2    1    2    0  502 -0.51855153505E+02  0.58047289245E+02  0.42088080206E+03  0.46162647913E+03  0.17291591008E+03 0.  0.
        -24    2    5    5    0    0  0.24359469709E+00  0.24054531748E-01  0.33929633018E+03  0.34867033108E+03  0.80305293619E+02 0.  0.
          5    1    3    3  501    0  0.80739441281E+02  0.43874479932E+01 -0.57313570117E+02  0.99222187024E+02  0.47000000000E+01 0. -1.
        -13    1    4    4    0    0 -0.52016037885E+01 -0.16715921469E+02  0.25590581965E+02  0.31005751045E+02  0.00000000000E+00 0.  1.
         14    1    4    4    0    0 -0.23682683987E+02 -0.45718815769E+02 -0.61749476828E+02  0.80399487092E+02  0.00000000000E+00 0. -1.
         -5    1    5    5    0  502 -0.52098748203E+02  0.58023234713E+02  0.81584471882E+02  0.11295614805E+03  0.47000000000E+01 0.  1.
         11    1    6    6    0    0  0.22532186452E+02  0.46572118493E+01  0.31318325361E+03  0.31402729084E+03  0.00000000000E+00 0. -1.
        -12    1    6    6    0    0 -0.22288591755E+02 -0.46331573175E+01  0.26113076568E+02  0.34643040239E+02  0.00000000000E+00 0.  1.
</event>
<event>
12    1  0.8562501E-002  0.2358309E+03  0.7818608E-02  0.1122968E+00
         21   -1    0    0  503  502  0.00000000000E+00  0.00000000000E+00  0.14103208932E+03  0.14103208932E+03  0.00000000000E+00 0.  1.
         21   -1    0    0  501  503 -0.00000000000E+00 -0.00000000000E+00 -0.45443911042E+03  0.45443911042E+03  0.00000000000E+00 0. -1.
          6    2    1    2  501    0 -0.24886236408E+02  0.15962675635E+03 -0.26751926518E+03  0.35521737456E+03  0.16885733577E+03 0.  0.
         24    2    3    3    0    0  0.43355102010E+02  0.99026002340E+02 -0.10675143962E+03  0.17029113145E+03  0.76924544717E+02 0.  0.
         -6    2    1    2    0  502  0.24886236408E+02 -0.15962675635E+03 -0.45887755916E+02  0.24025382517E+03  0.17180275976E+03 0.  0.
        -24    2    5    5    0    0 -0.30790135625E+02 -0.12344599001E+03  0.88346972770E+01  0.15408223392E+03  0.86465820021E+02 0.  0.
          5    1    3    3  501    0 -0.68241338418E+02  0.60600754007E+02 -0.16076782556E+03  0.18492624311E+03  0.47000000000E+01 0. -1.
        -13    1    4    4    0    0  0.13234684157E+02  0.92580047853E+02 -0.50816098878E+02  0.10643541718E+03  0.00000000000E+00 0.  1.
         14    1    4    4    0    0  0.30120417852E+02  0.64459544864E+01 -0.55935340744E+02  0.63855714271E+02  0.00000000000E+00 0. -1.
         -5    1    5    5    0  502  0.55676372033E+02 -0.36180766332E+02 -0.54722453193E+02  0.86171591251E+02  0.47000000000E+01 0.  1.
         11    1    6    6    0    0 -0.52796558414E+02 -0.43716824281E+02  0.17986068947E+02  0.70867030287E+02  0.00000000000E+00 0. -1.
        -12    1    6    6    0    0  0.22006422789E+02 -0.79729165734E+02 -0.91513716703E+01  0.83215203635E+02  0.00000000000E+00 0.  1.
</event>
<event>
12    1  0.8562501E-002  0.1978238E+03  0.7818608E-02  0.1152074E+00
         21   -1    0    0  503  502  0.00000000000E+00  0.00000000000E+00  0.15869357423E+04  0.15869357423E+04  0.00000000000E+00 0. -1.
         21   -1    0    0  501  503 -0.00000000000E+00 -0.00000000000E+00 -0.26253400068E+02  0.26253400068E+02  0.00000000000E+00 0.  1.
          6    2    1    2  501    0  0.46433235680E+02  0.83165583962E+02  0.99167143651E+03  0.10107709471E+04  0.17080137535E+03 0.  0.
         24    2    3    3    0    0  0.48760329120E+02  0.35485312317E+02  0.27573135636E+03  0.29322574852E+03  0.79478183354E+02 0.  0.
         -6    2    1    2    0  502 -0.46433235680E+02 -0.83165583962E+02  0.56901090575E+03  0.60241819527E+03  0.17338313472E+03 0.  0.
        -24    2    5    5    0    0 -0.70163009507E+02 -0.54814146819E+02  0.21624581016E+03  0.24768983607E+03  0.81612290059E+02 0.  0.
          5    1    3    3  501    0 -0.23270934400E+01  0.47680271645E+02  0.71594008015E+03  0.71754519860E+03  0.47000000000E+01 0. -1.
        -11    1    4    4    0    0 -0.17261172901E+02  0.28512595664E+02  0.96515230214E+02  0.10210830458E+03  0.00000000000E+00 0.  1.
         12    1    4    4    0    0  0.66021502021E+02  0.69727166530E+01  0.17921612614E+03  0.19111744394E+03  0.00000000000E+00 0. -1.
         -5    1    5    5    0  502  0.23729773827E+02 -0.28351437143E+02  0.35276509559E+03  0.35472835920E+03  0.47000000000E+01 0.  1.
         11    1    6    6    0    0  0.11157038136E+02 -0.14595693431E+02  0.70652163271E+01  0.19683268236E+02  0.00000000000E+00 0. -1.
        -12    1    6    6    0    0 -0.81320047643E+02 -0.40218453388E+02  0.20918059383E+03  0.22800656784E+03  0.00000000000E+00 0.  1.
</event>
<event>
12    1  0.8562501E-002  0.1838225E+03  0.7818608E-02  0.1167796E+00
         21   -1    0    0  501  502  0.00000000000E+00  0.00000000000E+00  0.15763766965E+03  0.15763766965E+03  0.00000000000E+00 0.  1.
         21   -1    0    0  502  503 -0.00000000000E+00 -0.00000000000E+00 -0.19758254521E+03  0.19758254521E+03  0.00000000000E+00 0.  1.
         -6    2    1    2    0  503 -0.46860795118E+02  0.45636819524E+02 -0.25292091517E+02  0.18555427149E+03  0.17179069928E+03 0.  0.
        -24    2    3    3    0    0  0.20051926541E+02  0.71871743436E+02 -0.77714663970E+01  0.11142839303E+03  0.82390920743E+02 0.  0.
          6    2    1    2  501    0  0.46860795118E+02 -0.45636819524E+02 -0.14652784048E+02  0.16966594337E+03  0.15586267945E+03 0.  0.
         24    2    5    5    0    0  0.87897940496E+02 -0.36502949441E+02 -0.67329062976E+01  0.12662771215E+03  0.83251019181E+02 0.  0.
          5    1    5    5  501    0 -0.41037145379E+02 -0.91338700824E+01 -0.79198777508E+01  0.43038231226E+02  0.47000000000E+01 0. -1.
        -11    1    6    6    0    0  0.69104417293E+02  0.15774491879E+02 -0.28499510820E+01  0.70939250804E+02  0.00000000000E+00 0.  1.
         12    1    6    6    0    0  0.18793523203E+02 -0.52277441321E+02 -0.38829552157E+01  0.55688461342E+02  0.00000000000E+00 0. -1.
         -5    1    3    3    0  503 -0.66912721659E+02 -0.26234923912E+02 -0.17520625120E+02  0.74125878457E+02  0.47000000000E+01 0.  1.
         11    1    4    4    0    0  0.48122121493E+02  0.20543652672E+02  0.61961805439E+00  0.52327470497E+02  0.00000000000E+00 0. -1.
        -12    1    4    4    0    0 -0.28070194952E+02  0.51328090764E+02 -0.83910844514E+01  0.59100922534E+02  0.00000000000E+00 0.  1.
</event>
<event>
12    1  0.8562501E-002  0.2070605E+03  0.7818608E-02  0.1144515E+00
         21   -1    0    0  503  502  0.00000000000E+00  0.00000000000E+00  0.31429128350E+02  0.31429128350E+02  0.00000000000E+00 0. -1.
         21   -1    0    0  501  503 -0.00000000000E+00 -0.00000000000E+00 -0.14796325308E+04  0.14796325308E+04  0.00000000000E+00 0.  1.
          6    2    1    2  501    0  0.10463857476E+03  0.31387517152E+02 -0.95692804753E+03  0.97907370939E+03  0.17589665347E+03 0.  0.
         24    2    3    3    0    0 -0.14496498367E+02  0.37209150370E+02 -0.55011660193E+03  0.55511062216E+03  0.62648685361E+02 0.  0.
         -6    2    1    2    0  502 -0.10463857476E+03 -0.31387517152E+02 -0.49127535488E+03  0.53198794972E+03  0.17241025717E+03 0.  0.
        -24    2    5    5    0    0 -0.93668459522E+01  0.34831752700E+02 -0.23740801251E+03  0.25282417784E+03  0.79098114378E+02 0.  0.
          5    1    3    3  501    0  0.11913507312E+03 -0.58216332175E+01 -0.40681144560E+03  0.42396308723E+03  0.47000000000E+01 0. -1.
        -13    1    4    4    0    0 -0.19607983011E+02  0.14121792370E+02 -0.63850872215E+02  0.68270285631E+02  0.00000000000E+00 0.  1.
         14    1    4    4    0    0  0.51114846434E+01  0.23087358000E+02 -0.48626572972E+03  0.48684033653E+03  0.00000000000E+00 0. -1.
         -5    1    5    5    0  502 -0.95271728804E+02 -0.66219269852E+02 -0.25386734237E+03  0.27916377189E+03  0.47000000000E+01 0.  1.
         13    1    6    6    0    0 -0.29583402805E+02 -0.49988423472E+01 -0.37698064433E+02  0.48179977255E+02  0.00000000000E+00 0. -1.
        -14    1    6    6    0    0  0.20216556853E+02  0.39830595047E+02 -0.19970994807E+03  0.20464420058E+03  0.00000000000E+00 0.  1.
</event>
<event>
12    1  0.8562501E-002  0.1778731E+03  0.7818608E-02  0.1169975E+00
         21   -1    0    0  503  502  0.00000000000E+00  0.00000000000E+00  0.19579225697E+04  0.19579225697E+04  0.00000000000E+00 0.  1.
         21   -1    0    0  501  503 -0.00000000000E+00 -0.00000000000E+00 -0.19253612114E+02  0.19253612114E+02  0.00000000000E+00 0.  1.
          6    2    1    2  501    0  0.36428598849E+02  0.28263623899E+02  0.13688624799E+04  0.13803707161E+04  0.17179333415E+03 0.  0.
         24    2    3    3    0    0  0.67151263174E+02 -0.25554061690E+02  0.10482395104E+04  0.10537801406E+04  0.80524601472E+02 0.  0.
         -6    2    1    2    0  502 -0.36428598849E+02 -0.28263623899E+02  0.56980647767E+03  0.59680546573E+03  0.17138105693E+03 0.  0.
        -24    2    5    5    0    0 -0.59565694404E+01  0.70878589861E+01  0.52793520484E+03  0.53392808182E+03  0.79233184851E+02 0.  0.
          5    1    3    3  501    0 -0.30722664325E+02  0.53817685590E+02  0.32062296951E+03  0.32659057543E+03  0.47000000000E+01 0. -1.
        -13    1    4    4    0    0 -0.43011435498E+01  0.18350392085E+02  0.35266777891E+03  0.35317106196E+03  0.00000000000E+00 0.  1.
         14    1    4    4    0    0  0.71452406724E+02 -0.43904453776E+02  0.69557173149E+03  0.70060907869E+03  0.00000000000E+00 0. -1.
         -5    1    5    5    0  502 -0.30472029409E+02 -0.35351482885E+02  0.41871272828E+02  0.62877383905E+02  0.47000000000E+01 0.  1.
         13    1    6    6    0    0  0.91091523359E+01 -0.34197273467E+02  0.26346543438E+03  0.26583164838E+03  0.00000000000E+00 0. -1.
        -14    1    6    6    0    0 -0.15065721776E+02  0.41285132454E+02  0.26446977046E+03  0.26809643344E+03  0.00000000000E+00 0.  1.
</event>
<event>
12    1  0.8562501E-002  0.1963055E+03  0.7818608E-02  0.1153034E+00
         21   -1    0    0  503  502  0.00000000000E+00  0.00000000000E+00  0.16454523252E+03  0.16454523252E+03  0.00000000000E+00 0. -1.
         21   -1    0    0  501  503 -0.00000000000E+00 -0.00000000000E+00 -0.23766607116E+03  0.23766607116E+03  0.00000000000E+00 0.  1.
          6    2    1    2  501    0  0.12641190746E+01 -0.95219037476E+02 -0.63372082228E+02  0.20566393223E+03  0.17091918886E+03 0.  0.
         24    2    3    3    0    0 -0.18799470237E+01 -0.54000653139E+02 -0.10731417247E+03  0.14515081254E+03  0.81442139148E+02 0.  0.
         -6    2    1    2    0  502 -0.12641190746E+01  0.95219037476E+02 -0.97487564128E+01  0.19654737145E+03  0.17166120085E+03 0.  0.
        -24    2    5    5    0    0 -0.51129821736E+02  0.46055821373E+01 -0.63450699989E+01  0.92956533670E+02  0.77234624237E+02 0.  0.
          5    1    3    3  501    0  0.31440660983E+01 -0.41218384337E+02  0.43942090243E+02  0.60513119684E+02  0.47000000000E+01 0. -1.
        -11    1    4    4    0    0 -0.25118737071E+02  0.10769515739E+01 -0.70729185539E+02  0.75064828407E+02  0.00000000000E+00 0.  1.
         12    1    4    4    0    0  0.23238790048E+02 -0.55077604713E+02 -0.36584986932E+02  0.70085984138E+02  0.00000000000E+00 0. -1.
         -5    1    5    5    0  502  0.49865702661E+02  0.90613455338E+02 -0.34036864139E+01  0.10359083778E+03  0.47000000000E+01 0.  1.
         13    1    6    6    0    0 -0.46361511558E+02  0.10205483196E+02 -0.37781537695E+02  0.60671131783E+02  0.00000000000E+00 0. -1.
        -14    1    6    6    0    0 -0.47683101780E+01 -0.55999010584E+01  0.31436467696E+02  0.32285401887E+02  0.00000000000E+00 0.  1.
</event>
<event>
12    1  0.8562501E-002  0.1796694E+03  0.7818608E-02  0.1168616E+00
         21   -1    0    0  501  502  0.00000000000E+00  0.00000000000E+00  0.18725563349E+03  0.18725563349E+03  0.00000000000E+00 0.  1.
         21   -1    0    0  502  503 -0.00000000000E+00 -0.00000000000E+00 -0.20098858652E+03  0.20098858652E+03  0.00000000000E+00 0.  1.
         -6    2    1    2    0  503 -0.23863654198E+02 -0.70755791370E+01 -0.82491149451E+02  0.19586750649E+03  0.17589699415E+03 0.  0.
        -24    2    3    3    0    0 -0.77047491672E+02  0.39564601376E+01 -0.23874641340E+02  0.11581620118E+03  0.83014603578E+02 0.  0.
          6    2    1    2  501    0  0.23863654198E+02  0.70755791370E+01  0.68758196420E+02  0.19237671352E+03  0.17793699030E+03 0.  0.
         24    2    5    5    0    0  0.40837345530E+02  0.60487673094E+02  0.79771092387E+02  0.13506762300E+03  0.80953000046E+02 0.  0.
          5    1    5    5  501    0 -0.16973691332E+02 -0.53412093957E+02 -0.11012895967E+02  0.57309090517E+02  0.47000000000E+01 0. -1.
        -11    1    6    6    0    0 -0.19673833209E+01 -0.60645998625E+01  0.50184592245E+02  0.50587975522E+02  0.00000000000E+00 0.  1.
         12    1    6    6    0    0  0.42804728851E+02  0.66552272956E+02  0.29586500143E+02  0.84479647480E+02  0.00000000000E+00 0. -1.
         -5    1    3    3    0  503  0.53183837474E+02 -0.11032039275E+02 -0.58616508111E+02  0.80051305312E+02  0.47000000000E+01 0.  1.
         13    1    4    4    0    0 -0.21603728452E+02  0.13900153937E+01  0.30970650813E+02  0.37786696569E+02  0.00000000000E+00 0. -1.
        -14    1    4    4    0    0 -0.55443763220E+02  0.25664447439E+01 -0.54845292154E+02  0.78029504612E+02  0.00000000000E+00 0.  1.
</event>
<event>
12    1  0.8562501E-002  0.1976993E+03  0.7818608E-02  0.1151861E+00
         21   -1    0    0  503  502  0.00000000000E+00  0.00000000000E+00  0.17673644042E+04  0.17673644042E+04  0.00000000000E+00 0.  1.
         21   -1    0    0  501  503 -0.00000000000E+00 -0.00000000000E+00 -0.31472749758E+02  0.31472749758E+02  0.00000000000E+00 0. -1.
          6    2    1    2  501    0  0.72877473828E+02 -0.62579923875E+02  0.37643982576E+03  0.42519639251E+03  0.17279368252E+03 0.  0.
         24    2    3    3    0    0  0.50110399934E+02 -0.57188318173E+02  0.10709158377E+03  0.15479303726E+03  0.81918991402E+02 0.  0.
         -6    2    1    2    0  502 -0.72877473828E+02  0.62579923875E+02  0.13594518287E+04  0.13736407615E+04  0.17190780656E+03 0.  0.
        -24    2    5    5    0    0 -0.80264259536E+02  0.10185246511E+03  0.11693632982E+04  0.11793403844E+04  0.81344594891E+02 0.  0.
          5    1    3    3  501    0  0.22767073893E+02 -0.53916057021E+01  0.26934824199E+03  0.27040335525E+03  0.47000000000E+01 0. -1.
        -13    1    4    4    0    0  0.21765891748E+02 -0.69835811950E-02  0.84236529591E+02  0.87003143678E+02  0.00000000000E+00 0.  1.
         14    1    4    4    0    0  0.28344508187E+02 -0.57181334592E+02  0.22855054178E+02  0.67789893580E+02  0.00000000000E+00 0. -1.
         -5    1    5    5    0  502  0.73867857078E+01 -0.39272541232E+02  0.19008853048E+03  0.19430037704E+03  0.47000000000E+01 0.  1.
         13    1    6    6    0    0 -0.10968316521E+02 -0.12348090014E+02  0.71629682235E+02  0.73509119647E+02  0.00000000000E+00 0. -1.
        -14    1    6    6    0    0 -0.69295943015E+02  0.11420055512E+03  0.10977336160E+04  0.11058312648E+04  0.00000000000E+00 0.  1.
</event>
<event>
12    1  0.8562501E-002  0.2342414E+03  0.7818608E-02  0.1123905E+00
         21   -1    0    0  501  502  0.00000000000E+00  0.00000000000E+00  0.18829646495E+03  0.18829646495E+03  0.00000000000E+00 0. -1.
         21   -1    0    0  502  503 -0.00000000000E+00 -0.00000000000E+00 -0.30091303201E+03  0.30091303201E+03  0.00000000000E+00 0. -1.
         -6    2    1    2    0  503 -0.70276263216E+02 -0.13981775606E+03 -0.95396364130E+01  0.23443552508E+03  0.17430218780E+03 0.  0.
        -24    2    3    3    0    0 -0.86433230785E+02 -0.14614056255E+03 -0.46355964196E+02  0.19346532280E+03  0.80325514651E+02 0.  0.
          6    2    1    2  501    0  0.70276263216E+02  0.13981775606E+03 -0.10307693065E+03  0.25477397189E+03  0.17261855358E+03 0.  0.
         24    2    5    5    0    0  0.64692857934E+01  0.44835858677E+01 -0.16434702135E+02  0.81812606981E+02  0.79757438687E+02 0.  0.
          5    1    5    5  501    0  0.63806977422E+02  0.13533417020E+03 -0.86642228513E+02  0.17296136491E+03  0.47000000000E+01 0. -1.
        -11    1    6    6    0    0  0.34555154999E+02  0.15439051185E+02  0.12667117012E+02  0.39910886885E+02  0.00000000000E+00 0.  1.
         12    1    6    6    0    0 -0.28085869206E+02 -0.10955465317E+02 -0.29101819147E+02  0.41901720097E+02  0.00000000000E+00 0. -1.
         -5    1    3    3    0  503  0.16156967570E+02  0.63228064848E+01  0.36816327783E+02  0.40970202274E+02  0.47000000000E+01 0.  1.
         13    1    4    4    0    0 -0.68367367895E+02 -0.52636685957E+02  0.27305888011E+01  0.86325974171E+02  0.00000000000E+00 0. -1.
        -14    1    4    4    0    0 -0.18065862890E+02 -0.93503876593E+02 -0.49086552998E+02  0.10713934863E+03  0.00000000000E+00 0.  1.
</event>
<event>
12    1  0.8562501E-002  0.1763029E+03  0.7818608E-02  0.1172131E+00
         21   -1    0    0  501  502  0.00000000000E+00  0.00000000000E+00  0.32556678412E+03  0.32556678412E+03  0.00000000000E+00 0.  1.
         21   -1    0    0  502  503 -0.00000000000E+00 -0.00000000000E+00 -0.97425125789E+02  0.97425125789E+02  0.00000000000E+00 0.  1.
         -6    2    1    2    0  503  0.15731660800E+02  0.24857636975E+02  0.15480751499E+03  0.23462326081E+03  0.17383129911E+03 0.  0.
        -24    2    3    3    0    0  0.61585830486E+01  0.66149137921E+02  0.16118052297E+03  0.19150322952E+03  0.79250800237E+02 0.  0.
          6    2    1    2  501    0 -0.15731660800E+02 -0.24857636975E+02  0.73334143349E+02  0.18836864910E+03  0.17099550905E+03 0.  0.
         24    2    5    5    0    0 -0.61041363112E+02 -0.43286885141E+02  0.19078372269E+02  0.11516765862E+03  0.85438883816E+02 0.  0.
          5    1    5    5  501    0  0.45309702313E+02  0.18429248167E+02  0.54255771080E+02  0.73200990479E+02  0.47000000000E+01 0. -1.
        -11    1    6    6    0    0 -0.16212667156E+02  0.14454531809E+02 -0.22331901204E+02  0.31152814921E+02  0.00000000000E+00 0.  1.
         12    1    6    6    0    0 -0.44828695957E+02 -0.57741416951E+02  0.41410273473E+02  0.84014843699E+02  0.00000000000E+00 0. -1.
         -5    1    3    3    0  503  0.95730777511E+01 -0.41291500947E+02 -0.63730079847E+01  0.43120031295E+02  0.47000000000E+01 0.  1.
         13    1    4    4    0    0 -0.29331972175E+02  0.58579138852E+02  0.86854932418E+02  0.10879181672E+03  0.00000000000E+00 0. -1.
        -14    1    4    4    0    0  0.35490555223E+02  0.75699990698E+01  0.74325590552E+02  0.82711412797E+02  0.00000000000E+00 0.  1.
</event>
<event>
12    1  0.8562501E-002  0.1747321E+03  0.7818608E-02  0.1173889E+00
         21   -1    0    0  501  502  0.00000000000E+00  0.00000000000E+00  0.44451573244E+02  0.44451573244E+02  0.00000000000E+00 0.  1.
         21   -1    0    0  502  503 -0.00000000000E+00 -0.00000000000E+00 -0.86125860133E+03  0.86125860133E+03  0.00000000000E+00 0. -1.
         -6    2    1    2    0  503  0.19989242444E+02 -0.23031007485E+02 -0.62324146797E+03  0.64727215644E+03  0.17205034146E+03 0.  0.
        -24    2    3    3    0    0  0.21442174017E+02  0.52671769867E+02 -0.38219993764E+03  0.39457444998E+03  0.79863145945E+02 0.  0.
          6    2    1    2  501    0 -0.19989242444E+02  0.23031007485E+02 -0.19356556012E+03  0.25843801813E+03  0.16850099712E+03 0.  0.
         24    2    5    5    0    0  0.51763608170E+02  0.21913178459E+02 -0.12857938099E+03  0.16151013468E+03  0.79957537893E+02 0.  0.
          5    1    5    5  501    0 -0.71752850614E+02  0.11178290254E+01 -0.64986179130E+02  0.96927883454E+02  0.47000000000E+01 0. -1.
        -13    1    6    6    0    0  0.31806967130E+02  0.33153554830E+02 -0.19260821547E+02  0.49817874328E+02  0.00000000000E+00 0.  1.
         14    1    6    6    0    0  0.19956641040E+02 -0.11240376371E+02 -0.10931855944E+03  0.11169226035E+03  0.00000000000E+00 0. -1.
         -5    1    3    3    0  503 -0.14529315730E+01 -0.75702777352E+02 -0.24104153033E+03  0.25269770646E+03  0.47000000000E+01 0.  1.
         11    1    4    4    0    0 -0.19019002201E+02 -0.10774608754E+02 -0.65249494225E+02  0.68813597022E+02  0.00000000000E+00 0. -1.
        -12    1    4    4    0    0  0.40461176218E+02  0.63446378621E+02 -0.31695044341E+03  0.32576085296E+03  0.00000000000E+00 0.  1.
</event>
<event>
12    1  0.8562501E-002  0.2323528E+03  0.7818608E-02  0.1125104E+00
         21   -1    0    0  501  502  0.00000000000E+00  0.00000000000E+00  0.40417740518E+02  0.40417740518E+02  0.00000000000E+00 0. -1.
         21   -1    0    0  502  503 -0.00000000000E+00 -0.00000000000E+00 -0.15385143734E+04  0.15385143734E+04  0.00000000000E+00 0. -1.
         -6    2    1    2    0  503 -0.98520697443E+02  0.12087859778E+03 -0.10373135825E+04  0.10628809008E+04  0.17140121794E+03 0.  0.
        -24    2    3    3    0    0 -0.60863035123E+02  0.14181709522E+03 -0.64036065330E+03  0.66356869431E+03  0.80282303395E+02 0.  0.
          6    2    1    2  501    0  0.98520697443E+02 -0.12087859778E+03 -0.46078305041E+03  0.51605121320E+03  0.17224944666E+03 0.  0.
         24    2    5    5    0    0  0.10136179315E+01 -0.94686408576E+02 -0.18282319244E+03  0.22028537005E+03  0.78324843915E+02 0.  0.
          5    1    5    5  501    0  0.97507079511E+02 -0.26192189201E+02 -0.27795985797E+03  0.29576584315E+03  0.47000000000E+01 0. -1.
        -11    1    6    6    0    0 -0.28720782085E+01 -0.64331868280E+01 -0.96552553858E+02  0.96809247401E+02  0.00000000000E+00 0.  1.
         12    1    6    6    0    0  0.38856961400E+01 -0.88253221748E+02 -0.86270638586E+02  0.12347612265E+03  0.00000000000E+00 0. -1.
         -5    1    3    3    0  503 -0.37657662320E+02 -0.20938497440E+02 -0.39695292921E+03  0.39931220644E+03  0.47000000000E+01 0.  1.
         11    1    4    4    0    0 -0.84122515296E+01  0.57901551590E+02 -0.11565345116E+03  0.12961125112E+03  0.00000000000E+00 0. -1.
        -12    1    4    4    0    0 -0.52450783593E+02  0.83915543626E+02 -0.52470720214E+03  0.53395744319E+03  0.00000000000E+00 0.  1.
</event>
<event>
12    1  0.8562501E-002  0.1935071E+03  0.7818608E-02  0.1155415E+00
         21   -1    0    0  501  502  0.00000000000E+00  0.00000000000E+00  0.30320017252E+03  0.30320017252E+03  0.00000000000E+00 0.  1.
         21   -1    0    0  502  503 -0.00000000000E+00 -0.00000000000E+00 -0.14303069682E+03  0.14303069682E+03  0.00000000000E+00 0. -1.
         -6    2    1    2    0  503 -0.92297120885E+02 -0.10025064481E+02 -0.27851716065E+01  0.19352712247E+03  0.16978141685E+03 0.  0.
        -24    2    3    3    0    0 -0.37094577784E+02  0.49519112989E+02 -0.34349337102E+02  0.10628483697E+03  0.79299680693E+02 0.  0.
          6    2    1    2  501    0  0.92297120885E+02  0.10025064481E+02  0.16295464730E+03  0.25270374687E+03  0.16936855129E+03 0.  0.
         24    2    5    5    0    0 -0.78602029301E+01 -0.20516686145E+02  0.10439514518E+03  0.13263879223E+03  0.78816151048E+02 0.  0.
          5    1    5    5  501    0  0.10015732382E+03  0.30541750625E+02  0.58559502118E+02  0.12006495464E+03  0.47000000000E+01 0. -1.
        -13    1    6    6    0    0 -0.54570532957E+00  0.14153704961E+02  0.94905278687E+02  0.95956433245E+02  0.00000000000E+00 0.  1.
         14    1    6    6    0    0 -0.73144976006E+01 -0.34670391106E+02  0.94898664959E+01  0.36682358985E+02  0.00000000000E+00 0. -1.
         -5    1    3    3    0  503 -0.55202543102E+02 -0.59544177470E+02  0.31564165496E+02  0.87242285498E+02  0.47000000000E+01 0.  1.
         13    1    4    4    0    0 -0.25398572708E+02  0.28111761741E+02 -0.59953142271E+02  0.70920645174E+02  0.00000000000E+00 0. -1.
        -14    1    4    4    0    0 -0.11696005076E+02  0.21407351248E+02  0.25603805169E+02  0.35364191795E+02  0.00000000000E+00 0.  1.
</event>
<event>
12    1  0.8562501E-002  0.1937523E+03  0.7818608E-02  0.1156472E+00
         21   -1    0    0  503  502  0.00000000000E+00  0.00000000000E+00  0.11923886895E+03  0.11923886895E+03  0.00000000000E+00 0. -1.
         21   -1    0    0  501  503 -0.00000000000E+00 -0.00000000000E+00 -0.54316940155E+03  0.54316940155E+03  0.00000000000E+00 0.  1.
          6    2    1    2  501    0  0.10758126742E+02  0.87849092690E+02 -0.43311637748E+03  0.47447840493E+03  0.17235649082E+03 0.  0.
         24    2    3    3    0    0 -0.37572386910E+02  0.21702496118E+02 -0.11479049017E+03  0.14574649087E+03  0.78628877472E+02 0.  0.
         -6    2    1    2    0  502 -0.10758126742E+02 -0.87849092690E+02  0.91858448735E+01  0.18792986557E+03  0.16552961744E+03 0.  0.
        -24    2    5    5    0    0 -0.58702080070E+02 -0.43823409786E+02 -0.29231705640E+02  0.11220086450E+03  0.79800475747E+02 0.  0.
          5    1    3    3  501    0  0.48330513652E+02  0.66146596572E+02 -0.31832588731E+03  0.32873191406E+03  0.47000000000E+01 0. -1.
        -11    1    4    4    0    0 -0.13690334699E+02  0.49511558072E+02 -0.80855631295E+02  0.95793803343E+02  0.00000000000E+00 0.  1.
         12    1    4    4    0    0 -0.23882052210E+02 -0.27809061954E+02 -0.33934858873E+02  0.49952687528E+02  0.00000000000E+00 0. -1.
         -5    1    5    5    0  502  0.47943953328E+02 -0.44025682904E+02  0.38417550513E+02  0.75729001071E+02  0.47000000000E+01 0.  1.
         11    1    6    6    0    0  0.15130923195E+02 -0.20265491548E+02 -0.23442703475E+02  0.34484711550E+02  0.00000000000E+00 0. -1.
        -12    1    6    6    0    0 -0.73833003265E+02 -0.23557918238E+02 -0.57890021642E+01  0.77716152947E+02  0.00000000000E+00 0.  1.
</event>
<event>
12    1  0.8562501E-002  0.2376991E+03  0.7818608E-02  0.1121463E+00
         21   -1    0    0  503  502  0.00000000000E+00  0.00000000000E+00  0.15598059198E+03  0.15598059198E+03  0.00000000000E+00 0. -1.
         21   -1    0    0  501  503 -0.00000000000E+00 -0.00000000000E+00 -0.39285101931E+03  0.39285101931E+03  0.00000000000E+00 0. -1.
          6    2    1    2  501    0  0.61312652263E+02  0.15097531690E+03 -0.40216923035E+02  0.24032962671E+03  0.17201203719E+03 0.  0.
         24    2    3    3    0    0  0.26485132652E+02  0.17243072719E+03 -0.50044190212E+02  0.19799812623E+03  0.79151873543E+02 0.  0.
         -6    2    1    2    0  502 -0.61312652263E+02 -0.15097531690E+03 -0.19665350430E+03  0.30850198457E+03  0.17305515332E+03 0.  0.
        -24    2    5    5    0    0 -0.23648305277E+02 -0.26862027764E+02 -0.14122739239E+03  0.16737489484E+03  0.82391554085E+02 0.  0.
          5    1    3    3  501    0  0.34827519611E+02 -0.21455410293E+02  0.98272671774E+01  0.42331500484E+02  0.47000000000E+01 0. -1.
        -11    1    4    4    0    0  0.12004967841E+02 -0.53086305160E+01 -0.17216634488E+01  0.13238766402E+02  0.00000000000E+00 0.  1.
         12    1    4    4    0    0  0.14480164811E+02  0.17773935771E+03 -0.48322526763E+02  0.18475935983E+03  0.00000000000E+00 0. -1.
         -5    1    5    5    0  502 -0.37664346986E+02 -0.12411328913E+03 -0.55426111909E+02  0.14112708973E+03  0.47000000000E+01 0.  1.
         13    1    6    6    0    0 -0.50317783117E+02 -0.29258701614E+02 -0.68586471966E+02  0.89955850586E+02  0.00000000000E+00 0. -1.
        -14    1    6    6    0    0  0.26669477839E+02  0.23966738500E+01 -0.72640920422E+02  0.77419044256E+02  0.00000000000E+00 0.  1.
</event>
<event>
12    1  0.8562501E-002  0.2125383E+03  0.7818608E-02  0.1139702E+00
         21   -1    0    0  503  502  0.00000000000E+00  0.00000000000E+00  0.79634244579E+02  0.79634244579E+02  0.00000000000E+00 0.  1.
         21   -1    0    0  501  503 -0.00000000000E+00 -0.00000000000E+00 -0.69860011857E+03  0.69860011857E+03  0.00000000000E+00 0. -1.
          6    2    1    2  501    0  0.35408025105E+02 -0.12003052486E+03 -0.47974878628E+03  0.52472031783E+03  0.17178899520E+03 0.  0.
         24    2    3    3    0    0 -0.12614756205E+02 -0.75376080537E+02 -0.14211859422E+03  0.18074874413E+03  0.81435422834E+02 0.  0.
         -6    2    1    2    0  502 -0.35408025105E+02  0.12003052486E+03 -0.13921708772E+03  0.25351404532E+03  0.17095882113E+03 0.  0.
        -24    2    5    5    0    0 -0.88856228531E+02  0.92895892934E+02 -0.10754052354E+03  0.18555454696E+03  0.79626939047E+02 0.  0.
          5    1    3    3  501    0  0.48022781310E+02 -0.44654444322E+02 -0.33763019206E+03  0.34397157370E+03  0.47000000000E+01 0. -1.
        -11    1    4    4    0    0 -0.33041896570E+02 -0.82933658356E+02 -0.12137630605E+03  0.15067171694E+03  0.00000000000E+00 0.  1.
         12    1    4    4    0    0  0.20427140365E+02  0.75575778191E+01 -0.20742288168E+02  0.30077027187E+02  0.00000000000E+00 0. -1.
         -5    1    5    5    0  502  0.53448203426E+02  0.27134631925E+02 -0.31676564176E+02  0.67959498359E+02  0.47000000000E+01 0.  1.
         13    1    6    6    0    0 -0.18653777194E+02  0.50571633912E+02 -0.84806087174E+02  0.10048644676E+03  0.00000000000E+00 0. -1.
        -14    1    6    6    0    0 -0.70202451336E+02  0.42324259023E+02 -0.22734436365E+02  0.85068100204E+02  0.00000000000E+00 0.  1.
</event>
<event>
12    1  0.8562501E-002  0.1867032E+03  0.7818608E-02  0.1161947E+00
         21   -1    0    0  503  502  0.00000000000E+00  0.00000000000E+00  0.15211791933E+04  0.15211791933E+04  0.00000000000E+00 0. -1.
         21   -1    0    0  501  503 -0.00000000000E+00 -0.00000000000E+00 -0.28660497750E+02  0.28660497750E+02  0.00000000000E+00 0. -1.
          6    2    1    2  501    0 -0.72632543738E+02  0.12711654148E+02  0.38849926710E+03  0.43014465399E+03  0.16927985780E+03 0.  0.
         24    2    3    3    0    0 -0.72652765986E+02  0.32374624163E+02  0.15768212727E+03  0.19844382353E+03  0.90497276973E+02 0.  0.
         -6    2    1    2    0  502  0.72632543738E+02 -0.12711654148E+02  0.11040194284E+04  0.11196950370E+04  0.17152552306E+03 0.  0.
        -24    2    5    5    0    0  0.55246541654E+00 -0.60015235393E+02  0.60348287761E+03  0.61176581442E+03  0.80397104567E+02 0.  0.
          5    1    3    3  501    0  0.20222247932E-01 -0.19662970014E+02  0.23081713983E+03  0.23170083046E+03  0.47000000000E+01 0. -1.
        -11    1    4    4    0    0 -0.70000139906E+02  0.29147905941E+02  0.16961954300E+03  0.18579668828E+03  0.00000000000E+00 0.  1.
         12    1    4    4    0    0 -0.26526260803E+01  0.32267182223E+01 -0.11937415730E+02  0.12647135246E+02  0.00000000000E+00 0. -1.
         -5    1    5    5    0  502  0.72080078321E+02  0.47303581245E+02  0.50053655082E+03  0.50792922262E+03  0.47000000000E+01 0.  1.
         11    1    6    6    0    0 -0.24112208440E+02 -0.14588045578E+00  0.32331113650E+03  0.32420905425E+03  0.00000000000E+00 0. -1.
        -12    1    6    6    0    0  0.24664673857E+02 -0.59869354938E+02  0.28017174112E+03  0.28755676017E+03  0.00000000000E+00 0.  1.
</event>
<event>
12    1  0.8562501E-002  0.2602735E+03  0.7818608E-02  0.1107090E+00
         21   -1    0    0  503  502  0.00000000000E+00  0.00000000000E+00  0.18004449713E+03  0.18004449713E+03  0.00000000000E+00 0. -1.
         21   -1    0    0  501  503 -0.00000000000E+00 -0.00000000000E+00 -0.41992319797E+03  0.41992319797E+03  0.00000000000E+00 0. -1.
          6    2    1    2  501    0  0.19321524821E+03  0.22917241440E+02 -0.21872252587E+02  0.26045467787E+03  0.17175829440E+03 0.  0.
         24    2    3    3    0    0  0.15217199194E+03  0.74073754799E+02  0.91655968359E+01  0.18774308429E+03  0.80747886980E+02 0.  0.
         -6    2    1    2    0  502 -0.19321524821E+03 -0.22917241440E+02 -0.21800644825E+03  0.33951301723E+03  0.17287262737E+03 0.  0.
        -24    2    5    5    0    0 -0.18426499728E+03 -0.41088150021E+02 -0.23604042196E+03  0.31198842608E+03  0.77329631536E+02 0.  0.
          5    1    3    3  501    0  0.41043256273E+02 -0.51156513360E+02 -0.31037849423E+02  0.72711593583E+02  0.47000000000E+01 0. -1.
        -13    1    4    4    0    0  0.45103240159E+02  0.57806069023E+02  0.26709765309E+02  0.78033681520E+02  0.00000000000E+00 0.  1.
         14    1    4    4    0    0  0.10706875178E+03  0.16267685777E+02 -0.17544168473E+02  0.10970940277E+03  0.00000000000E+00 0. -1.
         -5    1    5    5    0  502 -0.89502509304E+01  0.18170908582E+02  0.18033973707E+02  0.27524591152E+02  0.47000000000E+01 0.  1.
         11    1    6    6    0    0 -0.15653720435E+03 -0.49092101287E+02 -0.15396547003E+03  0.22498732568E+03  0.00000000000E+00 0. -1.
        -12    1    6    6    0    0 -0.27727792930E+02  0.80039512654E+01 -0.82074951928E+02  0.87001100399E+02  0.00000000000E+00 0.  1.
</event>
<event>
12    1  0.8562501E-002  0.2021126E+03  0.7818608E-02  0.1147987E+00
         21   -1    0    0  503  502  0.00000000000E+00  0.00000000000E+00  0.87073039378E+02  0.87073039378E+02  0.00000000000E+00 0. -1.
         21   -1    0    0  501  503 -0.00000000000E+00 -0.00000000000E+00 -0.82815398328E+03  0.82815398328E+03  0.00000000000E+00 0.  1.
          6    2    1    2  501    0  0.16174048121E+01  0.10422304763E+03 -0.67197080853E+03  0.70170811176E+03  0.17316017710E+03 0.  0.
         24    2    3    3    0    0 -0.58294905102E+02  0.97117548703E+02 -0.51812007958E+03  0.53638385525E+03  0.80181725308E+02 0.  0.
         -6    2    1    2    0  502 -0.16174048121E+01 -0.10422304763E+03 -0.69110135366E+02  0.21351891089E+03  0.17305795227E+03 0.  0.
        -24    2    5    5    0    0  0.14552659751E+02 -0.11699759048E+03 -0.10126765843E+03  0.17503701616E+03  0.80514609219E+02 0.  0.
          5    1    3    3  501    0  0.59912309914E+02  0.71054989315E+01 -0.15385072895E+03  0.16532425652E+03  0.47000000000E+01 0. -1.
        -11    1    4    4    0    0 -0.36839800605E+02  0.18134134948E+02 -0.31067561558E+03  0.31337733784E+03  0.00000000000E+00 0.  1.
         12    1    4    4    0    0 -0.21455104497E+02  0.78983413755E+02 -0.20744446400E+03  0.22300651740E+03  0.00000000000E+00 0. -1.
         -5    1    5    5    0  502 -0.16170064563E+02  0.12774542850E+02  0.32157523060E+02  0.38481894735E+02  0.47000000000E+01 0.  1.
         11    1    6    6    0    0 -0.67833943223E+01 -0.45063357402E+02  0.40216858229E+01  0.45748164725E+02  0.00000000000E+00 0. -1.
        -12    1    6    6    0    0  0.21336054074E+02 -0.71934233082E+02 -0.10528934425E+03  0.12928885143E+03  0.00000000000E+00 0.  1.
</event>
<event>
12    1  0.8562501E-002  0.3164095E+03  0.7818608E-02  0.1077375E+00
         21   -1    0    0  501  502  0.00000000000E+00  0.00000000000E+00  0.36710754259E+03  0.36710754259E+03  0.00000000000E+00 0. -1.
         21   -1    0    0  502  503 -0.00000000000E+00 -0.00000000000E+00 -0.51819589756E+03  0.51819589756E+03  0.00000000000E+00 0.  1.
         -6    2    1    2    0  503  0.14191394915E+03  0.22324765553E+03 -0.38045863210E+03  0.49450212859E+03  0.17263979778E+03 0.  0.
        -24    2    3    3    0    0  0.10443748212E+02  0.12191363374E+03 -0.14103246086E+03  0.20312611862E+03  0.79987868354E+02 0.  0.
          6    2    1    2  501    0 -0.14191394915E+03 -0.22324765553E+03  0.22937027714E+03  0.39080131156E+03  0.17359682145E+03 0.  0.
         24    2    5    5    0    0 -0.56956997285E+02 -0.76366981528E+02  0.27262278934E+02  0.12686694660E+03  0.79221050742E+02 0.  0.
          5    1    5    5  501    0 -0.84956951869E+02 -0.14688067400E+03  0.20210799821E+03  0.26393436495E+03  0.47000000000E+01 0. -1.
        -11    1    6    6    0    0 -0.74303624823E+02 -0.62480777157E+02  0.35207938199E+02  0.10326894542E+03  0.00000000000E+00 0.  1.
         12    1    6    6    0    0  0.17346627538E+02 -0.13886204372E+02 -0.79456592645E+01  0.23598001185E+02  0.00000000000E+00 0. -1.
         -5    1    3    3    0  503  0.13147020094E+03  0.10133402179E+03 -0.23942617124E+03  0.29137600997E+03  0.47000000000E+01 0.  1.
         13    1    4    4    0    0  0.13198223091E+02 -0.85104963187E+01 -0.13951078765E+02  0.21006052438E+02  0.00000000000E+00 0. -1.
        -14    1    4    4    0    0 -0.27544748787E+01  0.13042413006E+03 -0.12708138209E+03  0.18212006619E+03  0.00000000000E+00 0.  1.
</event>
<event>
12    1  0.8562501E-002  0.1855556E+03  0.7818608E-02  0.1163454E+00
         21   -1    0    0  503  502  0.00000000000E+00  0.00000000000E+00  0.57838880656E+03  0.57838880656E+03  0.00000000000E+00 0. -1.
         21   -1    0    0  501  503 -0.00000000000E+00 -0.00000000000E+00 -0.10881175122E+03  0.10881175122E+03  0.00000000000E+00 0. -1.
          6    2    1    2  501    0 -0.29877409088E+02  0.61545931066E+02 -0.70069129818E+00  0.18163943701E+03  0.16826120439E+03 0.  0.
         24    2    3    3    0    0 -0.50693734826E+02  0.65170221024E+00 -0.42621392809E+02  0.10469230100E+03  0.81077834804E+02 0.  0.
         -6    2    1    2    0  502  0.29877409088E+02 -0.61545931066E+02  0.47027774663E+03  0.50556112078E+03  0.17248283004E+03 0.  0.
        -24    2    5    5    0    0 -0.41395931898E+02 -0.43955444387E+02  0.35019015849E+03  0.36473344884E+03  0.82168347494E+02 0.  0.
          5    1    3    3  501    0  0.20816325738E+02  0.60894228855E+02  0.41920701511E+02  0.76947136011E+02  0.47000000000E+01 0. -1.
        -11    1    4    4    0    0  0.16133757563E+02 -0.97145191338E+01  0.77527109448E+01  0.20366014389E+02  0.00000000000E+00 0.  1.
         12    1    4    4    0    0 -0.66827492389E+02  0.10366221344E+02 -0.50374103754E+02  0.84326286607E+02  0.00000000000E+00 0. -1.
         -5    1    5    5    0  502  0.71273340986E+02 -0.17590486678E+02  0.12008758814E+03  0.14082767193E+03  0.47000000000E+01 0.  1.
         11    1    6    6    0    0 -0.44894210046E+02 -0.57919975837E+02  0.18603244151E+03  0.19994570011E+03  0.00000000000E+00 0. -1.
        -12    1    6    6    0    0  0.34982781478E+01  0.13964531450E+02  0.16415771698E+03  0.16478774873E+03  0.00000000000E+00 0.  1.
</event>
<event>
12    1  0.8562501E-002  0.2201436E+03  0.7818608E-02  0.1134160E+00
         21   -1    0    0  503  502  0.00000000000E+00  0.00000000000E+00  0.31179149846E+03  0.31179149846E+03  0.00000000000E+00 0.  1.
         21   -1    0    0  501  503 -0.00000000000E+00 -0.00000000000E+00 -0.15432540649E+03  0.15432540649E+03  0.00000000000E+00 0.  1.
          6    2    1    2  501    0 -0.13127528914E+03 -0.34536677730E+02  0.89231211460E+02  0.23564083894E+03  0.17069977220E+03 0.  0.
         24    2    3    3    0    0 -0.15971624889E+03 -0.17845575566E+02  0.94042288513E+02  0.20198496953E+03  0.78270244427E+02 0.  0.
         -6    2    1    2    0  502  0.13127528914E+03  0.34536677730E+02  0.68234880513E+02  0.23047606601E+03  0.17331253399E+03 0.  0.
        -24    2    5    5    0    0  0.75654765196E+02  0.58830094976E+01 -0.31036490539E+02  0.11303854859E+03  0.77821567862E+02 0.  0.
          5    1    3    3  501    0  0.28440959746E+02 -0.16691102164E+02 -0.48110770530E+01  0.33655869401E+02  0.47000000000E+01 0. -1.
        -11    1    4    4    0    0 -0.56852331769E+02 -0.41305407654E+02  0.19909326208E+02  0.73039068991E+02  0.00000000000E+00 0.  1.
         12    1    4    4    0    0 -0.10286391712E+03  0.23459832088E+02  0.74132962305E+02  0.12894590054E+03  0.00000000000E+00 0. -1.
         -5    1    5    5    0  502  0.55620523947E+02  0.28653668233E+02  0.99271371052E+02  0.11743751742E+03  0.47000000000E+01 0.  1.
         11    1    6    6    0    0  0.87571478825E+01  0.30650301817E+02  0.63452906392E+01  0.32502174601E+02  0.00000000000E+00 0. -1.
        -12    1    6    6    0    0  0.66897617314E+02 -0.24767292320E+02 -0.37381781178E+02  0.80536373988E+02  0.00000000000E+00 0.  1.
</event>
<event>
12    1  0.8562501E-002  0.2585130E+03  0.7818608E-02  0.1108060E+00
         21   -1    0    0  501  502  0.00000000000E+00  0.00000000000E+00  0.18565898885E+04  0.18565898885E+04  0.00000000000E+00 0. -1.
         21   -1    0    0  502  503 -0.00000000000E+00 -0.00000000000E+00 -0.36193036094E+02  0.36193036094E+02  0.00000000000E+00 0.  1.
         -6    2    1    2    0  503 -0.86747447641E+02 -0.17224853070E+03  0.83688333090E+03  0.87586217516E+03  0.17194814432E+03 0.  0.
        -24    2    3    3    0    0 -0.12690486899E+03 -0.13208740042E+03  0.60648558015E+03  0.63852117907E+03  0.79577698294E+02 0.  0.
          6    2    1    2  501    0  0.86747447641E+02  0.17224853070E+03  0.98351352146E+03  0.10169207494E+04  0.17214612293E+03 0.  0.
         24    2    5    5    0    0  0.82033621511E+02  0.58498842977E+02  0.34017459020E+03  0.36356917321E+03  0.79449117087E+02 0.  0.
          5    1    5    5  501    0  0.47138261297E+01  0.11374968773E+03  0.64333893126E+03  0.65335157618E+03  0.47000000000E+01 0. -1.
        -13    1    6    6    0    0 -0.86588168958E+01  0.85763429213E+01  0.57274871127E+01  0.13465989624E+02  0.00000000000E+00 0.  1.
         14    1    6    6    0    0  0.90692438407E+02  0.49922500056E+02  0.33444710309E+03  0.35010318359E+03  0.00000000000E+00 0. -1.
         -5    1    3    3    0  503  0.40157421350E+02 -0.40161130287E+02  0.23039775075E+03  0.23734099609E+03  0.47000000000E+01 0.  1.
         11    1    4    4    0    0 -0.63542352064E+02 -0.63584752683E+02  0.42554689526E+03  0.43493770973E+03  0.00000000000E+00 0. -1.
        -12    1    4    4    0    0 -0.63362516928E+02 -0.68502647734E+02  0.18093868489E+03  0.20358346934E+03  0.00000000000E+00 0.  1.
</event>
<event>
12    1  0.8562501E-002  0.2999510E+03  0.7818608E-02  0.1085391E+00
         21   -1    0    0  503  502  0.00000000000E+00  0.00000000000E+00  0.20656963162E+04  0.20656963162E+04  0.00000000000E+00 0. -1.
         21   -1    0    0  501  503 -0.00000000000E+00 -0.00000000000E+00 -0.61697574281E+02  0.61697574281E+02  0.00000000000E+00 0.  1.
          6    2    1    2  501    0 -0.24078651159E+03  0.51367491914E+02  0.42167717234E+03  0.51689330301E+03  0.16955909188E+03 0.  0.
         24    2    3    3    0    0 -0.20292810822E+03  0.72991922571E+02  0.24958338511E+03  0.33930040814E+03  0.79531521881E+02 0.  0.
         -6    2    1    2    0  502  0.24078651159E+03 -0.51367491914E+02  0.15823215696E+04  0.16105005875E+04  0.17132959255E+03 0.  0.
        -24    2    5    5    0    0  0.44637566285E+02 -0.13899955728E+02  0.34808281997E+03  0.36020238061E+03  0.79989901554E+02 0.  0.
          5    1    3    3  501    0 -0.37858403370E+02 -0.21624430658E+02  0.17209378723E+03  0.17759289488E+03  0.47000000000E+01 0. -1.
        -11    1    4    4    0    0 -0.17367184310E+03  0.85559363354E+02  0.23442456915E+03  0.30403485386E+03  0.00000000000E+00 0.  1.
         12    1    4    4    0    0 -0.29256265127E+02 -0.12567440783E+02  0.15158815955E+02  0.35265554273E+02  0.00000000000E+00 0. -1.
         -5    1    5    5    0  502  0.19614894531E+03 -0.37467536186E+02  0.12342387497E+04  0.12502982069E+04  0.47000000000E+01 0.  1.
         11    1    6    6    0    0  0.37198014550E+01 -0.45883891091E+01  0.28108780793E+03  0.28114986396E+03  0.00000000000E+00 0. -1.
        -12    1    6    6    0    0  0.40917764830E+02 -0.93115666187E+01  0.66995012037E+02  0.79052516654E+02  0.00000000000E+00 0.  1.
</event>
<event>
12    1  0.8562501E-002  0.1916994E+03  0.7818608E-02  0.1156976E+00
         21   -1    0    0  503  502  0.00000000000E+00  0.00000000000E+00  0.23095547064E+03  0.23095547064E+03  0.00000000000E+00 0. -1.
         21   -1    0    0  501  503 -0.00000000000E+00 -0.00000000000E+00 -0.15921172599E+03  0.15921172599E+03  0.00000000000E+00 0. -1.
          6    2    1    2  501    0 -0.74978971596E+02 -0.39098906091E+02  0.28316006361E+02  0.19361024044E+03  0.17185039525E+03 0.  0.
         24    2    3    3    0    0 -0.72426139494E+02  0.86549669467E+01 -0.34924006428E+02  0.11418519049E+03  0.80610901045E+02 0.  0.
         -6    2    1    2    0  502  0.74978971596E+02  0.39098906091E+02  0.43427738291E+02  0.19655695619E+03  0.17204097749E+03 0.  0.
        -24    2    5    5    0    0  0.52189669552E+02 -0.33911585802E+02 -0.49033425822E+01  0.10595967371E+03  0.85613389285E+02 0.  0.
          5    1    3    3  501    0 -0.25528321019E+01 -0.47753873038E+02  0.63240012789E+02  0.79425049949E+02  0.47000000000E+01 0. -1.
        -11    1    4    4    0    0 -0.28102318034E+02  0.27957624375E+02 -0.49756321180E+02  0.63616511512E+02  0.00000000000E+00 0.  1.
         12    1    4    4    0    0 -0.44323821460E+02 -0.19302657429E+02  0.14832314752E+02  0.50568678978E+02  0.00000000000E+00 0. -1.
         -5    1    5    5    0  502  0.22789302043E+02  0.73010491893E+02  0.48331080873E+02  0.90597282478E+02  0.47000000000E+01 0.  1.
         13    1    6    6    0    0  0.34455149427E+02  0.20359235011E+02 -0.22882755516E+02  0.46100718782E+02  0.00000000000E+00 0. -1.
        -14    1    6    6    0    0  0.17734520126E+02 -0.54270820813E+02  0.17979412933E+02  0.59858954929E+02  0.00000000000E+00 0.  1.
</event>
<event>
12    1  0.8562501E-002  0.2255476E+03  0.7818608E-02  0.1130590E+00
         21   -1    0    0  503  502  0.00000000000E+00  0.00000000000E+00  0.16794515983E+03  0.16794515983E+03  0.00000000000E+00 0.  1.
         21   -1    0    0  501  503 -0.00000000000E+00 -0.00000000000E+00 -0.29729439152E+03  0.29729439152E+03  0.00000000000E+00 0. -1.
          6    2    1    2  501    0 -0.31194490982E+02 -0.14332196835E+03 -0.69142687524E+02  0.23590764100E+03  0.17134007402E+03 0.  0.
         24    2    3    3    0    0 -0.54437084077E+02 -0.32408070164E+02  0.17046790874E+01  0.10217824895E+03  0.80148671182E+02 0.  0.
         -6    2    1    2    0  502  0.31194490982E+02  0.14332196835E+03 -0.60206544167E+02  0.22933191035E+03  0.16569252930E+03 0.  0.
        -24    2    5    5    0    0  0.30385405006E+02  0.28989484494E+02 -0.69729760099E+02  0.11450441745E+03  0.80531727434E+02 0.  0.
          5    1    3    3  501    0  0.23242593095E+02 -0.11091389819E+03 -0.70847366612E+02  0.13372939206E+03  0.47000000000E+01 0. -1.
        -13    1    4    4    0    0 -0.30879978431E+02 -0.57850875744E+02 -0.82753887267E+01  0.66096739336E+02  0.00000000000E+00 0.  1.
         14    1    4    4    0    0 -0.23557105646E+02  0.25442805580E+02  0.99800678142E+01  0.36081509610E+02  0.00000000000E+00 0. -1.
         -5    1    5    5    0  502  0.80908597622E+00  0.11433248386E+03  0.95232159323E+01  0.11482749290E+03  0.47000000000E+01 0.  1.
         13    1    6    6    0    0 -0.24805061342E+02  0.17737238395E+02 -0.41503507307E+02  0.51501862227E+02  0.00000000000E+00 0. -1.
        -14    1    6    6    0    0  0.55190466348E+02  0.11252246099E+02 -0.28226252792E+02  0.63002555223E+02  0.00000000000E+00 0.  1.
</event>
<event>
12    1  0.8562501E-002  0.1843056E+03  0.7818608E-02  0.1164081E+00
         21   -1    0    0  501  502  0.00000000000E+00  0.00000000000E+00  0.67252799618E+03  0.67252799618E+03  0.00000000000E+00 0. -1.
         21   -1    0    0  502  503 -0.00000000000E+00 -0.00000000000E+00 -0.78604806683E+02  0.78604806683E+02  0.00000000000E+00 0. -1.
         -6    2    1    2    0  503  0.39009933132E+02  0.47918806067E+02  0.69836473483E+02  0.19558311657E+03  0.17192334223E+03 0.  0.
        -24    2    3    3    0    0  0.95554723155E+02  0.45613939527E+02  0.32843001347E+02  0.12780972453E+03  0.63602880047E+02 0.  0.
          6    2    1    2  501    0 -0.39009933132E+02 -0.47918806067E+02  0.52408671601E+03  0.55554968629E+03  0.17363922707E+03 0.  0.
         24    2    5    5    0    0  0.29968343425E+02 -0.26694988599E+02  0.15238288804E+03  0.17687531589E+03  0.80334356169E+02 0.  0.
          5    1    5    5  501    0 -0.68978276557E+02 -0.21223817468E+02  0.37170382797E+03  0.37867437039E+03  0.47000000000E+01 0. -1.
        -11    1    6    6    0    0  0.21872590457E+02 -0.20922076401E+02  0.16093721179E+03  0.16375875437E+03  0.00000000000E+00 0.  1.
         12    1    6    6    0    0  0.80957529682E+01 -0.57729121973E+01 -0.85543237501E+01  0.13116561523E+02  0.00000000000E+00 0. -1.
         -5    1    3    3    0  503 -0.56544790023E+02  0.23048665402E+01  0.36993472136E+02  0.67773392044E+02  0.47000000000E+01 0.  1.
         11    1    4    4    0    0  0.20427357728E+02  0.12531465063E+01  0.34990872403E+02  0.40536507884E+02  0.00000000000E+00 0. -1.
        -12    1    4    4    0    0  0.75127365427E+02  0.44360793020E+02 -0.21478710564E+01  0.87273216644E+02  0.00000000000E+00 0.  1.
</event>
<event>
12    1  0.8562501E-002  0.1811764E+03  0.7818608E-02  0.1167171E+00
         21   -1    0    0  501  502  0.00000000000E+00  0.00000000000E+00  0.76305647303E+02  0.76305647303E+02  0.00000000000E+00 0. -1.
         21   -1    0    0  502  503 -0.00000000000E+00 -0.00000000000E+00 -0.51325372951E+03  0.51325372951E+03  0.00000000000E+00 0. -1.
         -6    2    1    2    0  503  0.42494439494E+02  0.32750630462E+02 -0.33948534353E+03  0.38383167526E+03  0.17087444302E+03 0.  0.
        -24    2    3    3    0    0  0.64730431091E+02 -0.15085261146E+02 -0.29925525728E+03  0.31732406902E+03  0.81995499602E+02 0.  0.
          6    2    1    2  501    0 -0.42494439494E+02 -0.32750630462E+02 -0.97462738675E+02  0.20572770155E+03  0.17305063009E+03 0.  0.
         24    2    5    5    0    0 -0.73499601613E+02 -0.72731946140E+02 -0.71728688602E+02  0.14877019973E+03  0.79343809661E+02 0.  0.
          5    1    5    5  501    0  0.31005162119E+02  0.39981315677E+02 -0.25734050072E+02  0.56957501828E+02  0.47000000000E+01 0. -1.
        -11    1    6    6    0    0  0.12922885900E+02 -0.31526088684E+02 -0.24816881158E+02  0.42151783332E+02  0.00000000000E+00 0.  1.
         12    1    6    6    0    0 -0.86422487514E+02 -0.41205857456E+02 -0.46911807444E+02  0.10661841639E+03  0.00000000000E+00 0. -1.
         -5    1    3    3    0  503 -0.22235991597E+02  0.47835891608E+02 -0.40230086252E+02  0.66507606242E+02  0.47000000000E+01 0.  1.
         13    1    4    4    0    0 -0.56141921443E+01 -0.13338524325E+02 -0.16601279297E+03  0.16664238001E+03  0.00000000000E+00 0. -1.
        -14    1    4    4    0    0  0.70344623236E+02 -0.17467368205E+01 -0.13324246431E+03  0.15068168901E+03  0.00000000000E+00 0.  1.
</event>
<event>
12    1  0.8562501E-002  0.3149160E+03  0.7818608E-02  0.1078044E+00
         21   -1    0    0  503  502  0.00000000000E+00  0.00000000000E+00  0.19849132093E+04  0.19849132093E+04  0.00000000000E+00 0.  1.
         21   -1    0    0  501  503 -0.00000000000E+00 -0.00000000000E+00 -0.65038347896E+02  0.65038347896E+02  0.00000000000E+00 0.  1.
          6    2    1    2  501    0  0.22859170319E+03  0.13172769500E+03  0.46546698632E+03  0.56184055997E+03  0.17146121157E+03 0.  0.
         24    2    3    3    0    0  0.15817342505E+03  0.12537093524E+03  0.23316531801E+03  0.31897167067E+03  0.81487160756E+02 0.  0.
         -6    2    1    2    0  502 -0.22859170319E+03 -0.13172769500E+03  0.14544078751E+04  0.14881109973E+04  0.17194685391E+03 0.  0.
        -24    2    5    5    0    0 -0.17889195353E+03 -0.64110327577E+02  0.12477696448E+04  0.12650333836E+04  0.85252037873E+02 0.  0.
          5    1    3    3  501    0  0.70418278138E+02  0.63567597587E+01  0.23230166831E+03  0.24286888930E+03  0.47000000000E+01 0. -1.
        -13    1    4    4    0    0  0.57119320837E+02  0.97219665351E+02  0.12157880597E+03  0.16581823243E+03  0.00000000000E+00 0.  1.
         14    1    4    4    0    0  0.10105410422E+03  0.28151269894E+02  0.11158651204E+03  0.15315343824E+03  0.00000000000E+00 0. -1.
         -5    1    5    5    0  502 -0.49699749664E+02 -0.67617367426E+02  0.20663823029E+03  0.22307761365E+03  0.47000000000E+01 0.  1.
         13    1    6    6    0    0 -0.50982004034E+02 -0.28635599658E+02  0.65394396703E+03  0.65655302476E+03  0.00000000000E+00 0. -1.
        -14    1    6    6    0    0 -0.12790994949E+03 -0.35474727919E+02  0.59382567779E+03  0.60848035885E+03  0.00000000000E+00 0.  1.
</event>
<event>
12    1  0.8562501E-002  0.1843557E+03  0.7818608E-02  0.1165120E+00
         21   -1    0    0  501  502  0.00000000000E+00  0.00000000000E+00  0.21259399102E+03  0.21259399102E+03  0.00000000000E+00 0.  1.
         21   -1    0    0  502  503 -0.00000000000E+00 -0.00000000000E+00 -0.16578661138E+03  0.16578661138E+03  0.00000000000E+00 0.  1.
         -6    2    1    2    0  503  0.11477193718E+01  0.30556161354E+02 -0.25397305505E+02  0.18609687760E+03  0.18180216849E+03 0.  0.
        -24    2    3    3    0    0 -0.57876698314E+02 -0.61393672827E+01 -0.51472607608E+02  0.11171640244E+03  0.80272792409E+02 0.  0.
          6    2    1    2  501    0 -0.11477193718E+01 -0.30556161354E+02  0.72204685150E+02  0.19228372480E+03  0.17556912602E+03 0.  0.
         24    2    5    5    0    0 -0.10269695601E+02  0.69692084794E+01  0.11061421049E+03  0.13761430494E+03  0.80920682453E+02 0.  0.
          5    1    5    5  501    0  0.91219762294E+01 -0.37525369834E+02 -0.38409525337E+02  0.54669419862E+02  0.47000000000E+01 0. -1.
        -11    1    6    6    0    0  0.67927716285E+01 -0.29708194913E+02  0.15360925514E+02  0.34127358879E+02  0.00000000000E+00 0.  1.
         12    1    6    6    0    0 -0.17062467230E+02  0.36677403392E+02  0.95253284972E+02  0.10348694606E+03  0.00000000000E+00 0. -1.
         -5    1    3    3    0  503  0.59024417685E+02  0.36695528637E+02  0.26075302103E+02  0.74380475159E+02  0.47000000000E+01 0.  1.
         11    1    4    4    0    0 -0.28770041850E+02 -0.27902524696E+02  0.90805269281E+01  0.41094064800E+02  0.00000000000E+00 0. -1.
        -12    1    4    4    0    0 -0.29106656463E+02  0.21763157414E+02 -0.60553134536E+02  0.70622337637E+02  0.00000000000E+00 0.  1.
</event>
<event>
12    1  0.8562501E-002  0.1747702E+03  0.7818608E-02  0.1173571E+00
         21   -1    0    0  501  502  0.00000000000E+00  0.00000000000E+00  0.12096244337E+03  0.12096244337E+03  0.00000000000E+00 0. -1.
         21   -1    0    0  502  503 -0.00000000000E+00 -0.00000000000E+00 -0.49332494853E+03  0.49332494853E+03  0.00000000000E+00 0. -1.
         -6    2    1    2    0  503  0.20320725614E+02  0.26314794165E+02 -0.40165634528E+03  0.43707921100E+03  0.16913017679E+03 0.  0.
        -24    2    3    3    0    0  0.52585598579E+02  0.55029027334E+02 -0.36096241322E+03  0.37755093771E+03  0.80357997631E+02 0.  0.
          6    2    1    2  501    0 -0.20320725614E+02 -0.26314794165E+02  0.29293840123E+02  0.17720818091E+03  0.17157858267E+03 0.  0.
         24    2    5    5    0    0  0.49894590954E+01 -0.78579954818E+02  0.49290191601E+01  0.11405767047E+03  0.82372039926E+02 0.  0.
          5    1    5    5  501    0 -0.25310184710E+02  0.52265160653E+02  0.24364820963E+02  0.63150510439E+02  0.47000000000E+01 0. -1.
        -11    1    6    6    0    0  0.84816966844E+01 -0.26734070845E+02 -0.37600512962E+02  0.46908936223E+02  0.00000000000E+00 0.  1.
         12    1    6    6    0    0 -0.34922375891E+01 -0.51845883974E+02  0.42529532122E+02  0.67148734246E+02  0.00000000000E+00 0. -1.
         -5    1    3    3    0  503 -0.32264872965E+02 -0.28714233169E+02 -0.40693932066E+02  0.59528273290E+02  0.47000000000E+01 0.  1.
         13    1    4    4    0    0  0.58961624827E+02  0.39020801179E+01 -0.18611854471E+03  0.19527368516E+03  0.00000000000E+00 0. -1.
        -14    1    4    4    0    0 -0.63760262475E+01  0.51126947216E+02 -0.17484386851E+03  0.18227725255E+03  0.00000000000E+00 0.  1.
</event>
<event>
12    1  0.8562501E-002  0.1944858E+03  0.7818608E-02  0.1156849E+00
         21   -1    0    0  503  502  0.00000000000E+00  0.00000000000E+00  0.74599302400E+03  0.74599302400E+03  0.00000000000E+00 0. -1.
         21   -1    0    0  501  503 -0.00000000000E+00 -0.00000000000E+00 -0.63683653241E+02  0.63683653241E+02  0.00000000000E+00 0. -1.
          6    2    1    2  501    0 -0.58832421883E+02  0.50308697845E+02  0.14743821250E+03  0.24405479383E+03  0.17841663864E+03 0.  0.
         24    2    3    3    0    0  0.36798790248E+02  0.39539396291E+02  0.58056185913E+02  0.11262974574E+03  0.79983898879E+02 0.  0.
         -6    2    1    2    0  502  0.58832421883E+02 -0.50308697845E+02  0.53487115827E+03  0.56562188342E+03  0.16687941787E+03 0.  0.
        -24    2    5    5    0    0  0.95740142876E+02 -0.66625215853E+02  0.37967827600E+03  0.40519953667E+03  0.80162191252E+02 0.  0.
          5    1    3    3  501    0 -0.95631212130E+02  0.10769301554E+02  0.89382026583E+02  0.13142504809E+03  0.47000000000E+01 0. -1.
        -13    1    4    4    0    0  0.13757174593E+02 -0.10527987634E+02  0.54739305948E+02  0.57415067639E+02  0.00000000000E+00 0.  1.
         14    1    4    4    0    0  0.23041615655E+02  0.50067383924E+02  0.33168799651E+01  0.55214678100E+02  0.00000000000E+00 0. -1.
         -5    1    5    5    0  502 -0.36907720993E+02  0.16316518009E+02  0.15519288226E+03  0.16042234674E+03  0.47000000000E+01 0.  1.
         13    1    6    6    0    0  0.72326053308E+02 -0.10329261024E+02  0.27003557683E+03  0.27974446263E+03  0.00000000000E+00 0. -1.
        -14    1    6    6    0    0  0.23414089568E+02 -0.56295954829E+02  0.10964269918E+03  0.12545507404E+03  0.00000000000E+00 0.  1.
</event>
<event>
12    1  0.8562501E-002  0.1863494E+03  0.7818608E-02  0.1161829E+00
         21   -1    0    0  503  502  0.00000000000E+00  0.00000000000E+00  0.15458925057E+03  0.15458925057E+03  0.00000000000E+00 0.  1.
         21   -1    0    0  501  503 -0.00000000000E+00 -0.00000000000E+00 -0.76448357184E+03  0.76448357184E+03  0.00000000000E+00 0.  1.
          6    2    1    2  501    0 -0.18655773835E+02  0.68850895459E+02 -0.69113839527E+03  0.71578316456E+03  0.17200224867E+03 0.  0.
         24    2    3    3    0    0 -0.21488255021E+02  0.60544780700E+02 -0.69744881941E+03  0.70399647950E+03  0.71054710430E+02 0.  0.
         -6    2    1    2    0  502  0.18655773835E+02 -0.68850895459E+02  0.81244073999E+02  0.20328965785E+03  0.17215574845E+03 0.  0.
        -24    2    5    5    0    0 -0.34969852072E+02 -0.26739809045E+02 -0.11119541753E+02  0.88388923002E+02  0.75835674712E+02 0.  0.
          5    1    3    3  501    0  0.28324811864E+01  0.83061147588E+01  0.63104241367E+01  0.11786685066E+02  0.47000000000E+01 0. -1.
        -11    1    4    4    0    0 -0.23509896133E+02 -0.78973438801E+01 -0.12254348741E+03  0.12502795513E+03  0.00000000000E+00 0.  1.
         12    1    4    4    0    0  0.20216411120E+01  0.68442124580E+02 -0.57490533200E+03  0.57896852437E+03  0.00000000000E+00 0. -1.
         -5    1    5    5    0  502  0.53625625907E+02 -0.42111086414E+02  0.92363615752E+02  0.11490073484E+03  0.47000000000E+01 0.  1.
         11    1    6    6    0    0 -0.13056557474E+02 -0.48178667271E+02 -0.23693136433E+02  0.55254161718E+02  0.00000000000E+00 0. -1.
        -12    1    6    6    0    0 -0.21913294598E+02  0.21438858226E+02  0.12573594680E+02  0.33134761284E+02  0.00000000000E+00 0.  1.
</event>
<event>
12    1  0.8562501E-002  0.3028164E+03  0.7818608E-02  0.1083995E+00
         21   -1    0    0  501  502  0.00000000000E+00  0.00000000000E+00  0.25040151619E+03  0.25040151619E+03  0.00000000000E+00 0.  1.
         21   -1    0    0  502  503 -0.00000000000E+00 -0.00000000000E+00 -0.58458484918E+03  0.58458484918E+03  0.00000000000E+00 0. -1.
         -6    2    1    2    0  503 -0.31494166829E+02  0.24643937656E+03 -0.42335156661E+03  0.52050393595E+03  0.17312870797E+03 0.  0.
        -24    2    3    3    0    0  0.81380084214E+01  0.19049979241E+03 -0.20452654447E+03  0.29114302667E+03  0.81097203996E+02 0.  0.
          6    2    1    2  501    0  0.31494166829E+02 -0.24643937656E+03  0.89168233626E+02  0.31448242942E+03  0.17095021400E+03 0.  0.
         24    2    5    5    0    0  0.35949120655E+02 -0.17519484761E+03  0.12776482108E+03  0.23319641536E+03  0.77917550832E+02 0.  0.
          5    1    5    5  501    0 -0.44549538257E+01 -0.71244528950E+02 -0.38596587455E+02  0.81286014062E+02  0.47000000000E+01 0. -1.
        -13    1    6    6    0    0  0.58065831949E+02 -0.10002338541E+03  0.87987526234E+02  0.14532075984E+03  0.00000000000E+00 0.  1.
         14    1    6    6    0    0 -0.22116711294E+02 -0.75171462196E+02  0.39777294847E+02  0.87875655517E+02  0.00000000000E+00 0. -1.
         -5    1    3    3    0  503 -0.39632175250E+02  0.55939584147E+02 -0.21882502214E+03  0.22936090928E+03  0.47000000000E+01 0.  1.
         11    1    4    4    0    0 -0.31007566291E+02  0.13933970359E+03 -0.13838027672E+03  0.19881177819E+03  0.00000000000E+00 0. -1.
        -12    1    4    4    0    0  0.39145574713E+02  0.51160088822E+02 -0.66146267753E+02  0.92331248478E+02  0.00000000000E+00 0.  1.
</event>
<event>
12    1  0.8562501E-002  0.1856577E+03  0.7818608E-02  0.1162913E+00
         21   -1    0    0  501  502  0.00000000000E+00  0.00000000000E+00  0.55644630050E+03  0.55644630050E+03  0.00000000000E+00 0. -1.
         21   -1    0    0  502  503 -0.00000000000E+00 -0.00000000000E+00 -0.76943012602E+02  0.76943012602E+02  0.00000000000E+00 0. -1.
         -6    2    1    2    0  503  0.67934332925E+02  0.16028823597E+02  0.95757608768E+02  0.20709186977E+03  0.16983970711E+03 0.  0.
        -24    2    3    3    0    0  0.72275207348E+02  0.21492199739E+02  0.13217287819E+03  0.16971736621E+03  0.75157796783E+02 0.  0.
          6    2    1    2  501    0 -0.67934332925E+02 -0.16028823597E+02  0.38374567913E+03  0.42629744333E+03  0.17203710984E+03 0.  0.
         24    2    5    5    0    0 -0.94028366186E+01 -0.46987533085E+02  0.10824793684E+03  0.14291523895E+03  0.80068146550E+02 0.  0.
          5    1    5    5  501    0 -0.58531496307E+02  0.30958709488E+02  0.27549774229E+03  0.28338220438E+03  0.47000000000E+01 0. -1.
        -13    1    6    6    0    0  0.86633692182E+01  0.10791741665E+02 -0.48254151470E+01  0.14656066516E+02  0.00000000000E+00 0.  1.
         14    1    6    6    0    0 -0.18066205837E+02 -0.57779274749E+02  0.11307335198E+03  0.12825917243E+03  0.00000000000E+00 0. -1.
         -5    1    3    3    0  503 -0.43408744229E+01 -0.54633761420E+01 -0.36415269420E+02  0.37374503563E+02  0.47000000000E+01 0.  1.
         11    1    4    4    0    0  0.25935243757E+02 -0.74774705327E+01  0.32664009550E+00  0.26993631250E+02  0.00000000000E+00 0. -1.
        -12    1    4    4    0    0  0.46339963591E+02  0.28969670272E+02  0.13184623809E+03  0.14272373496E+03  0.00000000000E+00 0.  1.
</event>
<event>
12    1  0.8562501E-002  0.2003300E+03  0.7818608E-02  0.1149484E+00
         21   -1    0    0  501  502  0.00000000000E+00  0.00000000000E+00  0.22091060292E+03  0.22091060292E+03  0.00000000000E+00 0. -1.
         21   -1    0    0  502  503 -0.00000000000E+00 -0.00000000000E+00 -0.18560003863E+03  0.18560003863E+03  0.00000000000E+00 0.  1.
         -6    2    1    2    0  503 -0.43523332306E+02 -0.93759734256E+02  0.47610214731E+02  0.20580344015E+03  0.17147348252E+03 0.  0.
        -24    2    3    3    0    0 -0.18740567032E+02 -0.12864685752E+03  0.54512695150E+02  0.16220262525E+03  0.80229887833E+02 0.  0.
          6    2    1    2  501    0  0.43523332306E+02  0.93759734256E+02 -0.12299650440E+02  0.20070720140E+03  0.17160108121E+03 0.  0.
         24    2    5    5    0    0  0.21000982332E+02  0.13049808202E+03  0.21932871179E+01  0.15500055326E+03  0.80929415740E+02 0.  0.
          5    1    5    5  501    0  0.22522349973E+02 -0.36738347769E+02 -0.14492937558E+02  0.45706648140E+02  0.47000000000E+01 0. -1.
        -11    1    6    6    0    0 -0.13896475443E+02  0.11623638682E+03  0.52168838927E+01  0.11718031203E+03  0.00000000000E+00 0.  1.
         12    1    6    6    0    0  0.34897457775E+02  0.14261695208E+02 -0.30235967748E+01  0.37820241232E+02  0.00000000000E+00 0. -1.
         -5    1    3    3    0  503 -0.24782765273E+02  0.34887123264E+02 -0.69024804191E+01  0.43600814902E+02  0.47000000000E+01 0.  1.
         11    1    4    4    0    0  0.19675449938E+02 -0.10014706009E+03  0.22114161096E+02  0.10442984773E+03  0.00000000000E+00 0. -1.
        -12    1    4    4    0    0 -0.38416016970E+02 -0.28499797426E+02  0.32398534054E+02  0.57772777517E+02  0.00000000000E+00 0.  1.
</event>
<event>
12    1  0.8562501E-002  0.1919970E+03  0.7818608E-02  0.1156812E+00
         21   -1    0    0  501  502  0.00000000000E+00  0.00000000000E+00  0.18092217068E+03  0.18092217068E+03  0.00000000000E+00 0. -1.
         21   -1    0    0  502  503 -0.00000000000E+00 -0.00000000000E+00 -0.24795481063E+03  0.24795481063E+03  0.00000000000E+00 0.  1.
         -6    2    1    2    0  503  0.45613774457E+02 -0.74560922259E+02 -0.12469105689E+03  0.22840919374E+03  0.17024380332E+03 0.  0.
        -24    2    3    3    0    0  0.85300307576E+02 -0.12660375645E+02 -0.69362171424E+02  0.13626759537E+03  0.79506723871E+02 0.  0.
          6    2    1    2  501    0 -0.45613774457E+02  0.74560922259E+02  0.57658416935E+02  0.20046778757E+03  0.17094704812E+03 0.  0.
         24    2    5    5    0    0  0.29654834025E+00  0.27592843091E+02  0.88504690696E+02  0.12775368437E+03  0.87900345068E+02 0.  0.
          5    1    5    5  501    0 -0.45910322797E+02  0.46968079168E+02 -0.30846273761E+02  0.72714103206E+02  0.47000000000E+01 0. -1.
        -13    1    6    6    0    0  0.19154156514E+02  0.52524654935E+02  0.35528185827E+02  0.66241777421E+02  0.00000000000E+00 0.  1.
         14    1    6    6    0    0 -0.18857608174E+02 -0.24931811843E+02  0.52976504869E+02  0.61511906945E+02  0.00000000000E+00 0. -1.
         -5    1    3    3    0  503 -0.39686533118E+02 -0.61900546614E+02 -0.55328885466E+02  0.92141598363E+02  0.47000000000E+01 0.  1.
         13    1    4    4    0    0  0.85048620264E+02 -0.30380555943E+02 -0.75291534004E+02  0.11758001991E+03  0.00000000000E+00 0. -1.
        -14    1    4    4    0    0  0.25168731119E+00  0.17720180298E+02  0.59293625805E+01  0.18687575469E+02  0.00000000000E+00 0.  1.
</event>
<event>
12    1  0.8562501E-002  0.3755223E+03  0.7818608E-02  0.1052675E+00
         21   -1    0    0  501  502  0.00000000000E+00  0.00000000000E+00  0.51140928871E+03  0.51140928871E+03  0.00000000000E+00 0.  1.
         21   -1    0    0  502  503 -0.00000000000E+00 -0.00000000000E+00 -0.27869057617E+03  0.27869057617E+03  0.00000000000E+00 0. -1.
         -6    2    1    2    0  503 -0.20080475298E+03 -0.26591915025E+03  0.72038143890E+02  0.38236962242E+03  0.17315164072E+03 0.  0.
        -24    2    3    3    0    0 -0.22373124628E+03 -0.22211248667E+03  0.71724664193E+02  0.33270236823E+03  0.78465349531E+02 0.  0.
          6    2    1    2  501    0  0.20080475298E+03  0.26591915025E+03  0.16068056865E+03  0.40773024245E+03  0.17143559193E+03 0.  0.
         24    2    5    5    0    0  0.89016386445E+02  0.11864189967E+03  0.14484572217E+03  0.22209603280E+03  0.79665219150E+02 0.  0.
          5    1    5    5  501    0  0.11178836653E+03  0.14727725058E+03  0.15834846481E+02  0.18563420966E+03  0.47000000000E+01 0. -1.
        -13    1    6    6    0    0  0.97915313636E+02  0.11021375337E+03  0.10658445883E+03  0.18191956173E+03  0.00000000000E+00 0.  1.
         14    1    6    6    0    0 -0.88989271910E+01  0.84281462980E+01  0.38261263340E+02  0.40176471069E+02  0.00000000000E+00 0. -1.
         -5    1    3    3    0  503  0.22926493299E+02 -0.43806663579E+02  0.31347969702E+00  0.49667254187E+02  0.47000000000E+01 0.  1.
         11    1    4    4    0    0 -0.72206239327E+02 -0.12507865031E+03  0.22569702742E+02  0.14617729387E+03  0.00000000000E+00 0. -1.
        -12    1    4    4    0    0 -0.15152500695E+03 -0.97033836361E+02  0.49154961451E+02  0.18652507436E+03  0.00000000000E+00 0.  1.
</event>
<event>
12    1  0.8562501E-002  0.2039170E+03  0.7818608E-02  0.1146597E+00
         21   -1    0    0  501  502  0.00000000000E+00  0.00000000000E+00  0.11431289897E+04  0.11431289897E+04  0.00000000000E+00 0.  1.
         21   -1    0    0  502  503 -0.00000000000E+00 -0.00000000000E+00 -0.36483286993E+02  0.36483286993E+02  0.00000000000E+00 0.  1.
         -6    2    1    2    0  503  0.93492727123E+02 -0.48462428859E+02  0.50910195389E+03  0.54842223927E+03  0.17462146500E+03 0.  0.
        -24    2    3    3    0    0  0.77636936881E+02 -0.64398882929E+02  0.50935425614E+03  0.52545421130E+03  0.80533594422E+02 0.  0.
          6    2    1    2  501    0 -0.93492727123E+02  0.48462428859E+02  0.59754374878E+03  0.63119003738E+03  0.17393341988E+03 0.  0.
         24    2    5    5    0    0 -0.89608436120E+02 -0.29940504184E+01  0.23273894464E+03  0.26272363173E+03  0.82569087149E+02 0.  0.
          5    1    5    5  501    0 -0.38842910033E+01  0.51456479277E+02  0.36480480413E+03  0.36846640565E+03  0.47000000000E+01 0. -1.
        -11    1    6    6    0    0 -0.10516147722E+03 -0.39764307858E+00  0.21220933802E+03  0.23683728076E+03  0.00000000000E+00 0.  1.
         12    1    6    6    0    0  0.15553041103E+02 -0.25964073398E+01  0.20529606622E+02  0.25886350973E+02  0.00000000000E+00 0. -1.
         -5    1    3    3    0  503  0.15855790242E+02  0.15936454069E+02 -0.25230225315E+00  0.22968027973E+02  0.47000000000E+01 0.  1.
         11    1    4    4    0    0  0.10498460050E+02 -0.60836748687E+02  0.23319443210E+03  0.24122804732E+03  0.00000000000E+00 0. -1.
        -12    1    4    4    0    0  0.67138476831E+02 -0.35621342412E+01  0.27615982405E+03  0.28422616398E+03  0.00000000000E+00 0.  1.
</event>
<event>
12    1  0.8562501E-002  0.1945721E+03  0.7818608E-02  0.1155152E+00
         21   -1    0    0  503  502  0.00000000000E+00  0.00000000000E+00  0.59520164081E+02  0.59520164081E+02  0.00000000000E+00 0. -1.
         21   -1    0    0  501  503 -0.00000000000E+00 -0.00000000000E+00 -0.77007687505E+03  0.77007687505E+03  0.00000000000E+00 0. -1.
          6    2    1    2  501    0 -0.35854555951E+02  0.85945363427E+02 -0.53786517542E+03  0.57197663248E+03  0.17083959289E+03 0.  0.
         24    2    3    3    0    0 -0.55926241930E+02  0.65561904227E+02 -0.52900823936E+03  0.54166337955E+03  0.78252102876E+02 0.  0.
         -6    2    1    2    0  502  0.35854555951E+02 -0.85945363427E+02 -0.17269153556E+03  0.25762040666E+03  0.16695434345E+03 0.  0.
        -24    2    5    5    0    0  0.11741569589E+02 -0.16210975444E+02 -0.15966374115E+02  0.84331090174E+02  0.80350155484E+02 0.  0.
          5    1    3    3  501    0  0.20071685980E+02  0.20383459200E+02 -0.88569360528E+01  0.30313252931E+02  0.47000000000E+01 0. -1.
        -13    1    4    4    0    0  0.10326919122E+02  0.18106792009E+01 -0.19352952261E+03  0.19381331208E+03  0.00000000000E+00 0.  1.
         14    1    4    4    0    0 -0.66253161053E+02  0.63751225026E+02 -0.33547871676E+03  0.34785006747E+03  0.00000000000E+00 0. -1.
         -5    1    5    5    0  502  0.24112986362E+02 -0.69734387983E+02 -0.15672516144E+03  0.17328931648E+03  0.47000000000E+01 0.  1.
         13    1    6    6    0    0  0.14300199806E+02 -0.47201202395E+02 -0.19500833583E+02  0.53035193338E+02  0.00000000000E+00 0. -1.
        -14    1    6    6    0    0 -0.25586302172E+01  0.30990226950E+02  0.35344594680E+01  0.31295896836E+02  0.00000000000E+00 0.  1.
</event>
<event>
12    1  0.8562501E-002  0.2010091E+03  0.7818608E-02  0.1150430E+00
         21   -1    0    0  501  502  0.00000000000E+00  0.00000000000E+00  0.12227641925E+04  0.12227641925E+04  0.00000000000E+00 0. -1.
         21   -1    0    0  502  503 -0.00000000000E+00 -0.00000000000E+00 -0.49884694352E+02  0.49884694352E+02  0.00000000000E+00 0. -1.
         -6    2    1    2    0  503 -0.78895393063E+02  0.43089698256E+02  0.19725584976E+03  0.27653334533E+03  0.17169628904E+03 0.  0.
        -24    2    3    3    0    0 -0.71306307357E+02 -0.19919513029E+02  0.18134883581E+03  0.21093701905E+03  0.78266527249E+02 0.  0.
          6    2    1    2  501    0  0.78895393063E+02 -0.43089698256E+02  0.97562364841E+03  0.99611554154E+03  0.17978727327E+03 0.  0.
         24    2    5    5    0    0  0.10083816038E+03 -0.76889654879E+02  0.61227172822E+03  0.63050559911E+03  0.81118972556E+02 0.  0.
          5    1    5    5  501    0 -0.21942767319E+02  0.33799956624E+02  0.36335192019E+03  0.36560994244E+03  0.47000000000E+01 0. -1.
        -13    1    6    6    0    0  0.25819616905E+01  0.13392243973E+02  0.10880281350E+03  0.10965432481E+03  0.00000000000E+00 0.  1.
         14    1    6    6    0    0  0.98256198692E+02 -0.90281898853E+02  0.50346891473E+03  0.52085127430E+03  0.00000000000E+00 0. -1.
         -5    1    3    3    0  503 -0.75890857063E+01  0.63009211284E+02  0.15907013950E+02  0.65596326279E+02  0.47000000000E+01 0.  1.
         13    1    4    4    0    0 -0.51338323949E+02  0.25968515965E+02  0.91251197713E+02  0.10787385416E+03  0.00000000000E+00 0. -1.
        -14    1    4    4    0    0 -0.19967983408E+02 -0.45888028994E+02  0.90097638096E+02  0.10306316489E+03  0.00000000000E+00 0.  1.
</event>
<event>
12    1  0.8562501E-002  0.2835246E+03  0.7818608E-02  0.1093868E+00
         21   -1    0    0  503  502  0.00000000000E+00  0.00000000000E+00  0.21648529307E+03  0.21648529307E+03  0.00000000000E+00 0. -1.
         21   -1    0    0  501  503 -0.00000000000E+00 -0.00000000000E+00 -0.60050862846E+03  0.60050862846E+03  0.00000000000E+00 0. -1.
          6    2    1    2  501    0 -0.21427570266E+03 -0.62918074151E+02 -0.44498534398E+03  0.52763451502E+03  0.17468103584E+03 0.  0.
         24    2    3    3    0    0 -0.49927301037E+02 -0.56877718474E+02 -0.10777020867E+03  0.15242388019E+03  0.76751619706E+02 0.  0.
         -6    2    1    2    0  502  0.21427570266E+03  0.62918074151E+02  0.60962008589E+02  0.28935940650E+03  0.17360800338E+03 0.  0.
        -24    2    5    5    0    0  0.62900441364E+02  0.81291577742E+01  0.75645682054E+02  0.12763743720E+03  0.80910428447E+02 0.  0.
          5    1    3    3  501    0 -0.16434840162E+03 -0.60403556775E+01 -0.33721513531E+03  0.37521063483E+03  0.47000000000E+01 0. -1.
        -11    1    4    4    0    0 -0.46628978209E+02 -0.63543492360E+02 -0.11668768874E+03  0.14081212211E+03  0.00000000000E+00 0.  1.
         12    1    4    4    0    0 -0.32983228282E+01  0.66657738861E+01  0.89174800663E+01  0.11611758080E+02  0.00000000000E+00 0. -1.
         -5    1    5    5    0  502  0.15137526129E+03  0.54788916377E+02 -0.14683673464E+02  0.16172196930E+03  0.47000000000E+01 0.  1.
         13    1    6    6    0    0  0.58916653832E+02 -0.14855534014E+02  0.83282882985E+02  0.10309169505E+03  0.00000000000E+00 0. -1.
        -14    1    6    6    0    0  0.39837875317E+01  0.22984691788E+02 -0.76372009309E+01  0.24545742151E+02  0.00000000000E+00 0.  1.
</event>
<event>
12    1  0.8562501E-002  0.2146611E+03  0.7818608E-02  0.1141460E+00
         21   -1    0    0  501  502  0.00000000000E+00  0.00000000000E+00  0.42095202524E+03  0.42095202524E+03  0.00000000000E+00 0. -1.
         21   -1    0    0  502  503 -0.00000000000E+00 -0.00000000000E+00 -0.13837181581E+03  0.13837181581E+03  0.00000000000E+00 0. -1.
         -6    2    1    2    0  503  0.83320859528E+02 -0.46318694663E+02 -0.15092518796E+00  0.21466112528E+03  0.19233197555E+03 0.  0.
        -24    2    3    3    0    0  0.78566181970E+02 -0.39459665308E+02  0.74381061420E+02  0.13951619684E+03  0.78756058475E+02 0.  0.
          6    2    1    2  501    0 -0.83320859528E+02  0.46318694663E+02  0.28273113462E+03  0.34466271577E+03  0.17253320275E+03 0.  0.
         24    2    5    5    0    0 -0.11626979444E+02  0.83504736671E+02  0.17731657368E+03  0.21178256745E+03  0.79388039868E+02 0.  0.
          5    1    5    5  501    0 -0.71693880084E+02 -0.37186042008E+02  0.10541456093E+03  0.13288014832E+03  0.47000000000E+01 0. -1.
        -11    1    6    6    0    0 -0.46344785789E+00  0.31309399117E+02  0.54055785524E+01  0.31775989937E+02  0.00000000000E+00 0.  1.
         12    1    6    6    0    0 -0.11163531586E+02  0.52195337554E+02  0.17191099513E+03  0.18000657751E+03  0.00000000000E+00 0. -1.
         -5    1    3    3    0  503  0.47546775577E+01 -0.68590293555E+01 -0.74531986608E+02  0.75144928439E+02  0.47000000000E+01 0.  1.
         11    1    4    4    0    0  0.57999780031E+02 -0.55871803707E+02  0.78987649646E+02  0.11280373101E+03  0.00000000000E+00 0. -1.
        -12    1    4    4    0    0  0.20566401939E+02  0.16412138399E+02 -0.46065882260E+01  0.26712465828E+02  0.00000000000E+00 0.  1.
</event>
<event>
12    1  0.8562501E-002  0.2373268E+03  0.7818608E-02  0.1123275E+00
         21   -1    0    0  503  502  0.00000000000E+00  0.00000000000E+00  0.16943603550E+03  0.16943603550E+03  0.00000000000E+00 0.  1.
         21   -1    0    0  501  503 -0.00000000000E+00 -0.00000000000E+00 -0.36740154625E+03  0.36740154625E+03  0.00000000000E+00 0.  1.
          6    2    1    2  501    0  0.12257528741E+03 -0.87340120039E+02 -0.19471065384E+03  0.29948850225E+03  0.17066964173E+03 0.  0.
         24    2    3    3    0    0  0.12706353672E+03 -0.42242240626E+02 -0.78382855417E+02  0.17455568112E+03  0.79976649911E+02 0.  0.
         -6    2    1    2    0  502 -0.12257528741E+03  0.87340120039E+02 -0.32548569193E+01  0.23734907950E+03  0.18349657706E+03 0.  0.
        -24    2    5    5    0    0  0.82690282874E+01  0.38804537674E+02 -0.54625894852E+02  0.88563961816E+02  0.57318565676E+02 0.  0.
          5    1    3    3  501    0 -0.44882493061E+01 -0.45097879413E+02 -0.11632779842E+03  0.12493282113E+03  0.47000000000E+01 0. -1.
        -13    1    4    4    0    0  0.47273678078E+02 -0.21685728614E+02 -0.76041625049E+02  0.92127087247E+02  0.00000000000E+00 0.  1.
         14    1    4    4    0    0  0.79789858643E+02 -0.20556512012E+02 -0.23412303681E+01  0.82428593874E+02  0.00000000000E+00 0. -1.
         -5    1    5    5    0  502 -0.13084431570E+03  0.48535582365E+02  0.51371037933E+02  0.14878511769E+03  0.47000000000E+01 0.  1.
         13    1    6    6    0    0 -0.90070835051E+01  0.41067334571E+02 -0.57159801170E+02  0.70957003825E+02  0.00000000000E+00 0. -1.
        -14    1    6    6    0    0  0.17276111792E+02 -0.22627968966E+01  0.25339063174E+01  0.17606957991E+02  0.00000000000E+00 0.  1.
</event>
<event>
12    1  0.8562501E-002  0.1744820E+03  0.7818608E-02  0.1173571E+00
         21   -1    0    0  503  502  0.00000000000E+00  0.00000000000E+00  0.18329736933E+03  0.18329736933E+03  0.00000000000E+00 0.  1.
         21   -1    0    0  501  503 -0.00000000000E+00 -0.00000000000E+00 -0.44199952455E+03  0.44199952455E+03  0.00000000000E+00 0.  1.
          6    2    1    2  501    0  0.24310571179E+02 -0.15488095747E+02 -0.37672841984E+03  0.41464511782E+03  0.17080803975E+03 0.  0.
         24    2    3    3    0    0 -0.44947431686E+02  0.23112590914E+02 -0.20830573270E+03  0.22843293908E+03  0.78967499049E+02 0.  0.
         -6    2    1    2    0  502 -0.24310571179E+02  0.15488095747E+02  0.11802626461E+03  0.21065177606E+03  0.17208453341E+03 0.  0.
        -24    2    5    5    0    0  0.48401145753E+02 -0.57664419580E+01  0.38811014294E+02  0.10094354922E+03  0.79419031324E+02 0.  0.
          5    1    3    3  501    0  0.69258002865E+02 -0.38600686661E+02 -0.16842268714E+03  0.18621217875E+03  0.47000000000E+01 0. -1.
        -11    1    4    4    0    0 -0.29371344170E+02  0.16028233025E+02 -0.20865210036E+03  0.21131795735E+03  0.00000000000E+00 0.  1.
         12    1    4    4    0    0 -0.15576087516E+02  0.70843578886E+01  0.34636766334E+00  0.17114981728E+02  0.00000000000E+00 0. -1.
         -5    1    5    5    0  502 -0.72711716932E+02  0.21254537705E+02  0.79215250316E+02  0.10970822683E+03  0.47000000000E+01 0.  1.
         11    1    6    6    0    0  0.27096908366E+02  0.21949322424E+02 -0.14028179260E+02  0.37587298536E+02  0.00000000000E+00 0. -1.
        -12    1    6    6    0    0  0.21304237387E+02 -0.27715764382E+02  0.52839193554E+02  0.63356250689E+02  0.00000000000E+00 0.  1.
</event>
<event>
12    1  0.8562501E-002  0.1909217E+03  0.7818608E-02  0.1157853E+00
         21   -1    0    0  503  502  0.00000000000E+00  0.00000000000E+00  0.36273515810E+03  0.36273515810E+03  0.00000000000E+00 0.  1.
         21   -1    0    0  501  503 -0.00000000000E+00 -0.00000000000E+00 -0.27185024117E+03  0.27185024117E+03  0.00000000000E+00 0. -1.
          6    2    1    2  501    0  0.39027777453E+02 -0.68638634706E+02 -0.20680625304E+03  0.28146033100E+03  0.17382940500E+03 0.  0.
         24    2    3    3    0    0  0.16088998597E+02  0.81285967243E+01 -0.28481140566E+02  0.85906422486E+02  0.79017770760E+02 0.  0.
         -6    2    1    2    0  502 -0.39027777453E+02  0.68638634706E+02  0.29769116997E+03  0.35312506827E+03  0.17275083669E+03 0.  0.
        -24    2    5    5    0    0 -0.36142651804E+02  0.56664172698E+02  0.83364876862E+02  0.13839369747E+03  0.87669795582E+02 0.  0.
          5    1    3    3  501    0  0.22938778856E+02 -0.76767231430E+02 -0.17832511248E+03  0.19555390852E+03  0.47000000000E+01 0. -1.
        -13    1    4    4    0    0  0.46804108738E+02 -0.16306274639E+00 -0.27051840253E+02  0.54059719249E+02  0.00000000000E+00 0.  1.
         14    1    4    4    0    0 -0.30715110141E+02  0.82916594707E+01 -0.14293003133E+01  0.31846703238E+02  0.00000000000E+00 0. -1.
         -5    1    5    5    0  502 -0.28851256495E+01  0.11974462008E+02  0.21432629311E+03  0.21473137081E+03  0.47000000000E+01 0.  1.
         11    1    6    6    0    0  0.18594684621E+02 -0.97050092167E+01  0.31799252910E+02  0.38093857584E+02  0.00000000000E+00 0. -1.
        -12    1    6    6    0    0 -0.54737336424E+02  0.66369181915E+02  0.51565623952E+02  0.10029983988E+03  0.00000000000E+00 0.  1.
</event>
<event>
12    1  0.8562501E-002  0.2650798E+03  0.7818608E-02  0.1104200E+00
         21   -1    0    0  501  502  0.00000000000E+00  0.00000000000E+00  0.32695983491E+03  0.32695983491E+03  0.00000000000E+00 0.  1.
         21   -1    0    0  502  503 -0.00000000000E+00 -0.00000000000E+00 -0.39423588374E+03  0.39423588374E+03  0.00000000000E+00 0.  1.
         -6    2    1    2    0  503  0.19859010506E+03  0.35823297323E+02 -0.27708790696E+03  0.38313014078E+03  0.17114221609E+03 0.  0.
        -24    2    3    3    0    0  0.17380791265E+03  0.58049123665E+02 -0.14551971732E+03  0.24733462192E+03  0.80122005809E+02 0.  0.
          6    2    1    2  501    0 -0.19859010506E+03 -0.35823297323E+02  0.20981185813E+03  0.33806557787E+03  0.17188944316E+03 0.  0.
         24    2    5    5    0    0 -0.17394441853E+03 -0.74788978935E+02  0.12302869318E+03  0.23968294766E+03  0.80385346587E+02 0.  0.
          5    1    5    5  501    0 -0.24645686530E+02  0.38965681611E+02  0.86783164952E+02  0.98382630210E+02  0.47000000000E+01 0. -1.
        -11    1    6    6    0    0 -0.15169273602E+03 -0.86083023585E+02  0.84569407530E+02  0.19383745201E+03  0.00000000000E+00 0.  1.
         12    1    6    6    0    0 -0.22251682514E+02  0.11294044650E+02  0.38459285649E+02  0.45845495655E+02  0.00000000000E+00 0. -1.
         -5    1    3    3    0  503  0.24782192416E+02 -0.22225826342E+02 -0.13156818963E+03  0.13579551885E+03  0.47000000000E+01 0.  1.
         11    1    4    4    0    0  0.49123062780E+02 -0.16976184839E+02 -0.21906362760E+02  0.56401727615E+02  0.00000000000E+00 0. -1.
        -12    1    4    4    0    0  0.12468484987E+03  0.75025308504E+02 -0.12361335456E+03  0.19093289431E+03  0.00000000000E+00 0.  1.
</event>
<event>
12    1  0.8562501E-002  0.1852254E+03  0.7818608E-02  0.1163634E+00
         21   -1    0    0  501  502  0.00000000000E+00  0.00000000000E+00  0.79324810445E+03  0.79324810445E+03  0.00000000000E+00 0.  1.
         21   -1    0    0  502  503 -0.00000000000E+00 -0.00000000000E+00 -0.61362967033E+02  0.61362967033E+02  0.00000000000E+00 0.  1.
         -6    2    1    2    0  503 -0.50422528536E+02 -0.46536276356E+02  0.12649668728E+03  0.22152055097E+03  0.16840987563E+03 0.  0.
        -24    2    3    3    0    0  0.10098860363E+02 -0.16403933718E+02  0.50192511021E+01  0.82417516902E+02  0.79977360475E+02 0.  0.
          6    2    1    2  501    0  0.50422528536E+02  0.46536276356E+02  0.60538845014E+03  0.63309052052E+03  0.17204759574E+03 0.  0.
         24    2    5    5    0    0  0.63504296937E+02 -0.32140163084E+02  0.27291749563E+03  0.29115464878E+03  0.72258454669E+02 0.  0.
          5    1    5    5  501    0 -0.13081768402E+02  0.78676439440E+02  0.33247095451E+03  0.34193587174E+03  0.47000000000E+01 0. -1.
        -11    1    6    6    0    0  0.61164873961E+02  0.21814852155E+01  0.21732708233E+03  0.22578078173E+03  0.00000000000E+00 0.  1.
         12    1    6    6    0    0  0.23394229767E+01 -0.34321648299E+02  0.55590413296E+02  0.65373867044E+02  0.00000000000E+00 0. -1.
         -5    1    3    3    0  503 -0.60521388898E+02 -0.30132342638E+02  0.12147743617E+03  0.13910303407E+03  0.47000000000E+01 0.  1.
         13    1    4    4    0    0  0.81525075750E+01  0.32262734884E+02  0.53900377949E+01  0.33710531728E+02  0.00000000000E+00 0. -1.
        -14    1    4    4    0    0  0.19463527876E+01 -0.48666668602E+02 -0.37078669281E+00  0.48706985174E+02  0.00000000000E+00 0.  1.
</event>
<event>
12    1  0.8562501E-002  0.1966751E+03  0.7818608E-02  0.1153489E+00
         21   -1    0    0  503  502  0.00000000000E+00  0.00000000000E+00  0.96825182455E+03  0.96825182455E+03  0.00000000000E+00 0.  1.
         21   -1    0    0  501  503 -0.00000000000E+00 -0.00000000000E+00 -0.70886267071E+02  0.70886267071E+02  0.00000000000E+00 0.  1.
          6    2    1    2  501    0 -0.58189572035E+02  0.64490858389E+02  0.10345230083E+03  0.22222393672E+03  0.17645396678E+03 0.  0.
         24    2    3    3    0    0 -0.13343352742E+02  0.36545396728E+02 -0.17686217186E+02  0.89978850761E+02  0.79181943784E+02 0.  0.
         -6    2    1    2    0  502  0.58189572035E+02 -0.64490858389E+02  0.79391325665E+03  0.81691415490E+03  0.17177130230E+03 0.  0.
        -24    2    5    5    0    0  0.87677988785E+02 -0.93545836782E+02  0.63631201301E+03  0.65389881671E+03  0.79072316849E+02 0.  0.
          5    1    3    3  501    0 -0.44846219293E+02  0.27945461662E+02  0.12113851802E+03  0.13224508596E+03  0.47000000000E+01 0.  1.
        -13    1    4    4    0    0  0.45303298811E+01 -0.17566060714E+02 -0.26703727073E+02  0.32282803742E+02  0.00000000000E+00 0.  1.
         14    1    4    4    0    0 -0.17873682623E+02  0.54111457442E+02  0.90175098872E+01  0.57696047019E+02  0.00000000000E+00 0. -1.
         -5    1    5    5    0  502 -0.29488416750E+02  0.29054978393E+02  0.15760124363E+03  0.16301533819E+03  0.47000000000E+01 0.  1.
         13    1    6    6    0    0  0.56515480294E+02 -0.15676604487E+02  0.16340130926E+03  0.17360801626E+03  0.00000000000E+00 0. -1.
        -14    1    6    6    0    0  0.31162508490E+02 -0.77869232296E+02  0.47291070375E+03  0.48029080045E+03  0.00000000000E+00 0.  1.
</event>
<event>
12    1  0.8562501E-002  0.1799889E+03  0.7818608E-02  0.1168277E+00
         21   -1    0    0  501  502  0.00000000000E+00  0.00000000000E+00  0.66473144155E+02  0.66473144155E+02  0.00000000000E+00 0. -1.
         21   -1    0    0  502  503 -0.00000000000E+00 -0.00000000000E+00 -0.12095516072E+04  0.12095516072E+04  0.00000000000E+00 0. -1.
         -6    2    1    2    0  503  0.20191361089E+02  0.45871976262E+02 -0.10674979853E+04  0.10825654480E+04  0.17287009953E+03 0.  0.
        -24    2    3    3    0    0  0.30047971046E+02  0.95539273824E+02 -0.79725428385E+03  0.80757864580E+03  0.80859400426E+02 0.  0.
          6    2    1    2  501    0 -0.20191361089E+02 -0.45871976262E+02 -0.75580477659E+02  0.19345930327E+03  0.17088640715E+03 0.  0.
         24    2    5    5    0    0 -0.71827241084E+02 -0.38125370226E+02 -0.82256460318E+02  0.14061109845E+03  0.79954107637E+02 0.  0.
          5    1    5    5  501    0  0.51635879995E+02 -0.77466060360E+01  0.66759826591E+01  0.52848204817E+02  0.47000000000E+01 0. -1.
        -13    1    6    6    0    0 -0.54076907383E+02 -0.42403839465E+02 -0.14230894034E+02  0.70177744752E+02  0.00000000000E+00 0.  1.
         14    1    6    6    0    0 -0.17750333701E+02  0.42784692393E+01 -0.68025566284E+02  0.70433353703E+02  0.00000000000E+00 0. -1.
         -5    1    3    3    0  503 -0.98566099572E+01 -0.49667297562E+02 -0.27024370150E+03  0.27498680224E+03  0.47000000000E+01 0.  1.
         11    1    4    4    0    0 -0.26303392750E+02  0.43095248341E+02 -0.26240115839E+03  0.26721421524E+03  0.00000000000E+00 0. -1.
        -12    1    4    4    0    0  0.56351363796E+02  0.52444025482E+02 -0.53485312546E+03  0.54036443057E+03  0.00000000000E+00 0.  1.
</event>
<event>
12    1  0.8562501E-002  0.2216393E+03  0.7818608E-02  0.1132695E+00
         21   -1    0    0  503  502  0.00000000000E+00  0.00000000000E+00  0.19640283891E+04  0.19640283891E+04  0.00000000000E+00 0. -1.
         21   -1    0    0  501  503 -0.00000000000E+00 -0.00000000000E+00 -0.10325877878E+03  0.10325877878E+03  0.00000000000E+00 0. -1.
          6    2    1    2  501    0 -0.13370998518E+03  0.35945411315E+02  0.30573902628E+02  0.22373809442E+03  0.17307090640E+03 0.  0.
         24    2    3    3    0    0 -0.52175272661E+02  0.83336365433E+02  0.29756862841E+02  0.12931050612E+03  0.78539972163E+02 0.  0.
         -6    2    1    2    0  502  0.13370998518E+03 -0.35945411315E+02  0.18301957077E+04  0.18435490734E+04  0.17287690722E+03 0.  0.
        -24    2    5    5    0    0  0.88712091018E+02 -0.90133881732E+02  0.11627679806E+04  0.11723985227E+04  0.80591362654E+02 0.  0.
          5    1    3    3  501    0 -0.81534712520E+02 -0.47390954118E+02  0.81703978656E+00  0.94427588299E+02  0.47000000000E+01 0. -1.
        -11    1    4    4    0    0 -0.64584864586E+02  0.90704041504E+02  0.27604637354E+02  0.11471897786E+03  0.00000000000E+00 0.  1.
         12    1    4    4    0    0  0.12409591925E+02 -0.73676760709E+01  0.21522254868E+01  0.14591528261E+02  0.00000000000E+00 0. -1.
         -5    1    5    5    0  502  0.44997894163E+02  0.54188470417E+02  0.66742772708E+03  0.67115055068E+03  0.47000000000E+01 0.  1.
         13    1    6    6    0    0  0.91018462480E+02 -0.39923991068E+02  0.73581468156E+03  0.74249682233E+03  0.00000000000E+00 0. -1.
        -14    1    6    6    0    0 -0.23063714625E+01 -0.50209890664E+02  0.42695329902E+03  0.42990170041E+03  0.00000000000E+00 0.  1.
</event>
<event>
12    1  0.8562501E-002  0.2041336E+03  0.7818608E-02  0.1147466E+00
         21   -1    0    0  503  502  0.00000000000E+00  0.00000000000E+00  0.21243019400E+04  0.21243019400E+04  0.00000000000E+00 0.  1.
         21   -1    0    0  501  503 -0.00000000000E+00 -0.00000000000E+00 -0.22365060946E+02  0.22365060946E+02  0.00000000000E+00 0. -1.
          6    2    1    2  501    0 -0.36593805539E+02 -0.90660183853E+02  0.65220530258E+03  0.68340490669E+03  0.17919858883E+03 0.  0.
         24    2    3    3    0    0 -0.45133595732E+02 -0.74947162449E+02  0.21628079428E+03  0.24708840002E+03  0.81370614028E+02 0.  0.
         -6    2    1    2    0  502  0.36593805539E+02  0.90660183853E+02  0.14497315765E+04  0.14632620943E+04  0.17278870655E+03 0.  0.
        -24    2    5    5    0    0 -0.21483255071E+02  0.53383372441E+02  0.12013899700E+04  0.12054673132E+04  0.80636644560E+02 0.  0.
          5    1    3    3  501    0  0.85397901931E+01 -0.15713021404E+02  0.43592450830E+03  0.43631650667E+03  0.47000000000E+01 0. -1.
        -11    1    4    4    0    0  0.82142223869E+01 -0.14917719957E+02  0.71026150343E+00  0.17044538408E+02  0.00000000000E+00 0.  1.
         12    1    4    4    0    0 -0.53347818119E+02 -0.60029442492E+02  0.21557053278E+03  0.23004386161E+03  0.00000000000E+00 0. -1.
         -5    1    5    5    0  502  0.58077060610E+02  0.37276811412E+02  0.24834160646E+03  0.25779478105E+03  0.47000000000E+01 0.  1.
         11    1    6    6    0    0 -0.26946985477E+02  0.70887730274E+02  0.77985404640E+03  0.78353273322E+03  0.00000000000E+00 0. -1.
        -12    1    6    6    0    0  0.54637304059E+01 -0.17504357834E+02  0.42153592363E+03  0.42193458000E+03  0.00000000000E+00 0.  1.
</event>
<event>
12    1  0.8562501E-002  0.1726638E+03  0.7818608E-02  0.1175546E+00
         21   -1    0    0  503  502  0.00000000000E+00  0.00000000000E+00  0.67565255020E+02  0.67565255020E+02  0.00000000000E+00 0. -1.
         21   -1    0    0  501  503 -0.00000000000E+00 -0.00000000000E+00 -0.72744530843E+03  0.72744530843E+03  0.00000000000E+00 0. -1.
          6    2    1    2  501    0  0.56100024963E+01  0.22112545142E+02 -0.58220158419E+03  0.60726556720E+03  0.17115007358E+03 0.  0.
         24    2    3    3    0    0  0.39024989814E+02 -0.18305600286E+01 -0.15181915153E+03  0.17489886866E+03  0.77551651856E+02 0.  0.
         -6    2    1    2    0  502 -0.56100024963E+01 -0.22112545142E+02 -0.77678469215E+02  0.18774499625E+03  0.16939245041E+03 0.  0.
        -24    2    5    5    0    0 -0.62985774567E+02 -0.40170373448E+02 -0.59993409833E+02  0.12487277894E+03  0.80082051651E+02 0.  0.
          5    1    3    3  501    0 -0.33414987318E+02  0.23943105171E+02 -0.43038243266E+03  0.43236669854E+03  0.47000000000E+01 0. -1.
        -13    1    4    4    0    0  0.19718350500E+02  0.35834307286E+02 -0.49766541106E+02  0.64417540614E+02  0.00000000000E+00 0.  1.
         14    1    4    4    0    0  0.19306639314E+02 -0.37664867314E+02 -0.10205261043E+03  0.11048132804E+03  0.00000000000E+00 0. -1.
         -5    1    5    5    0  502  0.57375772071E+02  0.18057828306E+02 -0.17685059382E+02  0.62872217308E+02  0.47000000000E+01 0.  1.
         11    1    6    6    0    0 -0.74846162656E+01  0.44879744580E+01  0.17534312832E+02  0.19586054270E+02  0.00000000000E+00 0. -1.
        -12    1    6    6    0    0 -0.55501158302E+02 -0.44658347906E+02 -0.77527722665E+02  0.10528672467E+03  0.00000000000E+00 0.  1.
</event>
<event>
12    1  0.8562501E-002  0.3313923E+03  0.7818608E-02  0.1071235E+00
         21   -1    0    0  501  502  0.00000000000E+00  0.00000000000E+00  0.15444302212E+04  0.15444302212E+04  0.00000000000E+00 0. -1.
         21   -1    0    0  502  503 -0.00000000000E+00 -0.00000000000E+00 -0.76129945694E+02  0.76129945694E+02  0.00000000000E+00 0.  1.
         -6    2    1    2    0  503 -0.14393932117E+02 -0.27540073555E+03  0.97548443152E+03  0.10302381954E+04  0.18376102053E+03 0.  0.
        -24    2    3    3    0    0  0.17706998623E+02 -0.28515155879E+03  0.84905925231E+03  0.89935288587E+03  0.79429529161E+02 0.  0.
          6    2    1    2  501    0  0.14393932117E+02  0.27540073555E+03  0.49281584403E+03  0.59032197156E+03  0.17192970527E+03 0.  0.
         24    2    5    5    0    0 -0.49985275678E+02  0.19352360064E+03  0.27972418000E+03  0.35309066060E+03  0.80482830090E+02 0.  0.
          5    1    5    5  501    0  0.64379207796E+02  0.81877134904E+02  0.21309166403E+03  0.23723131096E+03  0.47000000000E+01 0. -1.
        -11    1    6    6    0    0 -0.47255434342E+01  0.11311139389E+03  0.99950813249E+02  0.15101881756E+03  0.00000000000E+00 0.  1.
         12    1    6    6    0    0 -0.45259732244E+02  0.80412206748E+02  0.17977336675E+03  0.20207184304E+03  0.00000000000E+00 0. -1.
         -5    1    3    3    0  503 -0.32100930741E+02  0.97508232474E+01  0.12642517921E+03  0.13088530952E+03  0.47000000000E+01 0.  1.
         11    1    4    4    0    0 -0.17615433333E+02 -0.23089619011E+03  0.67778963414E+03  0.71625564029E+03  0.00000000000E+00 0. -1.
        -12    1    4    4    0    0  0.35322431956E+02 -0.54255368687E+02  0.17126961817E+03  0.18309724558E+03  0.00000000000E+00 0.  1.
</event>
<event>
12    1  0.8562501E-002  0.2727840E+03  0.7818608E-02  0.1099992E+00
         21   -1    0    0  503  502  0.00000000000E+00  0.00000000000E+00  0.11819381284E+03  0.11819381284E+03  0.00000000000E+00 0.  1.
         21   -1    0    0  501  503 -0.00000000000E+00 -0.00000000000E+00 -0.80554630642E+03  0.80554630642E+03  0.00000000000E+00 0.  1.
          6    2    1    2  501    0 -0.16531591140E+03  0.12824939879E+03 -0.56145234761E+03  0.62330381834E+03  0.17176045084E+03 0.  0.
         24    2    3    3    0    0 -0.24209521322E+02  0.35489366967E+02 -0.28327327641E+03  0.29784856416E+03  0.81390551971E+02 0.  0.
         -6    2    1    2    0  502  0.16531591140E+03 -0.12824939879E+03 -0.12590014597E+03  0.30043630092E+03  0.17502532760E+03 0.  0.
        -24    2    5    5    0    0  0.39579458393E+02 -0.79073121589E+01 -0.54534876748E+02  0.11226891511E+03  0.89449412556E+02 0.  0.
          5    1    3    3  501    0 -0.14110639008E+03  0.92760031827E+02 -0.27817907119E+03  0.32545525418E+03  0.47000000000E+01 0. -1.
        -11    1    4    4    0    0 -0.15022152657E+02  0.11259814404E+02 -0.65031934469E+01  0.19868065227E+02  0.00000000000E+00 0.  1.
         12    1    4    4    0    0 -0.91873686651E+01  0.24229552564E+02 -0.27677008297E+03  0.27798049893E+03  0.00000000000E+00 0. -1.
         -5    1    5    5    0  502  0.12573645301E+03 -0.12034208664E+03 -0.71365269217E+02  0.18816738580E+03  0.47000000000E+01 0.  1.
         13    1    6    6    0    0 -0.27382127150E+02 -0.14235555208E+02 -0.17984644478E+02  0.35719453472E+02  0.00000000000E+00 0. -1.
        -14    1    6    6    0    0  0.66961585543E+02  0.63282430494E+01 -0.36550232270E+02  0.76549461641E+02  0.00000000000E+00 0.  1.
</event>
<event>
12    1  0.8562501E-002  0.1831735E+03  0.7818608E-02  0.1164813E+00
         21   -1    0    0  501  502  0.00000000000E+00  0.00000000000E+00  0.29874144866E+04  0.29874144866E+04  0.00000000000E+00 0.  1.
         21   -1    0    0  502  503 -0.00000000000E+00 -0.00000000000E+00 -0.11628462777E+02  0.11628462777E+02  0.00000000000E+00 0. -1.
         -6    2    1    2    0  503  0.56765197024E+02  0.29935082594E+02  0.12073899277E+04  0.12212055451E+04  0.17156383400E+03 0.  0.
        -24    2    3    3    0    0  0.98412151080E+02  0.19856669999E+02  0.10560395318E+04  0.10638363120E+04  0.80305462103E+02 0.  0.
          6    2    1    2  501    0 -0.56765197024E+02 -0.29935082594E+02  0.17683960961E+04  0.17778374042E+04  0.17135543895E+03 0.  0.
         24    2    5    5    0    0 -0.53403945765E+02 -0.56356839050E+02  0.17138631858E+04  0.17169659370E+04  0.67948026178E+02 0.  0.
          5    1    5    5  501    0 -0.33612512591E+01  0.26421756456E+02  0.54532910241E+02  0.60871467237E+02  0.47000000000E+01 0. -1.
        -11    1    6    6    0    0 -0.11757443395E+02 -0.20572396592E+02  0.11894484947E+04  0.11896844887E+04  0.00000000000E+00 0.  1.
         12    1    6    6    0    0 -0.41646502369E+02 -0.35784442459E+02  0.52441469111E+03  0.52728144831E+03  0.00000000000E+00 0. -1.
         -5    1    3    3    0  503 -0.41646954056E+02  0.10078412595E+02  0.15135039596E+03  0.15736923314E+03  0.47000000000E+01 0.  1.
         13    1    4    4    0    0  0.79952711893E+02  0.45186130375E+02  0.63170463475E+03  0.63834549273E+03  0.00000000000E+00 0. -1.
        -14    1    4    4    0    0  0.18459439188E+02 -0.25329460376E+02  0.42433489702E+03  0.42549081927E+03  0.00000000000E+00 0.  1.
</event>
<event>
12    1  0.8562501E-002  0.2008937E+03  0.7818608E-02  0.1149264E+00
         21   -1    0    0  501  502  0.00000000000E+00  0.00000000000E+00  0.46996917886E+02  0.46996917886E+02  0.00000000000E+00 0.  1.
         21   -1    0    0  502  503 -0.00000000000E+00 -0.00000000000E+00 -0.12244319401E+04  0.12244319401E+04  0.00000000000E+00 0. -1.
         -6    2    1    2    0  503 -0.55641509071E+02  0.88152003825E+02 -0.93744132419E+03  0.95845084677E+03  0.17019117502E+03 0.  0.
        -24    2    3    3    0    0 -0.34390140457E+02  0.43139786009E+02 -0.85826120361E+03  0.86480629586E+03  0.90740910429E+02 0.  0.
          6    2    1    2  501    0  0.55641509071E+02 -0.88152003825E+02 -0.23999369798E+03  0.31297801118E+03  0.17173091481E+03 0.  0.
         24    2    5    5    0    0  0.29644521036E+01 -0.93015056494E+02 -0.83996994920E+02  0.14818850005E+03  0.79017388468E+02 0.  0.
          5    1    5    5  501    0  0.52677056967E+02  0.48630526692E+01 -0.15599670306E+03  0.16478951113E+03  0.47000000000E+01 0. -1.
        -11    1    6    6    0    0  0.20069254613E+02  0.18613286213E+01  0.25246259308E+00  0.20156965603E+02  0.00000000000E+00 0.  1.
         12    1    6    6    0    0 -0.17104802509E+02 -0.94876385116E+02 -0.84249457513E+02  0.12803153445E+03  0.00000000000E+00 0. -1.
         -5    1    3    3    0  503 -0.21251368613E+02  0.45012217816E+02 -0.79180120579E+02  0.93644550912E+02  0.47000000000E+01 0.  1.
         11    1    4    4    0    0 -0.47841974439E+02  0.51202189925E+02 -0.38758093336E+03  0.39386482285E+03  0.00000000000E+00 0. -1.
        -12    1    4    4    0    0  0.13451833982E+02 -0.80624039152E+01 -0.47068027025E+03  0.47094147300E+03  0.00000000000E+00 0.  1.
</event>
<event>
12    1  0.8562501E-002  0.1957273E+03  0.7818608E-02  0.1153697E+00
         21   -1    0    0  501  502  0.00000000000E+00  0.00000000000E+00  0.42367086341E+02  0.42367086341E+02  0.00000000000E+00 0.  1.
         21   -1    0    0  502  503 -0.00000000000E+00 -0.00000000000E+00 -0.16563584909E+04  0.16563584909E+04  0.00000000000E+00 0.  1.
         -6    2    1    2    0  503  0.89235805621E+02 -0.10684492730E+02 -0.13802216535E+04  0.13938362988E+04  0.17230968552E+03 0.  0.
        -24    2    3    3    0    0  0.86014946168E+02 -0.39620055679E+02 -0.59005845457E+03  0.60312294261E+03  0.81363286071E+02 0.  0.
          6    2    1    2  501    0 -0.89235805621E+02  0.10684492730E+02 -0.23376975106E+03  0.30488927842E+03  0.17387348330E+03 0.  0.
         24    2    5    5    0    0 -0.10061053914E+03 -0.43724527865E+02 -0.19183652613E+03  0.23510237824E+03  0.80234410134E+02 0.  0.
          5    1    5    5  501    0  0.11374733521E+02  0.54409020595E+02 -0.41933224922E+02  0.69786900184E+02  0.47000000000E+01 0. -1.
        -11    1    6    6    0    0 -0.58431423200E+02  0.49204559351E-01 -0.38025839242E+02  0.69715120945E+02  0.00000000000E+00 0.  1.
         12    1    6    6    0    0 -0.42179115942E+02 -0.43773732425E+02 -0.15381068689E+03  0.16538725729E+03  0.00000000000E+00 0. -1.
         -5    1    3    3    0  503  0.32208594531E+01  0.28935562949E+02 -0.79016319892E+03  0.79071335620E+03  0.47000000000E+01 0.  1.
         13    1    4    4    0    0  0.83742908228E+02 -0.60204846344E+02 -0.45955868828E+03  0.47099011261E+03  0.00000000000E+00 0. -1.
        -14    1    4    4    0    0  0.22720379404E+01  0.20584790665E+02 -0.13049976629E+03  0.13213283001E+03  0.00000000000E+00 0.  1.
</event>
<event>
12    1  0.8562501E-002  0.1737592E+03  0.7818608E-02  0.1174127E+00
         21   -1    0    0  501  502  0.00000000000E+00  0.00000000000E+00  0.32073291756E+03  0.32073291756E+03  0.00000000000E+00 0. -1.
         21   -1    0    0  502  503 -0.00000000000E+00 -0.00000000000E+00 -0.13595347638E+03  0.13595347638E+03  0.00000000000E+00 0. -1.
         -6    2    1    2    0  503 -0.21123188415E+02  0.29156561076E+00 -0.34610830351E+02  0.17717273407E+03  0.17247026996E+03 0.  0.
        -24    2    3    3    0    0 -0.40385089259E+01  0.44006682019E+02  0.30224481649E+02  0.96994149911E+02  0.80879219886E+02 0.  0.
          6    2    1    2  501    0  0.21123188415E+02 -0.29156561076E+00  0.21939027153E+03  0.27951365988E+03  0.17189974030E+03 0.  0.
         24    2    5    5    0    0 -0.15719340189E+02 -0.28968047097E+02  0.41065870181E+02  0.95118989073E+02  0.79214714416E+02 0.  0.
          5    1    5    5  501    0  0.36842528604E+02  0.28676481486E+02  0.17832440135E+03  0.18439467080E+03  0.47000000000E+01 0. -1.
        -11    1    6    6    0    0 -0.46074023492E+02 -0.51199681848E+01  0.28973022118E+02  0.54666861311E+02  0.00000000000E+00 0.  1.
         12    1    6    6    0    0  0.30354683303E+02 -0.23848078912E+02  0.12092848063E+02  0.40452127762E+02  0.00000000000E+00 0. -1.
         -5    1    3    3    0  503 -0.17084679490E+02 -0.43715116408E+02 -0.64835312001E+02  0.80178584161E+02  0.47000000000E+01 0.  1.
         11    1    4    4    0    0  0.25401718516E+02  0.54928834614E+02  0.16515209037E+02  0.62730983614E+02  0.00000000000E+00 0. -1.
        -12    1    4    4    0    0 -0.29440227442E+02 -0.10922152595E+02  0.13709272612E+02  0.34263166297E+02  0.00000000000E+00 0.  1.
</event>
<event>
12    1  0.8562501E-002  0.2053940E+03  0.7818608E-02  0.1145408E+00
         21   -1    0    0  501  502  0.00000000000E+00  0.00000000000E+00  0.84682255614E+03  0.84682255614E+03  0.00000000000E+00 0. -1.
         21   -1    0    0  502  503 -0.00000000000E+00 -0.00000000000E+00 -0.13540532063E+03  0.13540532063E+03  0.00000000000E+00 0.  1.
         -6    2    1    2    0  503  0.88032143534E+02  0.67382693452E+02 -0.35350249756E+02  0.20772908571E+03  0.17208035106E+03 0.  0.
        -24    2    3    3    0    0  0.60678190117E+02  0.11138228489E+03 -0.12580631309E+02  0.15094221805E+03  0.80854342881E+02 0.  0.
          6    2    1    2  501    0 -0.88032143534E+02 -0.67382693452E+02  0.74676748526E+03  0.77449879106E+03  0.17290637533E+03 0.  0.
         24    2    5    5    0    0  0.52597061899E+01 -0.18738860133E+02  0.49255838002E+03  0.49933710961E+03  0.79655394822E+02 0.  0.
          5    1    5    5  501    0 -0.93291849724E+02 -0.48643833319E+02  0.25420910525E+03  0.27516168144E+03  0.47000000000E+01 0. -1.
        -11    1    6    6    0    0 -0.57970053820E+00  0.66207960415E+01  0.58046995767E+00  0.66714270069E+01  0.00000000000E+00 0.  1.
         12    1    6    6    0    0  0.58394067281E+01 -0.25359656174E+02  0.49197791006E+03  0.49266568261E+03  0.00000000000E+00 0. -1.
         -5    1    3    3    0  503  0.27353953417E+02 -0.43999591442E+02 -0.22769618447E+02  0.56786867661E+02  0.47000000000E+01 0.  1.
         13    1    4    4    0    0  0.25086801068E+02  0.38055082486E+02  0.34181060794E+02  0.56972640871E+02  0.00000000000E+00 0. -1.
        -14    1    4    4    0    0  0.35591389050E+02  0.73327202407E+02 -0.46761692104E+02  0.93969577182E+02  0.00000000000E+00 0.  1.
</event>
<event>
12    1  0.8562501E-002  0.1921873E+03  0.7818608E-02  0.1156815E+00
         21   -1    0    0  503  502  0.00000000000E+00  0.00000000000E+00  0.20256745175E+03  0.20256745175E+03  0.00000000000E+00 0.  1.
         21   -1    0    0  501  503 -0.00000000000E+00 -0.00000000000E+00 -0.26657765582E+03  0.26657765582E+03  0.00000000000E+00 0.  1.
          6    2    1    2  501    0 -0.60692266924E+02  0.47956508831E+02  0.10096794056E+03  0.21585921839E+03  0.17440555937E+03 0.  0.
         24    2    3    3    0    0 -0.21749410281E+02  0.29915953060E+02  0.13402782706E+03  0.16148041893E+03  0.82124698940E+02 0.  0.
         -6    2    1    2    0  502  0.60692266924E+02 -0.47956508831E+02 -0.16497814463E+03  0.25328588918E+03  0.17593344040E+03 0.  0.
        -24    2    5    5    0    0  0.69546189349E+02 -0.35443329826E+02 -0.19154517989E+03  0.22225575941E+03  0.81333661979E+02 0.  0.
          5    1    3    3  501    0 -0.38942856642E+02  0.18040555771E+02 -0.33059886497E+02  0.54378799464E+02  0.47000000000E+01 0. -1.
        -11    1    4    4    0    0 -0.29467151324E+02 -0.11139408711E+02  0.10743852908E+03  0.11196176563E+03  0.00000000000E+00 0.  1.
         12    1    4    4    0    0  0.77177410424E+01  0.41055361771E+02  0.26589297982E+02  0.49518653295E+02  0.00000000000E+00 0. -1.
         -5    1    5    5    0  502 -0.88539224256E+01 -0.12513179005E+02  0.26567035258E+02  0.31030129770E+02  0.47000000000E+01 0.  1.
         11    1    6    6    0    0  0.13160578703E+02 -0.19770262127E+02 -0.19457122456E+01  0.23829601182E+02  0.00000000000E+00 0. -1.
        -12    1    6    6    0    0  0.56385610646E+02 -0.15673067699E+02 -0.18959946764E+03  0.19842615823E+03  0.00000000000E+00 0.  1.
</event>
<event>
12    1  0.8562501E-002  0.1793918E+03  0.7818608E-02  0.1168560E+00
         21   -1    0    0  503  502  0.00000000000E+00  0.00000000000E+00  0.11181882413E+04  0.11181882413E+04  0.00000000000E+00 0.  1.
         21   -1    0    0  501  503 -0.00000000000E+00 -0.00000000000E+00 -0.33153603929E+02  0.33153603929E+02  0.00000000000E+00 0.  1.
          6    2    1    2  501    0 -0.40164961939E+02  0.25767277359E+02  0.33172018656E+03  0.37712025111E+03  0.17292838075E+03 0.  0.
         24    2    3    3    0    0 -0.90399516610E+02  0.23348970038E+02  0.18431478866E+03  0.22130048334E+03  0.79276198228E+02 0.  0.
         -6    2    1    2    0  502  0.40164961939E+02 -0.25767277359E+02  0.75331445078E+03  0.77422159410E+03  0.17221857699E+03 0.  0.
        -24    2    5    5    0    0  0.51149068933E+02  0.41055200256E+02  0.32091471475E+03  0.33652590548E+03  0.77211878557E+02 0.  0.
          5    1    3    3  501    0  0.50234554670E+02  0.24183073208E+01  0.14740539791E+03  0.15581976776E+03  0.47000000000E+01 0. -1.
        -11    1    4    4    0    0 -0.14349220750E+02  0.30891655096E+02  0.18592746555E+02  0.38805730442E+02  0.00000000000E+00 0.  1.
         12    1    4    4    0    0 -0.76050295860E+02 -0.75426850580E+01  0.16572204210E+03  0.18249475290E+03  0.00000000000E+00 0. -1.
         -5    1    5    5    0  502 -0.10984106994E+02 -0.66822477615E+02  0.43239973603E+03  0.43769568862E+03  0.47000000000E+01 0.  1.
         11    1    6    6    0    0 -0.65469384657E+01  0.11108816526E+02  0.18924767786E+03  0.18968645651E+03  0.00000000000E+00 0. -1.
        -12    1    6    6    0    0  0.57696007399E+02  0.29946383730E+02  0.13166703689E+03  0.14683944896E+03  0.00000000000E+00 0.  1.
</event>
<event>
12    1  0.8562501E-002  0.3457686E+03  0.7818608E-02  0.1064446E+00
         21   -1    0    0  503  502  0.00000000000E+00  0.00000000000E+00  0.43717134246E+03  0.43717134246E+03  0.00000000000E+00 0.  1.
         21   -1    0    0  501  503 -0.00000000000E+00 -0.00000000000E+00 -0.32070254605E+03  0.32070254605E+03  0.00000000000E+00 0. -1.
          6    2    1    2  501    0 -0.28635286422E+03  0.87392254814E+02  0.20452725553E+03  0.40106828941E+03  0.17143221830E+03 0.  0.
         24    2    3    3    0    0 -0.92127498871E+02 -0.63730428615E+01  0.81745399497E+02  0.15284883457E+03  0.90290443384E+02 0.  0.
         -6    2    1    2    0  502  0.28635286422E+03 -0.87392254814E+02 -0.88058459122E+02  0.35680559909E+03  0.17297564648E+03 0.  0.
        -24    2    5    5    0    0  0.21317514303E+03 -0.10988457486E+02 -0.18052395191E+02  0.22985892481E+03  0.83335757870E+02 0.  0.
          5    1    3    3  501    0 -0.19422536535E+03  0.93765297675E+02  0.12278185603E+03  0.24821945484E+03  0.47000000000E+01 0. -1.
        -13    1    4    4    0    0  0.11342155280E+02 -0.10740232579E+02 -0.63738102139E+01  0.16870759879E+02  0.00000000000E+00 0.  1.
         14    1    4    4    0    0 -0.10346965415E+03  0.43671897176E+01  0.88119209711E+02  0.13597807469E+03  0.00000000000E+00 0. -1.
         -5    1    5    5    0  502  0.73177721191E+02 -0.76403797327E+02 -0.70006063931E+02  0.12694667428E+03  0.47000000000E+01 0.  1.
         11    1    6    6    0    0 -0.22079778089E+01  0.68447158055E+01 -0.11592509925E+02  0.13642272055E+02  0.00000000000E+00 0. -1.
        -12    1    6    6    0    0  0.21538312083E+03 -0.17833173292E+02 -0.64598852662E+01  0.21621665275E+03  0.00000000000E+00 0.  1.
</event>
<event>
12    1  0.8562501E-002  0.2181660E+03  0.7818608E-02  0.1135360E+00
         21   -1    0    0  503  502  0.00000000000E+00  0.00000000000E+00  0.52985753964E+02  0.52985753964E+02  0.00000000000E+00 0. -1.
         21   -1    0    0  501  503 -0.00000000000E+00 -0.00000000000E+00 -0.12581408826E+04  0.12581408826E+04  0.00000000000E+00 0.  1.
          6    2    1    2  501    0 -0.87727156297E+02  0.10122977634E+03 -0.95373181279E+03  0.97824512083E+03  0.17150983687E+03 0.  0.
         24    2    3    3    0    0  0.17070897788E+02  0.22310384504E+02 -0.31674067308E+03  0.32786776528E+03  0.79896487534E+02 0.  0.
         -6    2    1    2    0  502  0.87727156297E+02 -0.10122977634E+03 -0.25142331580E+03  0.33288151568E+03  0.17220016895E+03 0.  0.
        -24    2    5    5    0    0  0.64221693093E+02 -0.56811569964E+02 -0.53657499210E+02  0.12877641513E+03  0.79701050984E+02 0.  0.
          5    1    3    3  501    0 -0.10479805409E+03  0.78919391835E+02 -0.63699113971E+03  0.65037735555E+03  0.47000000000E+01 0. -1.
        -13    1    4    4    0    0  0.34021427717E+02  0.23981723000E+02 -0.30337451079E+03  0.30621671146E+03  0.00000000000E+00 0.  1.
         14    1    4    4    0    0 -0.16950529928E+02 -0.16713384958E+01 -0.13366162294E+02  0.21651053824E+02  0.00000000000E+00 0. -1.
         -5    1    5    5    0  502  0.23505463205E+02 -0.44418206376E+02 -0.19776581659E+03  0.20410510055E+03  0.47000000000E+01 0.  1.
         11    1    6    6    0    0  0.47453948149E+02  0.96748182446E+01 -0.20074384795E+02  0.52425759202E+02  0.00000000000E+00 0. -1.
        -12    1    6    6    0    0  0.16767744943E+02 -0.66486388208E+02 -0.33583114415E+02  0.76350655932E+02  0.00000000000E+00 0.  1.
</event>
<event>
12    1  0.8562501E-002  0.2033884E+03  0.7818608E-02  0.1146968E+00
         21   -1    0    0  503  502  0.00000000000E+00  0.00000000000E+00  0.85320102993E+02  0.85320102993E+02  0.00000000000E+00 0. -1.
         21   -1    0    0  501  503 -0.00000000000E+00 -0.00000000000E+00 -0.65202830340E+03  0.65202830340E+03  0.00000000000E+00 0.  1.
          6    2    1    2  501    0  0.65419380645E+00  0.10832737086E+03 -0.96445154991E+02  0.22509670287E+03  0.17213834690E+03 0.  0.
         24    2    3    3    0    0  0.36609775030E+02  0.13469452335E+02 -0.73003516229E+02  0.12087372577E+03  0.88086562112E+02 0.  0.
         -6    2    1    2    0  502 -0.65419380645E+00 -0.10832737086E+03 -0.47026304542E+03  0.51225170353E+03  0.17181160796E+03 0.  0.
        -24    2    5    5    0    0 -0.59779795573E+01 -0.70931426321E+02 -0.12308493073E+03  0.16299315648E+03  0.79686042742E+02 0.  0.
          5    1    3    3  501    0 -0.35955581224E+02  0.94857918528E+02 -0.23441638762E+02  0.10422297710E+03  0.47000000000E+01 0. -1.
        -13    1    4    4    0    0  0.34743457778E+02  0.43056893708E+02 -0.17636740135E+02  0.58069428762E+02  0.00000000000E+00 0.  1.
         14    1    4    4    0    0  0.18663172521E+01 -0.29587441373E+02 -0.55366776094E+02  0.62804297004E+02  0.00000000000E+00 0. -1.
         -5    1    5    5    0  502  0.53237857509E+01 -0.37395944542E+02 -0.34717811469E+03  0.34925854704E+03  0.47000000000E+01 0.  1.
         11    1    6    6    0    0  0.33549818663E+02 -0.35287226230E+02 -0.83507115963E+02  0.96665490656E+02  0.00000000000E+00 0. -1.
        -12    1    6    6    0    0 -0.39527798220E+02 -0.35644200091E+02 -0.39577814767E+02  0.66327665827E+02  0.00000000000E+00 0.  1.
</event>
<event>
12    1  0.8562501E-002  0.1742283E+03  0.7818608E-02  0.1173677E+00
         21   -1    0    0  501  502  0.00000000000E+00  0.00000000000E+00  0.66713959581E+03  0.66713959581E+03  0.00000000000E+00 0.  1.
         21   -1    0    0  502  503 -0.00000000000E+00 -0.00000000000E+00 -0.98452737396E+02  0.98452737396E+02  0.00000000000E+00 0.  1.
         -6    2    1    2    0  503  0.27051371750E+02 -0.12196393008E+02  0.34008855854E+01  0.17426151871E+03  0.17168279519E+03 0.  0.
        -24    2    3    3    0    0 -0.30925419041E+02  0.91366043325E+01  0.49267629598E+02  0.97175506674E+02  0.77304079384E+02 0.  0.
          6    2    1    2  501    0 -0.27051371750E+02  0.12196393008E+02  0.56528597283E+03  0.59133081450E+03  0.17100693663E+03 0.  0.
         24    2    5    5    0    0 -0.21868824900E+02 -0.52659582623E+02  0.42988163639E+03  0.44103250880E+03  0.80375216149E+02 0.  0.
          5    1    5    5  501    0 -0.51825468501E+01  0.64855975631E+02  0.13540433644E+03  0.15029830569E+03  0.47000000000E+01 0. -1.
        -13    1    6    6    0    0 -0.11948439964E+01  0.21242271659E+02  0.75713146124E+02  0.78645675364E+02  0.00000000000E+00 0.  1.
         14    1    6    6    0    0 -0.20673980903E+02 -0.73901854282E+02  0.35416849027E+03  0.36238683344E+03  0.00000000000E+00 0. -1.
         -5    1    3    3    0  503  0.57976790791E+02 -0.21332997341E+02 -0.45866744012E+02  0.77086012040E+02  0.47000000000E+01 0.  1.
         11    1    4    4    0    0  0.10897151601E+02  0.17977968638E+02 -0.10654684575E+02  0.23568571717E+02  0.00000000000E+00 0. -1.
        -12    1    4    4    0    0 -0.41822570643E+02 -0.88413643055E+01  0.59922314173E+02  0.73606934957E+02  0.00000000000E+00 0.  1.
</event>
<event>
12    1  0.8562501E-002  0.2096092E+03  0.7818608E-02  0.1142488E+00
         21   -1    0    0  503  502  0.00000000000E+00  0.00000000000E+00  0.10779167225E+03  0.10779167225E+03  0.00000000000E+00 0.  1.
         21   -1    0    0  501  503 -0.00000000000E+00 -0.00000000000E+00 -0.95575959549E+03  0.95575959549E+03  0.00000000000E+00 0. -1.
          6    2    1    2  501    0  0.34935348128E+02  0.10628763886E+03 -0.82756512853E+03  0.85295138840E+03  0.17362168147E+03 0.  0.
         24    2    3    3    0    0  0.30792284937E+02  0.92833932941E+02 -0.30440612403E+03  0.32958191931E+03  0.79967801476E+02 0.  0.
         -6    2    1    2    0  502 -0.34935348128E+02 -0.10628763886E+03 -0.20402794708E+02  0.21059987935E+03  0.17725262882E+03 0.  0.
        -24    2    5    5    0    0  0.43546947911E+02 -0.89731606516E+02 -0.26041345294E+02  0.13005513246E+03  0.79297464862E+02 0.  0.
          5    1    3    3  501    0  0.41430631910E+01  0.13453705921E+02 -0.52315900450E+03  0.52336946908E+03  0.47000000000E+01 0. -1.
        -11    1    4    4    0    0  0.19951179933E+02  0.99446226276E+02 -0.29908160310E+03  0.31581229680E+03  0.00000000000E+00 0.  1.
         12    1    4    4    0    0  0.10841105004E+02 -0.66122933346E+01 -0.53245209343E+01  0.13769622509E+02  0.00000000000E+00 0. -1.
         -5    1    5    5    0  502 -0.78482296039E+02 -0.16556032346E+02  0.56385505858E+01  0.80544746889E+02  0.47000000000E+01 0.  1.
         13    1    6    6    0    0  0.19725028731E+02 -0.55236964166E+02 -0.53951583636E+02  0.79692988058E+02  0.00000000000E+00 0. -1.
        -14    1    6    6    0    0  0.23821919180E+02 -0.34494642350E+02  0.27910238342E+02  0.50362144400E+02  0.00000000000E+00 0.  1.
</event>
<event>
12    1  0.8562501E-002  0.2346750E+03  0.7818608E-02  0.1123739E+00
         21   -1    0    0  501  502  0.00000000000E+00  0.00000000000E+00  0.30223868537E+03  0.30223868537E+03  0.00000000000E+00 0. -1.
         21   -1    0    0  502  503 -0.00000000000E+00 -0.00000000000E+00 -0.11491573421E+04  0.11491573421E+04  0.00000000000E+00 0.  1.
         -6    2    1    2    0  503  0.87097311876E+02 -0.13583967265E+03 -0.10899634392E+04  0.11149406420E+04  0.17039359739E+03 0.  0.
        -24    2    3    3    0    0  0.10774086446E+03 -0.54614016592E+02 -0.80394344556E+03  0.81685795176E+03  0.79630804496E+02 0.  0.
          6    2    1    2  501    0 -0.87097311876E+02  0.13583967265E+03  0.24304478239E+03  0.33645538554E+03  0.16760996930E+03 0.  0.
         24    2    5    5    0    0 -0.58766216144E+02  0.60832134369E+01  0.11738986533E+03  0.15356023013E+03  0.79434816978E+02 0.  0.
          5    1    5    5  501    0 -0.28331095732E+02  0.12975645921E+03  0.12565491705E+03  0.18289515541E+03  0.47000000000E+01 0. -1.
        -13    1    6    6    0    0 -0.31654724331E+02 -0.37705078617E+01 -0.81249130128E+00  0.31888845136E+02  0.00000000000E+00 0.  1.
         14    1    6    6    0    0 -0.27111491813E+02  0.98537212986E+01  0.11820235663E+03  0.12167138499E+03  0.00000000000E+00 0. -1.
         -5    1    3    3    0  503 -0.20643552583E+02 -0.81225656055E+02 -0.28601999361E+03  0.29808269022E+03  0.47000000000E+01 0.  1.
         11    1    4    4    0    0 -0.26952991834E+01  0.68605234334E+01 -0.18470430440E+03  0.18485132265E+03  0.00000000000E+00 0. -1.
        -12    1    4    4    0    0  0.11043616364E+03 -0.61474540026E+02 -0.61923914116E+03  0.63200662912E+03  0.00000000000E+00 0.  1.
</event>
<event>
12    1  0.8562501E-002  0.1916328E+03  0.7818608E-02  0.1157715E+00
         21   -1    0    0  503  502  0.00000000000E+00  0.00000000000E+00  0.88879599205E+02  0.88879599205E+02  0.00000000000E+00 0. -1.
         21   -1    0    0  501  503 -0.00000000000E+00 -0.00000000000E+00 -0.44395566746E+03  0.44395566746E+03  0.00000000000E+00 0.  1.
          6    2    1    2  501    0  0.79099903836E+02  0.18864738785E+02 -0.98613259342E+02  0.21268481190E+03  0.16999288556E+03 0.  0.
         24    2    3    3    0    0  0.11400189551E+03  0.35059864216E+02 -0.53296709994E+02  0.15305167719E+03  0.79741145816E+02 0.  0.
         -6    2    1    2    0  502 -0.79099903836E+02 -0.18864738785E+02 -0.25646280892E+03  0.32015045477E+03  0.17352368188E+03 0.  0.
        -24    2    5    5    0    0 -0.84606052868E+02  0.10326677278E+02 -0.26429933253E+03  0.28907059712E+03  0.80267356362E+02 0.  0.
          5    1    3    3  501    0 -0.34901991676E+02 -0.16195125431E+02 -0.45316549348E+02  0.59633134712E+02  0.47000000000E+01 0. -1.
        -11    1    4    4    0    0  0.10189527065E+02  0.10222504035E+02 -0.43533555513E+02  0.45863891093E+02  0.00000000000E+00 0.  1.
         12    1    4    4    0    0  0.10381236845E+03  0.24837360182E+02 -0.97631544807E+01  0.10718778610E+03  0.00000000000E+00 0. -1.
         -5    1    5    5    0  502  0.55061490312E+01 -0.29191416063E+02  0.78365236131E+01  0.31079857645E+02  0.47000000000E+01 0.  1.
         13    1    6    6    0    0  0.12655012498E+02 -0.10078361072E+02 -0.55813034231E+02  0.58110390579E+02  0.00000000000E+00 0. -1.
        -14    1    6    6    0    0 -0.97261065366E+02  0.20405038350E+02 -0.20848629830E+03  0.23096020654E+03  0.00000000000E+00 0.  1.
</event>
<event>
12    1  0.8562501E-002  0.1846569E+03  0.7818608E-02  0.1163390E+00
         21   -1    0    0  501  502  0.00000000000E+00  0.00000000000E+00  0.21746631493E+02  0.21746631493E+02  0.00000000000E+00 0. -1.
         21   -1    0    0  502  503 -0.00000000000E+00 -0.00000000000E+00 -0.16480084153E+04  0.16480084153E+04  0.00000000000E+00 0. -1.
         -6    2    1    2    0  503 -0.66730162972E+02  0.88050317164E+01 -0.62852500479E+03  0.65508919349E+03  0.17195268693E+03 0.  0.
        -24    2    3    3    0    0 -0.52927395382E+01  0.16138475025E+02 -0.13830754740E+03  0.16096007886E+03  0.80564917005E+02 0.  0.
          6    2    1    2  501    0  0.66730162972E+02 -0.88050317164E+01 -0.99773677906E+03  0.10146658534E+04  0.17186526824E+03 0.  0.
         24    2    5    5    0    0  0.72795839887E+02 -0.65726533344E+02 -0.72023403346E+03  0.73128146140E+03  0.80101818603E+02 0.  0.
          5    1    5    5  501    0 -0.60656769149E+01  0.56921501628E+02 -0.27750274560E+03  0.28338439195E+03  0.47000000000E+01 0. -1.
        -13    1    6    6    0    0 -0.80007474730E+00 -0.42590786766E+02 -0.15278796420E+03  0.15861518603E+03  0.00000000000E+00 0.  1.
         14    1    6    6    0    0  0.73595914635E+02 -0.23135746578E+02 -0.56744606926E+03  0.57266627537E+03  0.00000000000E+00 0. -1.
         -5    1    3    3    0  503 -0.61437423434E+02 -0.73334433091E+01 -0.49021745740E+03  0.49412911463E+03  0.47000000000E+01 0.  1.
         11    1    4    4    0    0 -0.42481553273E+02  0.13615467756E+02 -0.83662600949E+02  0.94812942831E+02  0.00000000000E+00 0. -1.
        -12    1    4    4    0    0  0.37188813735E+02  0.25230072697E+01 -0.54644946450E+02  0.66147136032E+02  0.00000000000E+00 0.  1.
</event>
<event>
12    1  0.8562501E-002  0.2018538E+03  0.7818608E-02  0.1148639E+00
         21   -1    0    0  503  502  0.00000000000E+00  0.00000000000E+00  0.75390864091E+03  0.75390864091E+03  0.00000000000E+00 0. -1.
         21   -1    0    0  501  503 -0.00000000000E+00 -0.00000000000E+00 -0.73276280827E+02  0.73276280827E+02  0.00000000000E+00 0. -1.
          6    2    1    2  501    0  0.10131614213E+03 -0.14786698265E+02  0.12661012694E+03  0.23827518077E+03  0.17395784094E+03 0.  0.
         24    2    3    3    0    0 -0.10912405816E+02 -0.12637608777E+02  0.53326671112E+02  0.10413935238E+03  0.87877648500E+02 0.  0.
         -6    2    1    2    0  502 -0.10131614213E+03  0.14786698265E+02  0.55402223314E+03  0.58890974097E+03  0.17143640539E+03 0.  0.
        -24    2    5    5    0    0 -0.85655199192E+02 -0.42527412193E+02  0.46607934504E+03  0.48267314672E+03  0.81228177075E+02 0.  0.
          5    1    3    3  501    0  0.11222854794E+03 -0.21490894876E+01  0.73283455829E+02  0.13413582839E+03  0.47000000000E+01 0. -1.
        -13    1    4    4    0    0 -0.15219145427E+02  0.19926946534E+02  0.64691490681E+02  0.69380793829E+02  0.00000000000E+00 0.  1.
         14    1    4    4    0    0  0.43067396115E+01 -0.32564555311E+02 -0.11364819569E+02  0.34758558551E+02  0.00000000000E+00 0. -1.
         -5    1    5    5    0  502 -0.15660942934E+02  0.57314110458E+02  0.87942888104E+02  0.10623659426E+03  0.47000000000E+01 0.  1.
         11    1    6    6    0    0 -0.49615827375E+02  0.12435940988E+02  0.29502481042E+03  0.29942615403E+03  0.00000000000E+00 0. -1.
        -12    1    6    6    0    0 -0.36039371818E+02 -0.54963353181E+02  0.17105453462E+03  0.18324699268E+03  0.00000000000E+00 0.  1.
</event>
<event>
12    1  0.8562501E-002  0.2410584E+03  0.7818608E-02  0.1119765E+00
         21   -1    0    0  503  502  0.00000000000E+00  0.00000000000E+00  0.19277505611E+03  0.19277505611E+03  0.00000000000E+00 0.  1.
         21   -1    0    0  501  503 -0.00000000000E+00 -0.00000000000E+00 -0.29854472127E+03  0.29854472127E+03  0.00000000000E+00 0.  1.
          6    2    1    2  501    0 -0.32398004413E+02 -0.15664147110E+03 -0.74117118286E+02  0.25219532707E+03  0.18034121718E+03 0.  0.
         24    2    3    3    0    0 -0.35841096278E+02 -0.16607206416E+03 -0.10531360756E+02  0.18765054008E+03  0.78976584865E+02 0.  0.
         -6    2    1    2    0  502  0.32398004413E+02  0.15664147110E+03 -0.31652546869E+02  0.23912445031E+03  0.17490694055E+03 0.  0.
        -24    2    5    5    0    0  0.71083253610E+02  0.51046042359E+02 -0.50034196533E+02  0.12507657387E+03  0.74041887629E+02 0.  0.
          5    1    3    3  501    0  0.34430918655E+01  0.94305930590E+01 -0.63585757530E+02  0.64544786991E+02  0.47000000000E+01 0. -1.
        -11    1    4    4    0    0 -0.35692535078E+02 -0.29612449802E+02  0.15162477838E+02  0.48792980825E+02  0.00000000000E+00 0.  1.
         12    1    4    4    0    0 -0.14856120017E+00 -0.13645961436E+03 -0.25693838594E+02  0.13885755926E+03  0.00000000000E+00 0. -1.
         -5    1    5    5    0  502 -0.38685249197E+02  0.10559542874E+03  0.18381649664E+02  0.11404787644E+03  0.47000000000E+01 0.  1.
         13    1    6    6    0    0  0.24344255173E+02 -0.15946365162E+02  0.34632583221E+00  0.29104110765E+02  0.00000000000E+00 0. -1.
        -14    1    6    6    0    0  0.46738998437E+02  0.66992407522E+02 -0.50380522365E+02  0.95972463104E+02  0.00000000000E+00 0.  1.
</event>
<event>
12    1  0.8562501E-002  0.1966105E+03  0.7818608E-02  0.1152687E+00
         21   -1    0    0  503  502  0.00000000000E+00  0.00000000000E+00  0.87286148784E+03  0.87286148784E+03  0.00000000000E+00 0.  1.
         21   -1    0    0  501  503 -0.00000000000E+00 -0.00000000000E+00 -0.21848368340E+03  0.21848368340E+03  0.00000000000E+00 0.  1.
          6    2    1    2  501    0  0.56943649516E+02  0.76519812690E+02 -0.16008972126E+03  0.25354370155E+03  0.17192390406E+03 0.  0.
         24    2    3    3    0    0  0.98944421556E+02  0.42506718752E+02 -0.84860784783E+02  0.16079437112E+03  0.84003912375E+02 0.  0.
         -6    2    1    2    0  502 -0.56943649516E+02 -0.76519812690E+02  0.81446752570E+03  0.83780146969E+03  0.17162776945E+03 0.  0.
        -24    2    5    5    0    0  0.95851358180E+01 -0.33955744626E+02  0.20285800378E+03  0.22109564317E+03  0.80542202031E+02 0.  0.
          5    1    3    3  501    0 -0.42000772040E+02  0.34013093938E+02 -0.75228936478E+02  0.92749330428E+02  0.47000000000E+01 0. -1.
        -13    1    4    4    0    0  0.49275491088E+02 -0.12790420350E+02 -0.41581707335E+01  0.51077972342E+02  0.00000000000E+00 0.  1.
         14    1    4    4    0    0  0.49668930468E+02  0.55297139102E+02 -0.80702614050E+02  0.10971639878E+03  0.00000000000E+00 0. -1.
         -5    1    5    5    0  502 -0.66528785334E+02 -0.42564068065E+02  0.61160952192E+03  0.61670582652E+03  0.47000000000E+01 0.  1.
         11    1    6    6    0    0 -0.15779817074E+02  0.21582513728E+02  0.67624601631E+02  0.72717908877E+02  0.00000000000E+00 0. -1.
        -12    1    6    6    0    0  0.25364952892E+02 -0.55538258354E+02  0.13523340215E+03  0.14837773429E+03  0.00000000000E+00 0.  1.
</event>
<event>
12    1  0.8562501E-002  0.2039308E+03  0.7818608E-02  0.1148644E+00
         21   -1    0    0  501  502  0.00000000000E+00  0.00000000000E+00  0.88251424663E+02  0.88251424663E+02  0.00000000000E+00 0.  1.
         21   -1    0    0  502  503 -0.00000000000E+00 -0.00000000000E+00 -0.50905809929E+03  0.50905809929E+03  0.00000000000E+00 0. -1.
         -6    2    1    2    0  503  0.72510432135E+02 -0.82973631874E+02 -0.30924454371E+03  0.36485767792E+03  0.15920600165E+03 0.  0.
        -24    2    3    3    0    0  0.22715702167E+02 -0.65596997164E+02 -0.89211035806E+02  0.13854308013E+03  0.80103726390E+02 0.  0.
          6    2    1    2  501    0 -0.72510432135E+02  0.82973631874E+02 -0.11156213091E+03  0.23245184603E+03  0.17159651895E+03 0.  0.
         24    2    5    5    0    0 -0.16005023960E+02  0.11313643990E+03 -0.82415121781E+02  0.16192316901E+03  0.79817576636E+02 0.  0.
          5    1    5    5  501    0 -0.56505408175E+02 -0.30162808025E+02 -0.29147009128E+02  0.70528677019E+02  0.47000000000E+01 0. -1.
        -11    1    6    6    0    0  0.29717510105E+02  0.68798268216E+02 -0.36167138554E+02  0.83212943870E+02  0.00000000000E+00 0.  1.
         12    1    6    6    0    0 -0.45722534065E+02  0.44338171684E+02 -0.46247983227E+02  0.78710225144E+02  0.00000000000E+00 0. -1.
         -5    1    3    3    0  503  0.49794729968E+02 -0.17376634710E+02 -0.22003350791E+03  0.22631459778E+03  0.47000000000E+01 0.  1.
         13    1    4    4    0    0  0.27573813132E+02 -0.17606863311E+02 -0.83855285118E+02  0.90011252899E+02  0.00000000000E+00 0. -1.
        -14    1    4    4    0    0 -0.48581109642E+01 -0.47990133853E+02 -0.53557506887E+01  0.48531827235E+02  0.00000000000E+00 0.  1.
</event>
<event>
12    1  0.8562501E-002  0.2320097E+03  0.7818608E-02  0.1125325E+00
         21   -1    0    0  503  502  0.00000000000E+00  0.00000000000E+00  0.56697857511E+03  0.56697857511E+03  0.00000000000E+00 0.  1.
         21   -1    0    0  501  503 -0.00000000000E+00 -0.00000000000E+00 -0.37225886941E+03  0.37225886941E+03  0.00000000000E+00 0. -1.
          6    2    1    2  501    0  0.11797789088E+03  0.10064760482E+03 -0.30810344471E+03  0.38568929083E+03  0.17256817010E+03 0.  0.
         24    2    3    3    0    0  0.24303835430E+02 -0.95983380037E+01 -0.12634316778E+03  0.15333635919E+03  0.82865182658E+02 0.  0.
         -6    2    1    2    0  502 -0.11797789088E+03 -0.10064760482E+03  0.50282315041E+03  0.55354815368E+03  0.17185957863E+03 0.  0.
        -24    2    5    5    0    0 -0.93513588891E+02 -0.13511660996E+03  0.34565513479E+03  0.39072773260E+03  0.78672734934E+02 0.  0.
          5    1    3    3  501    0  0.93674055447E+02  0.11024594282E+03 -0.18176027693E+03  0.23235293164E+03  0.47000000000E+01 0. -1.
        -13    1    4    4    0    0  0.45429170747E+02 -0.15289643787E+02 -0.34848298738E+02  0.59262017235E+02  0.00000000000E+00 0.  1.
         14    1    4    4    0    0 -0.21125335317E+02  0.56913057836E+01 -0.91494869043E+02  0.94074341959E+02  0.00000000000E+00 0. -1.
         -5    1    5    5    0  502 -0.24464301986E+02  0.34469005142E+02  0.15716801562E+03  0.16282042109E+03  0.47000000000E+01 0.  1.
         13    1    6    6    0    0  0.94219539975E+01 -0.40503637989E+02  0.95316879068E+02  0.10399339086E+03  0.00000000000E+00 0. -1.
        -14    1    6    6    0    0 -0.10293554289E+03 -0.94612971973E+02  0.25033825572E+03  0.28673434174E+03  0.00000000000E+00 0.  1.
</event>
<event>
12    1  0.8562501E-002  0.1832208E+03  0.7818608E-02  0.1164877E+00
         21   -1    0    0  503  502  0.00000000000E+00  0.00000000000E+00  0.76166458909E+02  0.76166458909E+02  0.00000000000E+00 0.  1.
         21   -1    0    0  501  503 -0.00000000000E+00 -0.00000000000E+00 -0.97333439139E+03  0.97333439139E+03  0.00000000000E+00 0.  1.
          6    2    1    2  501    0 -0.61041648219E+02 -0.15459303804E+02 -0.83696213749E+03  0.85664181801E+03  0.17136076525E+03 0.  0.
         24    2    3    3    0    0 -0.52705677207E+02 -0.65713187453E+02 -0.54295493711E+03  0.55821717909E+03  0.98540569734E+02 0.  0.
         -6    2    1    2    0  502  0.61041648219E+02  0.15459303804E+02 -0.60205794988E+02  0.19285903229E+03  0.17206044199E+03 0.  0.
        -24    2    5    5    0    0  0.76985569632E+02  0.66520271756E+02 -0.52758086341E+02  0.13864658499E+03  0.78023941005E+02 0.  0.
          5    1    3    3  501    0 -0.83359710115E+01  0.50253883649E+02 -0.29400720039E+03  0.29842463892E+03  0.47000000000E+01 0. -1.
        -13    1    4    4    0    0 -0.73321855073E+02 -0.15071070961E+02 -0.30250150639E+03  0.31162540490E+03  0.00000000000E+00 0.  1.
         14    1    4    4    0    0  0.20616177866E+02 -0.50642116492E+02 -0.24045343072E+03  0.24659177419E+03  0.00000000000E+00 0. -1.
         -5    1    5    5    0  502 -0.15943921414E+02 -0.51060967952E+02 -0.74477086468E+01  0.54212447301E+02  0.47000000000E+01 0.  1.
         13    1    6    6    0    0 -0.13152205398E+02  0.20416570091E+02 -0.22167857866E+02  0.32882073589E+02  0.00000000000E+00 0. -1.
        -14    1    6    6    0    0  0.90137775030E+02  0.46103701665E+02 -0.30590228475E+02  0.10576451141E+03  0.00000000000E+00 0.  1.
</event>
<event>
12    1  0.8562501E-002  0.2136612E+03  0.7818608E-02  0.1141270E+00
         21   -1    0    0  501  502  0.00000000000E+00  0.00000000000E+00  0.19662703671E+04  0.19662703671E+04  0.00000000000E+00 0. -1.
         21   -1    0    0  502  503 -0.00000000000E+00 -0.00000000000E+00 -0.22670475954E+02  0.22670475954E+02  0.00000000000E+00 0. -1.
         -6    2    1    2    0  503 -0.77614330548E+02  0.10060030590E+03  0.81080116375E+03  0.83848055387E+03  0.17177516181E+03 0.  0.
        -24    2    3    3    0    0 -0.99840619498E+02  0.61013964546E+02  0.74580855362E+03  0.75906257281E+03  0.79086899194E+02 0.  0.
          6    2    1    2  501    0  0.77614330548E+02 -0.10060030590E+03  0.11327987273E+04  0.11504602891E+04  0.15550406541E+03 0.  0.
         24    2    5    5    0    0  0.10803415237E+03 -0.96724512619E+02  0.10270746388E+04  0.10402783476E+04  0.79181547673E+02 0.  0.
          5    1    5    5  501    0 -0.30419821823E+02 -0.38757932827E+01  0.10572408857E+03  0.11018194153E+03  0.47000000000E+01 0. -1.
        -11    1    6    6    0    0  0.52225918648E+02 -0.42630783146E+02  0.23735788667E+03  0.24674621904E+03  0.00000000000E+00 0.  1.
         12    1    6    6    0    0  0.55808233723E+02 -0.54093729473E+02  0.78971675211E+03  0.79353212857E+03  0.00000000000E+00 0. -1.
         -5    1    3    3    0  503  0.22226288950E+02  0.39586341356E+02  0.64992610136E+02  0.79417981054E+02  0.47000000000E+01 0.  1.
         13    1    4    4    0    0  0.24350063358E+01  0.25399624609E+02  0.67478456680E+02  0.72141612832E+02  0.00000000000E+00 0. -1.
        -14    1    4    4    0    0 -0.10227562583E+03  0.35614339937E+02  0.67833009694E+03  0.68692095998E+03  0.00000000000E+00 0.  1.
</event>
<event>
12    1  0.8562501E-002  0.3802929E+03  0.7818608E-02  0.1051061E+00
         21   -1    0    0  501  502  0.00000000000E+00  0.00000000000E+00  0.26570658055E+03  0.26570658055E+03  0.00000000000E+00 0. -1.
         21   -1    0    0  502  503 -0.00000000000E+00 -0.00000000000E+00 -0.60321482997E+03  0.60321482997E+03  0.00000000000E+00 0.  1.
         -6    2    1    2    0  503  0.25746832102E+02  0.33817762019E+03 -0.30916753740E+03  0.49010939867E+03  0.17203387550E+03 0.  0.
        -24    2    3    3    0    0  0.54597517093E+02  0.26843605349E+03 -0.29943801569E+03  0.41386635477E+03  0.81138342852E+02 0.  0.
          6    2    1    2  501    0 -0.25746832102E+02 -0.33817762019E+03 -0.28340712017E+02  0.37881201185E+03  0.16633803595E+03 0.  0.
         24    2    5    5    0    0  0.14405330674E+02 -0.15370481013E+03  0.39763753577E+02  0.17805663319E+03  0.79311577437E+02 0.  0.
          5    1    5    5  501    0 -0.40152162776E+02 -0.18447281006E+03 -0.68104465594E+02  0.20075537866E+03  0.47000000000E+01 0. -1.
        -11    1    6    6    0    0  0.11143986240E+02 -0.97992507253E+01  0.30377548703E+02  0.33808419208E+02  0.00000000000E+00 0.  1.
         12    1    6    6    0    0  0.32613444333E+01 -0.14390555941E+03  0.93862048735E+01  0.14424821398E+03  0.00000000000E+00 0. -1.
         -5    1    3    3    0  503 -0.28850684990E+02  0.69741566701E+02 -0.97295217027E+01  0.76243043898E+02  0.47000000000E+01 0.  1.
         11    1    4    4    0    0 -0.27617954330E+01 -0.31514831999E+01 -0.18347074746E+02  0.18819524757E+02  0.00000000000E+00 0. -1.
        -12    1    4    4    0    0  0.57359312526E+02  0.27158753669E+03 -0.28109094095E+03  0.39504683001E+03  0.00000000000E+00 0.  1.
</event>
<event>
12    1  0.8562501E-002  0.2668007E+03  0.7818608E-02  0.1103247E+00
         21   -1    0    0  501  502  0.00000000000E+00  0.00000000000E+00  0.21929643660E+03  0.21929643660E+03  0.00000000000E+00 0. -1.
         21   -1    0    0  502  503 -0.00000000000E+00 -0.00000000000E+00 -0.70518553763E+03  0.70518553763E+03  0.00000000000E+00 0.  1.
         -6    2    1    2    0  503  0.89751273930E+02  0.18334251345E+03 -0.58316055117E+03  0.64129467293E+03  0.17179307518E+03 0.  0.
        -24    2    3    3    0    0  0.11089563338E+03  0.10611811357E+03 -0.29384705799E+03  0.34106962533E+03  0.80146742290E+02 0.  0.
          6    2    1    2  501    0 -0.89751273930E+02 -0.18334251345E+03  0.97271450143E+02  0.28318730129E+03  0.17048033373E+03 0.  0.
         24    2    5    5    0    0 -0.33266213293E+02 -0.64238368900E+02 -0.17282577429E+02  0.10848448346E+03  0.78974595181E+02 0.  0.
          5    1    5    5  501    0 -0.56485060638E+02 -0.11910414455E+03  0.11455402757E+03  0.17470281783E+03  0.47000000000E+01 0. -1.
        -13    1    6    6    0    0 -0.30756981817E+02  0.94579291003E+01  0.20807454151E+01  0.32245524570E+02  0.00000000000E+00 0.  1.
         14    1    6    6    0    0 -0.25092314761E+01 -0.73696298000E+02 -0.19363322844E+02  0.76238958893E+02  0.00000000000E+00 0. -1.
         -5    1    3    3    0  503 -0.21144359453E+02  0.77224399870E+02 -0.28931349318E+03  0.30022504760E+03  0.47000000000E+01 0.  1.
         13    1    4    4    0    0 -0.47410291384E+01  0.38652917158E+02 -0.75370492210E+02  0.84836527852E+02  0.00000000000E+00 0. -1.
        -14    1    4    4    0    0  0.11563666252E+03  0.67465196417E+02 -0.21847656578E+03  0.25623309748E+03  0.00000000000E+00 0.  1.
</event>
<event>
12    1  0.8562501E-002  0.2787648E+03  0.7818608E-02  0.1096477E+00
         21   -1    0    0  501  502  0.00000000000E+00  0.00000000000E+00  0.94447880366E+03  0.94447880366E+03  0.00000000000E+00 0. -1.
         21   -1    0    0  502  503 -0.00000000000E+00 -0.00000000000E+00 -0.83261693233E+02  0.83261693233E+02  0.00000000000E+00 0. -1.
         -6    2    1    2    0  503 -0.21847011140E+03  0.24031781917E+01  0.36893579516E+03  0.46241045298E+03  0.17313243841E+03 0.  0.
        -24    2    3    3    0    0 -0.20930229318E+03  0.27276562263E+01  0.38472796311E+03  0.44355211940E+03  0.70057026650E+02 0.  0.
          6    2    1    2  501    0  0.21847011140E+03 -0.24031781917E+01  0.49228131526E+03  0.56533004391E+03  0.17182025596E+03 0.  0.
         24    2    5    5    0    0  0.21949094048E+03 -0.41387718107E+02  0.40884298303E+03  0.47310812824E+03  0.82398422758E+02 0.  0.
          5    1    5    5  501    0 -0.10208290850E+01  0.38984539916E+02  0.83438332233E+02  0.92221915673E+02  0.47000000000E+01 0. -1.
        -13    1    6    6    0    0  0.43051980618E+02  0.24587301835E+01  0.28909201306E+02  0.51915896500E+02  0.00000000000E+00 0.  1.
         14    1    6    6    0    0  0.17643895987E+03 -0.43846448291E+02  0.37993378172E+03  0.42119223174E+03  0.00000000000E+00 0. -1.
         -5    1    3    3    0  503 -0.91678182235E+01 -0.32447803462E+00 -0.15792167948E+02  0.18858333582E+02  0.47000000000E+01 0.  1.
         13    1    4    4    0    0 -0.75018703342E+02 -0.23774643248E+02  0.18884838868E+03  0.20458923094E+03  0.00000000000E+00 0. -1.
        -14    1    4    4    0    0 -0.13428358983E+03  0.26502299474E+02  0.19587957444E+03  0.23896288845E+03  0.00000000000E+00 0.  1.
</event>
<event>
12    1  0.8562501E-002  0.3020501E+03  0.7818608E-02  0.1084310E+00
         21   -1    0    0  503  502  0.00000000000E+00  0.00000000000E+00  0.28846695530E+04  0.28846695530E+04  0.00000000000E+00 0. -1.
         21   -1    0    0  501  503 -0.00000000000E+00 -0.00000000000E+00 -0.58020980703E+02  0.58020980703E+02  0.00000000000E+00 0.  1.
          6    2    1    2  501    0  0.68824502540E+02  0.23725488405E+03  0.24061926075E+04  0.24249865032E+04  0.17253980399E+03 0.  0.
         24    2    3    3    0    0 -0.17030077879E+02  0.15614745667E+03  0.16848590579E+04  0.16940326034E+04  0.79525874467E+02 0.  0.
         -6    2    1    2    0  502 -0.68824502540E+02 -0.23725488405E+03  0.42045596479E+03  0.51770403054E+03  0.17380320121E+03 0.  0.
        -24    2    5    5    0    0 -0.63255285695E+02 -0.24978680934E+03  0.42473222061E+03  0.50258974288E+03  0.76186016618E+02 0.  0.
          5    1    3    3  501    0  0.85854580419E+02  0.81107427387E+02  0.72133354962E+03  0.73095389975E+03  0.47000000000E+01 0. -1.
        -11    1    4    4    0    0 -0.19840732149E+02  0.27013308583E+02  0.69141855023E+03  0.69223044219E+03  0.00000000000E+00 0.  1.
         12    1    4    4    0    0  0.28106542700E+01  0.12913414808E+03  0.99344050765E+03  0.10018021612E+04  0.00000000000E+00 0. -1.
         -5    1    5    5    0  502 -0.55692168446E+01  0.12531925290E+02 -0.42762558189E+01  0.15114287663E+02  0.47000000000E+01 0.  1.
         11    1    6    6    0    0  0.39906587102E+01 -0.77405765094E+02  0.17834930003E+03  0.19446349438E+03  0.00000000000E+00 0. -1.
        -12    1    6    6    0    0 -0.67245944405E+02 -0.17238104425E+03  0.24638292058E+03  0.30812624849E+03  0.00000000000E+00 0.  1.
</event>
<event>
12    1  0.8562501E-002  0.2376787E+03  0.7818608E-02  0.1121431E+00
         21   -1    0    0  503  502  0.00000000000E+00  0.00000000000E+00  0.31955684785E+04  0.31955684785E+04  0.00000000000E+00 0.  1.
         21   -1    0    0  501  503 -0.00000000000E+00 -0.00000000000E+00 -0.27022261381E+02  0.27022261381E+02  0.00000000000E+00 0.  1.
          6    2    1    2  501    0  0.15200890400E+03 -0.63298763531E+02  0.63598664596E+03  0.67894785789E+03  0.17139935687E+03 0.  0.
         24    2    3    3    0    0  0.12668499342E+03 -0.79937643822E+02  0.62281235130E+03  0.64557414332E+03  0.80197475884E+02 0.  0.
         -6    2    1    2    0  502 -0.15200890400E+03  0.63298763531E+02  0.25325595711E+04  0.25436428820E+04  0.17072694360E+03 0.  0.
        -24    2    5    5    0    0 -0.17640171989E+02  0.25242485781E+02  0.13898746040E+04  0.13924460002E+04  0.78778740390E+02 0.  0.
          5    1    3    3  501    0  0.25323910574E+02  0.16638880291E+02  0.13174294658E+02  0.33373714565E+02  0.47000000000E+01 0. -1.
        -11    1    4    4    0    0  0.78044803904E+02 -0.21157480641E+01  0.29543771943E+03  0.30557963589E+03  0.00000000000E+00 0.  1.
         12    1    4    4    0    0  0.48640189518E+02 -0.77821895757E+02  0.32737463187E+03  0.33999450744E+03  0.00000000000E+00 0. -1.
         -5    1    5    5    0  502 -0.13436873201E+03  0.38056277750E+02  0.11426849671E+04  0.11511968817E+04  0.47000000000E+01 0.  1.
         13    1    6    6    0    0 -0.13134133248E+01  0.47372880503E+02  0.52510195566E+03  0.52723616975E+03  0.00000000000E+00 0. -1.
        -14    1    6    6    0    0 -0.16326758664E+02 -0.22130394722E+02  0.86477264837E+03  0.86520983049E+03  0.00000000000E+00 0.  1.
</event>
<event>
12    1  0.8562501E-002  0.1796939E+03  0.7818608E-02  0.1169938E+00
         21   -1    0    0  501  502  0.00000000000E+00  0.00000000000E+00  0.98061405145E+02  0.98061405145E+02  0.00000000000E+00 0. -1.
         21   -1    0    0  502  503 -0.00000000000E+00 -0.00000000000E+00 -0.33068411447E+03  0.33068411447E+03  0.00000000000E+00 0. -1.
         -6    2    1    2    0  503  0.45475818387E+01  0.19439145788E+02 -0.16406492833E+03  0.24332525865E+03  0.17858140973E+03 0.  0.
        -24    2    3    3    0    0 -0.28361092655E+02 -0.34043121419E+02 -0.31832421789E+02  0.96864139071E+02  0.80037945179E+02 0.  0.
          6    2    1    2  501    0 -0.45475818387E+01 -0.19439145788E+02 -0.68557780998E+02  0.18542026097E+03  0.17111967436E+03 0.  0.
         24    2    5    5    0    0 -0.55525790412E+02  0.26440898486E+02 -0.55758846229E+02  0.11549416467E+03  0.80297064869E+02 0.  0.
          5    1    5    5  501    0  0.50978208573E+02 -0.45880044273E+02 -0.12798934769E+02  0.69926096295E+02  0.47000000000E+01 0. -1.
        -13    1    6    6    0    0 -0.57966605543E+02 -0.98265585615E+01 -0.52803594897E+02  0.79024731859E+02  0.00000000000E+00 0.  1.
         14    1    6    6    0    0  0.24408151314E+01  0.36267457047E+02 -0.29552513322E+01  0.36469432812E+02  0.00000000000E+00 0. -1.
         -5    1    3    3    0  503  0.32908674494E+02  0.53482267207E+02 -0.13223250654E+03  0.14646111958E+03  0.47000000000E+01 0.  1.
         13    1    4    4    0    0 -0.30249577630E+02 -0.32903223498E+01 -0.51851991647E+02  0.60120647084E+02  0.00000000000E+00 0. -1.
        -14    1    4    4    0    0  0.18884849752E+01 -0.30752799069E+02  0.20019569859E+02  0.36743491987E+02  0.00000000000E+00 0.  1.
</event>
<event>
12    1  0.8562501E-002  0.3310224E+03  0.7818608E-02  0.1070701E+00
         21   -1    0    0  501  502  0.00000000000E+00  0.00000000000E+00  0.39477216499E+03  0.39477216499E+03  0.00000000000E+00 0.  1.
         21   -1    0    0  502  503 -0.00000000000E+00 -0.00000000000E+00 -0.28211674929E+03  0.28211674929E+03  0.00000000000E+00 0. -1.
         -6    2    1    2    0  503 -0.24899658864E+03  0.13473690050E+03  0.12786783900E+02  0.33112949354E+03  0.17125976217E+03 0.  0.
        -24    2    3    3    0    0 -0.88166824355E+02  0.52967883026E+02 -0.51340184676E+02  0.13959165551E+03  0.79189836319E+02 0.  0.
          6    2    1    2  501    0  0.24899658864E+03 -0.13473690050E+03  0.99868631800E+02  0.34575942075E+03  0.17152988051E+03 0.  0.
         24    2    5    5    0    0  0.21885497142E+03 -0.66151735836E+02  0.11562862746E+03  0.26905929452E+03  0.82154572639E+02 0.  0.
          5    1    5    5  501    0  0.30141617219E+02 -0.68585164664E+02 -0.15759995665E+02  0.76700126231E+02  0.47000000000E+01 0. -1.
        -11    1    6    6    0    0  0.16833301029E+03 -0.19342965248E+02  0.57489848999E+02  0.17892801736E+03  0.00000000000E+00 0.  1.
         12    1    6    6    0    0  0.50521961134E+02 -0.46808770588E+02  0.58138778466E+02  0.90131277159E+02  0.00000000000E+00 0. -1.
         -5    1    3    3    0  503 -0.16082976429E+03  0.81769017473E+02  0.64126968576E+02  0.19153783803E+03  0.47000000000E+01 0.  1.
         11    1    4    4    0    0 -0.47644102552E+00  0.39765695477E+02 -0.67636656459E+01  0.40339617075E+02  0.00000000000E+00 0. -1.
        -12    1    4    4    0    0 -0.87690383330E+02  0.13202187550E+02 -0.44576519030E+02  0.99252038435E+02  0.00000000000E+00 0.  1.
</event>
<event>
12    1  0.8562501E-002  0.1941533E+03  0.7818608E-02  0.1154984E+00
         21   -1    0    0  503  502  0.00000000000E+00  0.00000000000E+00  0.19495272216E+03  0.19495272216E+03  0.00000000000E+00 0.  1.
         21   -1    0    0  501  503 -0.00000000000E+00 -0.00000000000E+00 -0.21230542668E+03  0.21230542668E+03  0.00000000000E+00 0.  1.
          6    2    1    2  501    0 -0.15466244322E+02 -0.88527086471E+02 -0.71081382125E+02  0.20675608559E+03  0.17210248775E+03 0.  0.
         24    2    3    3    0    0 -0.38130250152E+02 -0.81343963982E+01  0.89271484742E+01  0.90997298680E+02  0.81735732735E+02 0.  0.
         -6    2    1    2    0  502  0.15466244322E+02  0.88527086471E+02  0.53728677597E+02  0.20050206325E+03  0.17099139399E+03 0.  0.
        -24    2    5    5    0    0  0.89399076582E+01 -0.97294563078E+01  0.63915059141E+02  0.10139205549E+03  0.77592717849E+02 0.  0.
          5    1    3    3  501    0  0.22664005831E+02 -0.80392690072E+02 -0.80008530599E+02  0.11575878691E+03  0.47000000000E+01 0. -1.
        -11    1    4    4    0    0 -0.31172370637E+02 -0.22334989020E+02  0.40445007589E+02  0.55734792227E+02  0.00000000000E+00 0.  1.
         12    1    4    4    0    0 -0.69578795155E+01  0.14200592622E+02 -0.31517859115E+02  0.35262506453E+02  0.00000000000E+00 0. -1.
         -5    1    5    5    0  502  0.65263366637E+01  0.98256542778E+02 -0.10186381544E+02  0.99110007759E+02  0.47000000000E+01 0.  1.
         13    1    6    6    0    0 -0.66531801652E+01 -0.27007353322E+02  0.71655657760E+02  0.76864785362E+02  0.00000000000E+00 0. -1.
        -14    1    6    6    0    0  0.15593087823E+02  0.17277897014E+02 -0.77405986189E+01  0.24527270131E+02  0.00000000000E+00 0.  1.
</event>
<event>
12    1  0.8562501E-002  0.2305307E+03  0.7818608E-02  0.1126965E+00
         21   -1    0    0  501  502  0.00000000000E+00  0.00000000000E+00  0.10533944915E+03  0.10533944915E+03  0.00000000000E+00 0. -1.
         21   -1    0    0  502  503 -0.00000000000E+00 -0.00000000000E+00 -0.70269034463E+03  0.70269034463E+03  0.00000000000E+00 0. -1.
         -6    2    1    2    0  503  0.11231158944E+03 -0.10655556524E+03 -0.51601563775E+03  0.56357154652E+03  0.16544717596E+03 0.  0.
        -24    2    3    3    0    0  0.78595455807E+02 -0.46415077182E+02 -0.45632528668E+03  0.47225515159E+03  0.80377583199E+02 0.  0.
          6    2    1    2  501    0 -0.11231158944E+03  0.10655556524E+03 -0.81335257731E+02  0.24445824727E+03  0.17081109127E+03 0.  0.
         24    2    5    5    0    0 -0.10001533736E+03  0.29527865352E+02 -0.97980686027E+02  0.16456065877E+03  0.81271354367E+02 0.  0.
          5    1    5    5  501    0 -0.12296252080E+02  0.77027699884E+02  0.16645428296E+02  0.79897588498E+02  0.47000000000E+01 0. -1.
        -13    1    6    6    0    0 -0.30116851360E+02 -0.23906932556E+01 -0.80182066790E+02  0.85684911068E+02  0.00000000000E+00 0.  1.
         14    1    6    6    0    0 -0.69898485999E+02  0.31918558608E+02 -0.17798619237E+02  0.78875747700E+02  0.00000000000E+00 0. -1.
         -5    1    3    3    0  503  0.33716133632E+02 -0.60140488054E+02 -0.59690351074E+02  0.91316394924E+02  0.47000000000E+01 0.  1.
         13    1    4    4    0    0  0.57390442077E+02 -0.28319525349E+02 -0.13160482970E+03  0.14634032103E+03  0.00000000000E+00 0. -1.
        -14    1    4    4    0    0  0.21205013730E+02 -0.18095551834E+02 -0.32472045697E+03  0.32591483056E+03  0.00000000000E+00 0.  1.
</event>
<event>
12    1  0.8562501E-002  0.1795158E+03  0.7818608E-02  0.1168441E+00
         21   -1    0    0  501  502  0.00000000000E+00  0.00000000000E+00  0.10212932395E+03  0.10212932395E+03  0.00000000000E+00 0.  1.
         21   -1    0    0  502  503 -0.00000000000E+00 -0.00000000000E+00 -0.11448815307E+04  0.11448815307E+04  0.00000000000E+00 0.  1.
         -6    2    1    2    0  503 -0.49110244906E+02  0.23914849028E+01 -0.10527158623E+04  0.10679122733E+04  0.17265109687E+03 0.  0.
        -24    2    3    3    0    0 -0.30499458805E+02  0.56433363065E+02 -0.87950568347E+03  0.88545476585E+03  0.79905905013E+02 0.  0.
          6    2    1    2  501    0  0.49110244906E+02 -0.23914849028E+01  0.99636556146E+01  0.17909858134E+03  0.17192874120E+03 0.  0.
         24    2    5    5    0    0  0.41698952930E+02  0.43571168225E+01 -0.60398673380E+02  0.10787064991E+03  0.78932187501E+02 0.  0.
          5    1    5    5  501    0  0.74112919756E+01 -0.67486017253E+01  0.70362328994E+02  0.71227931428E+02  0.47000000000E+01 0. -1.
        -11    1    6    6    0    0  0.36760746561E+02 -0.26468039124E+02 -0.67473385917E+01  0.45797774628E+02  0.00000000000E+00 0.  1.
         12    1    6    6    0    0  0.49382063687E+01  0.30825155947E+02 -0.53651334788E+02  0.62072875282E+02  0.00000000000E+00 0. -1.
         -5    1    3    3    0  503 -0.18610786101E+02 -0.54041878162E+02 -0.17321017888E+03  0.18245750744E+03  0.47000000000E+01 0.  1.
         13    1    4    4    0    0  0.75631304264E+01 -0.10995679362E+02 -0.35853248362E+02  0.38256520027E+02  0.00000000000E+00 0. -1.
        -14    1    4    4    0    0 -0.38062589231E+02  0.67429042426E+02 -0.84365243510E+03  0.84719824582E+03  0.00000000000E+00 0.  1.
</event>
<event>
12    1  0.8562501E-002  0.2362273E+03  0.7818608E-02  0.1122445E+00
         21   -1    0    0  503  502  0.00000000000E+00  0.00000000000E+00  0.17690240365E+03  0.17690240365E+03  0.00000000000E+00 0. -1.
         21   -1    0    0  501  503 -0.00000000000E+00 -0.00000000000E+00 -0.36205695574E+03  0.36205695574E+03  0.00000000000E+00 0.  1.
          6    2    1    2  501    0 -0.42437237751E+01  0.16107849319E+03 -0.19006935267E+03  0.30268096283E+03  0.17182874112E+03 0.  0.
         24    2    3    3    0    0  0.10658868645E+02  0.18458192498E+03 -0.18670796857E+03  0.27425760149E+03  0.78570146618E+02 0.  0.
         -6    2    1    2    0  502  0.42437237751E+01 -0.16107849319E+03  0.49148005883E+01  0.23627839655E+03  0.17273979059E+03 0.  0.
        -24    2    5    5    0    0 -0.58127620178E+02 -0.81322049402E+02  0.32658132405E+02  0.13119244443E+03  0.78439836295E+02 0.  0.
          5    1    3    3  501    0 -0.14902592420E+02 -0.23503431788E+02 -0.33613841048E+01  0.28423361338E+02  0.47000000000E+01 0. -1.
        -11    1    4    4    0    0 -0.30111582909E+02  0.41010432312E+02 -0.58242624184E+02  0.77335413980E+02  0.00000000000E+00 0.  1.
         12    1    4    4    0    0  0.40770451554E+02  0.14357149267E+03 -0.12846534439E+03  0.19692218751E+03  0.00000000000E+00 0. -1.
         -5    1    5    5    0  502  0.62371343953E+02 -0.79756443790E+02 -0.27743331817E+02  0.10508595212E+03  0.47000000000E+01 0.  1.
         11    1    6    6    0    0 -0.62086736223E+02 -0.19525256598E+02  0.14813570264E+02  0.66749084818E+02  0.00000000000E+00 0. -1.
        -12    1    6    6    0    0  0.39591160451E+01 -0.61796792804E+02  0.17844562141E+02  0.64443359617E+02  0.00000000000E+00 0.  1.
</event>
<event>
12    1  0.8562501E-002  0.2413521E+03  0.7818608E-02  0.1119101E+00
         21   -1    0    0  501  502  0.00000000000E+00  0.00000000000E+00  0.79169423269E+03  0.79169423269E+03  0.00000000000E+00 0. -1.
         21   -1    0    0  502  503 -0.00000000000E+00 -0.00000000000E+00 -0.78724456043E+02  0.78724456043E+02  0.00000000000E+00 0.  1.
         -6    2    1    2    0  503 -0.17221416149E+02 -0.16789416841E+03  0.24033345644E+03  0.33972486238E+03  0.17078578065E+03 0.  0.
        -24    2    3    3    0    0 -0.54050045219E+01 -0.19410051640E+03  0.20130139663E+03  0.29102176236E+03  0.80418836976E+02 0.  0.
          6    2    1    2  501    0  0.17221416149E+02  0.16789416841E+03  0.47263632020E+03  0.53069382635E+03  0.17252772876E+03 0.  0.
         24    2    5    5    0    0  0.19895926040E+02  0.12528901644E+03  0.46264603026E+03  0.48660020015E+03  0.81518218548E+02 0.  0.
          5    1    5    5  501    0 -0.26745098914E+01  0.42605151976E+02  0.99902899351E+01  0.44093626195E+02  0.47000000000E+01 0. -1.
        -11    1    6    6    0    0 -0.26276283559E+02  0.85707200548E+02  0.29128520730E+03  0.30476751680E+03  0.00000000000E+00 0.  1.
         12    1    6    6    0    0  0.46172209600E+02  0.39581815888E+02  0.17136082296E+03  0.18183268335E+03  0.00000000000E+00 0. -1.
         -5    1    3    3    0  503 -0.11816411627E+02  0.26206347988E+02  0.39032059814E+02  0.48703100024E+02  0.47000000000E+01 0.  1.
         13    1    4    4    0    0  0.20950093432E+01  0.69243984711E+01  0.12943490455E+01  0.73492651188E+01  0.00000000000E+00 0. -1.
        -14    1    4    4    0    0 -0.75000138651E+01 -0.20102491487E+03  0.20000704758E+03  0.28367249724E+03  0.00000000000E+00 0.  1.
</event>
<event>
12    1  0.8562501E-002  0.2128642E+03  0.7818608E-02  0.1139408E+00
         21   -1    0    0  501  502  0.00000000000E+00  0.00000000000E+00  0.94560221961E+03  0.94560221961E+03  0.00000000000E+00 0. -1.
         21   -1    0    0  502  503 -0.00000000000E+00 -0.00000000000E+00 -0.96891496434E+02  0.96891496434E+02  0.00000000000E+00 0.  1.
         -6    2    1    2    0  503 -0.12175814544E+03 -0.32220319186E+02  0.53608897794E+02  0.21951100994E+03  0.17160412178E+03 0.  0.
        -24    2    3    3    0    0 -0.11687810513E+03  0.24473156989E+02  0.71221835273E+02  0.15975926853E+03  0.78683207799E+02 0.  0.
          6    2    1    2  501    0  0.12175814544E+03  0.32220319186E+02  0.79510182539E+03  0.82298270611E+03  0.17102756175E+03 0.  0.
         24    2    5    5    0    0  0.13636128229E+03  0.68748112989E+02  0.62645959488E+03  0.64974927044E+03  0.80011174641E+02 0.  0.
          5    1    5    5  501    0 -0.14603136851E+02 -0.36527793802E+02  0.16864223051E+03  0.17323343568E+03  0.47000000000E+01 0. -1.
        -11    1    6    6    0    0  0.78938560167E+02  0.81521479761E+02  0.42289469244E+03  0.43785496324E+03  0.00000000000E+00 0.  1.
         12    1    6    6    0    0  0.57422722124E+02 -0.12773366773E+02  0.20356490244E+03  0.21189430719E+03  0.00000000000E+00 0. -1.
         -5    1    3    3    0  503 -0.48800403086E+01 -0.56693476176E+02 -0.17612937479E+02  0.59751741405E+02  0.47000000000E+01 0.  1.
         11    1    4    4    0    0 -0.96907463861E+02  0.50899590689E+02  0.59736938197E+02  0.12470094895E+03  0.00000000000E+00 0. -1.
        -12    1    4    4    0    0 -0.19970641271E+02 -0.26426433700E+02  0.11484897076E+02  0.35058319579E+02  0.00000000000E+00 0.  1.
</event>
<event>
12    1  0.8562501E-002  0.2693118E+03  0.7818608E-02  0.1101770E+00
         21   -1    0    0  503  502  0.00000000000E+00  0.00000000000E+00  0.88597360787E+02  0.88597360787E+02  0.00000000000E+00 0. -1.
         21   -1    0    0  501  503 -0.00000000000E+00 -0.00000000000E+00 -0.91311268728E+03  0.91311268728E+03  0.00000000000E+00 0.  1.
          6    2    1    2  501    0  0.47321998031E+02  0.20088146570E+03 -0.24988622656E+03  0.36738528220E+03  0.17302047450E+03 0.  0.
         24    2    3    3    0    0  0.51843988423E+02  0.42659292733E+02 -0.14353195960E+03  0.17662882879E+03  0.78030156626E+02 0.  0.
         -6    2    1    2    0  502 -0.47321998031E+02 -0.20088146570E+03 -0.57462909993E+03  0.63432476586E+03  0.17197840370E+03 0.  0.
        -24    2    5    5    0    0 -0.44736063565E+02 -0.18547324442E+03 -0.33089085552E+03  0.39004107397E+03  0.79004058960E+02 0.  0.
          5    1    3    3  501    0 -0.45219903924E+01  0.15822217297E+03 -0.10635426696E+03  0.19075645341E+03  0.47000000000E+01 0. -1.
        -13    1    4    4    0    0  0.19265793798E+02 -0.17767724039E+02 -0.13251011647E+02  0.29367535441E+02  0.00000000000E+00 0.  1.
         14    1    4    4    0    0  0.32578194625E+02  0.60427016772E+02 -0.13028094795E+03  0.14726129335E+03  0.00000000000E+00 0. -1.
         -5    1    5    5    0  502 -0.25859344657E+01 -0.15408221282E+02 -0.24373824441E+03  0.24428369190E+03  0.47000000000E+01 0.  1.
         13    1    6    6    0    0  0.97781918978E+01  0.19941595805E+01 -0.83346055388E+01  0.13002129007E+02  0.00000000000E+00 0. -1.
        -14    1    6    6    0    0 -0.54514255463E+02 -0.18746740400E+03 -0.32255624998E+03  0.37703894496E+03  0.00000000000E+00 0.  1.
</event>
<event>
12    1  0.8562501E-002  0.2603807E+03  0.7818608E-02  0.1107084E+00
         21   -1    0    0  501  502  0.00000000000E+00  0.00000000000E+00  0.58036194913E+03  0.58036194913E+03  0.00000000000E+00 0.  1.
         21   -1    0    0  502  503 -0.00000000000E+00 -0.00000000000E+00 -0.70345720721E+03  0.70345720721E+03  0.00000000000E+00 0.  1.
         -6    2    1    2    0  503  0.19425200140E+03  0.62264978644E+01 -0.64796869790E+03  0.69790939746E+03  0.17158520999E+03 0.  0.
        -24    2    3    3    0    0  0.14103664885E+03 -0.21271486593E+02 -0.27216365049E+03  0.31733149932E+03  0.79261689057E+02 0.  0.
          6    2    1    2  501    0 -0.19425200140E+03 -0.62264978644E+01  0.52487343981E+03  0.58590975887E+03  0.17327870152E+03 0.  0.
         24    2    5    5    0    0 -0.19974108109E+03 -0.45957558328E+02  0.45160841088E+03  0.50225247212E+03  0.79364931415E+02 0.  0.
          5    1    5    5  501    0  0.54890796891E+01  0.39731060464E+02  0.73265028938E+02  0.83657286752E+02  0.47000000000E+01 0. -1.
        -13    1    6    6    0    0 -0.48934093027E+02 -0.42951511180E+02  0.18231790451E+03  0.19359544436E+03  0.00000000000E+00 0.  1.
         14    1    6    6    0    0 -0.15080698806E+03 -0.30060471487E+01  0.26929050636E+03  0.30865702776E+03  0.00000000000E+00 0. -1.
         -5    1    3    3    0  503  0.53215352543E+02  0.27497984457E+02 -0.37580504741E+03  0.38057789814E+03  0.47000000000E+01 0.  1.
         13    1    4    4    0    0  0.17963306487E+02 -0.78616205755E+01 -0.11796687740E+03  0.11958540722E+03  0.00000000000E+00 0. -1.
        -14    1    4    4    0    0  0.12307334237E+03 -0.13409866017E+02 -0.15419677309E+03  0.19774609210E+03  0.00000000000E+00 0.  1.
</event>
<event>
12    1  0.8562501E-002  0.1764940E+03  0.7818608E-02  0.1171529E+00
         21   -1    0    0  503  502  0.00000000000E+00  0.00000000000E+00  0.39895979204E+03  0.39895979204E+03  0.00000000000E+00 0. -1.
         21   -1    0    0  501  503 -0.00000000000E+00 -0.00000000000E+00 -0.77585731187E+02  0.77585731187E+02  0.00000000000E+00 0. -1.
          6    2    1    2  501    0 -0.30430135451E+02 -0.19494316281E+02  0.16499722298E+03  0.24160756284E+03  0.17275447698E+03 0.  0.
         24    2    3    3    0    0 -0.57835341622E+02  0.13914876398E+02  0.40275645565E+02  0.10952886904E+03  0.82679471467E+02 0.  0.
         -6    2    1    2    0  502  0.30430135451E+02  0.19494316281E+02  0.15637683787E+03  0.23493796040E+03  0.17156954363E+03 0.  0.
        -24    2    5    5    0    0  0.60581264413E+01  0.30893484967E+01  0.42435950189E+01  0.79922698655E+02  0.79519712597E+02 0.  0.
          5    1    3    3  501    0  0.27405206171E+02 -0.33409192679E+02  0.12472157742E+03  0.13207869379E+03  0.47000000000E+01 0. -1.
        -11    1    4    4    0    0 -0.25271415170E+01 -0.24082076490E+02 -0.94677116024E+01  0.25999431057E+02  0.00000000000E+00 0.  1.
         12    1    4    4    0    0 -0.55308200105E+02  0.37996952888E+02  0.49743357167E+02  0.83529437984E+02  0.00000000000E+00 0. -1.
         -5    1    5    5    0  502  0.24372009010E+02  0.16404967784E+02  0.15213324285E+03  0.15501526174E+03  0.47000000000E+01 0.  1.
         13    1    6    6    0    0 -0.24590386493E+02 -0.15941536710E+02  0.24808653626E+02  0.38396471131E+02  0.00000000000E+00 0. -1.
        -14    1    6    6    0    0  0.30648512934E+02  0.19030885207E+02 -0.20565058608E+02  0.41526227524E+02  0.00000000000E+00 0.  1.
</event>
<event>
12    1  0.8562501E-002  0.1804545E+03  0.7818608E-02  0.1167474E+00
         21   -1    0    0  503  502  0.00000000000E+00  0.00000000000E+00  0.48486674837E+02  0.48486674837E+02  0.00000000000E+00 0. -1.
         21   -1    0    0  501  503 -0.00000000000E+00 -0.00000000000E+00 -0.11392762446E+04  0.11392762446E+04  0.00000000000E+00 0. -1.
          6    2    1    2  501    0 -0.55092574071E+02  0.71229964540E+00 -0.92698808973E+03  0.94438907616E+03  0.17183745100E+03 0.  0.
         24    2    3    3    0    0 -0.98440427465E+02 -0.21360414024E+02 -0.62957905971E+03  0.64299156087E+03  0.83195972712E+02 0.  0.
         -6    2    1    2    0  502  0.55092574071E+02 -0.71229964540E+00 -0.16380147999E+03  0.24337384324E+03  0.17135986589E+03 0.  0.
        -24    2    5    5    0    0  0.45266835640E+02  0.52633507018E+02 -0.43519587049E+02  0.11134299838E+03  0.75391885254E+02 0.  0.
          5    1    3    3  501    0  0.43347853394E+02  0.22072713670E+02 -0.29740903002E+03  0.30139751528E+03  0.47000000000E+01 0. -1.
        -13    1    4    4    0    0 -0.33339139786E+00 -0.31769947814E+02 -0.13800394028E+03  0.14161401154E+03  0.00000000000E+00 0.  1.
         14    1    4    4    0    0 -0.98107036067E+02  0.10409533790E+02 -0.49157511944E+03  0.50137754933E+03  0.00000000000E+00 0. -1.
         -5    1    5    5    0  502  0.98257384306E+01 -0.53345806663E+02 -0.12028189294E+03  0.13203084485E+03  0.47000000000E+01 0.  1.
         13    1    6    6    0    0  0.50989510502E+02  0.94942260578E+01 -0.43706000198E+02  0.67825400573E+02  0.00000000000E+00 0. -1.
        -14    1    6    6    0    0 -0.57226748611E+01  0.43139280960E+02  0.18641314860E+00  0.43517597810E+02  0.00000000000E+00 0.  1.
</event>
<event>
12    1  0.8562501E-002  0.2036464E+03  0.7818608E-02  0.1150635E+00
         21   -1    0    0  501  502  0.00000000000E+00  0.00000000000E+00  0.26539097361E+02  0.26539097361E+02  0.00000000000E+00 0. -1.
         21   -1    0    0  502  503 -0.00000000000E+00 -0.00000000000E+00 -0.19260491533E+04  0.19260491533E+04  0.00000000000E+00 0.  1.
         -6    2    1    2    0  503  0.53376244265E+02 -0.54604481085E+02 -0.14795007993E+04  0.14934505189E+04  0.18878867637E+03 0.  0.
        -24    2    3    3    0    0 -0.21486571673E+02 -0.39265736962E+02 -0.36264488729E+03  0.37397343715E+03  0.79632572166E+02 0.  0.
          6    2    1    2  501    0 -0.53376244265E+02  0.54604481085E+02 -0.42000925661E+03  0.45913773178E+03  0.16902369153E+03 0.  0.
         24    2    5    5    0    0 -0.23509139826E+02  0.85396598216E+02 -0.17396616712E+03  0.20933883208E+03  0.75586114281E+02 0.  0.
          5    1    5    5  501    0 -0.29867104439E+02 -0.30792117131E+02 -0.24604308949E+03  0.24979889970E+03  0.47000000000E+01 0. -1.
        -11    1    6    6    0    0  0.25193289831E+02  0.14584838391E+02 -0.59094520474E+02  0.65875501618E+02  0.00000000000E+00 0.  1.
         12    1    6    6    0    0 -0.48702429657E+02  0.70811759825E+02 -0.11487164665E+03  0.14346333046E+03  0.00000000000E+00 0. -1.
         -5    1    3    3    0  503  0.74862815938E+02 -0.15338744123E+02 -0.11168559120E+04  0.11194770817E+04  0.47000000000E+01 0.  1.
         11    1    4    4    0    0 -0.10205695345E+02 -0.62879767802E+02 -0.22408346404E+03  0.23296227221E+03  0.00000000000E+00 0. -1.
        -12    1    4    4    0    0 -0.11280876328E+02  0.23614030840E+02 -0.13856142325E+03  0.14101116493E+03  0.00000000000E+00 0.  1.
</event>
<event>
12    1  0.8562501E-002  0.3286656E+03  0.7818608E-02  0.1072813E+00
         21   -1    0    0  501  502  0.00000000000E+00  0.00000000000E+00  0.14505141996E+03  0.14505141996E+03  0.00000000000E+00 0.  1.
         21   -1    0    0  502  503 -0.00000000000E+00 -0.00000000000E+00 -0.95143180102E+03  0.95143180102E+03  0.00000000000E+00 0. -1.
         -6    2    1    2    0  503 -0.19773748804E+03 -0.18178745094E+03 -0.13010913609E+03  0.34457638032E+03  0.17221411988E+03 0.  0.
        -24    2    3    3    0    0 -0.10170328290E+03 -0.14643184833E+03 -0.26489602278E+02  0.19886541649E+03  0.84023275873E+02 0.  0.
          6    2    1    2  501    0  0.19773748804E+03  0.18178745094E+03 -0.67627124496E+03  0.75190684066E+03  0.18940514450E+03 0.  0.
         24    2    5    5    0    0  0.10914452861E+03  0.11052554860E+03 -0.21466668583E+03  0.27648299797E+03  0.78947052759E+02 0.  0.
          5    1    5    5  501    0  0.88592959425E+02  0.71261902342E+02 -0.46160455913E+03  0.47542384269E+03  0.47000000000E+01 0. -1.
        -11    1    6    6    0    0  0.11596630991E+03  0.90646414216E+02 -0.15748320513E+03  0.21555954477E+03  0.00000000000E+00 0.  1.
         12    1    6    6    0    0 -0.68217812958E+01  0.19879134381E+02 -0.57183480709E+02  0.60923453199E+02  0.00000000000E+00 0. -1.
         -5    1    3    3    0  503 -0.96034205140E+02 -0.35355602608E+02 -0.10361953381E+03  0.14571096383E+03  0.47000000000E+01 0.  1.
         11    1    4    4    0    0  0.11749545157E+02 -0.85266885429E+01  0.86015133002E+01  0.16874307688E+02  0.00000000000E+00 0. -1.
        -12    1    4    4    0    0 -0.11345282806E+03 -0.13790515979E+03 -0.35091115578E+02  0.18199110880E+03  0.00000000000E+00 0.  1.
</event>
<event>
12    1  0.8562501E-002  0.1798213E+03  0.7818608E-02  0.1168043E+00
         21   -1    0    0  501  502  0.00000000000E+00  0.00000000000E+00  0.53732511749E+03  0.53732511749E+03  0.00000000000E+00 0. -1.
         21   -1    0    0  502  503 -0.00000000000E+00 -0.00000000000E+00 -0.69046035695E+02  0.69046035695E+02  0.00000000000E+00 0. -1.
         -6    2    1    2    0  503 -0.52966580168E+01 -0.50221928426E+02  0.12476782429E+03  0.21863967154E+03  0.17229625449E+03 0.  0.
        -24    2    3    3    0    0 -0.58258678685E+02  0.96008038308E+01  0.68991568593E+02  0.12108550388E+03  0.80097525783E+02 0.  0.
          6    2    1    2  501    0  0.52966580168E+01  0.50221928426E+02  0.34351125750E+03  0.38773148164E+03  0.17258453333E+03 0.  0.
         24    2    5    5    0    0 -0.37724031132E+02  0.41875076909E+02  0.10550476450E+03  0.14567853220E+03  0.83152599600E+02 0.  0.
          5    1    5    5  501    0  0.43020689149E+02  0.83468515170E+01  0.23800649300E+03  0.24205294944E+03  0.47000000000E+01 0. -1.
        -13    1    6    6    0    0 -0.21444663763E+02  0.67089677364E+02  0.73190479290E+02  0.10157629975E+03  0.00000000000E+00 0.  1.
         14    1    6    6    0    0 -0.16279367369E+02 -0.25214600455E+02  0.32314285215E+02  0.44102232449E+02  0.00000000000E+00 0. -1.
         -5    1    3    3    0  503  0.52962020669E+02 -0.59822732257E+02  0.55776255700E+02  0.97554167660E+02  0.47000000000E+01 0.  1.
         11    1    4    4    0    0 -0.33433405659E+02 -0.25400009328E+02  0.65801231806E+02  0.78056102868E+02  0.00000000000E+00 0. -1.
        -12    1    4    4    0    0 -0.24825273026E+02  0.35000813159E+02  0.31903367872E+01  0.43029401011E+02  0.00000000000E+00 0.  1.
</event>
<event>
12    1  0.8562501E-002  0.1871139E+03  0.7818608E-02  0.1161259E+00
         21   -1    0    0  501  502  0.00000000000E+00  0.00000000000E+00  0.80939812441E+02  0.80939812441E+02  0.00000000000E+00 0.  1.
         21   -1    0    0  502  503 -0.00000000000E+00 -0.00000000000E+00 -0.43464512732E+03  0.43464512732E+03  0.00000000000E+00 0.  1.
         -6    2    1    2    0  503 -0.47979826620E+01 -0.73851965378E+02 -0.20119296700E+03  0.27475483089E+03  0.17185596789E+03 0.  0.
        -24    2    3    3    0    0 -0.54606154256E+02 -0.25768473196E+02 -0.57395264078E+02  0.11509035286E+03  0.79408605897E+02 0.  0.
          6    2    1    2  501    0  0.47979826620E+01  0.73851965378E+02 -0.15251234788E+03  0.24083010887E+03  0.17106136810E+03 0.  0.
         24    2    5    5    0    0 -0.43281342068E+02  0.61867171212E+02 -0.37558210545E+02  0.11556319206E+03  0.79015256337E+02 0.  0.
          5    1    5    5  501    0  0.48079324730E+02  0.11984794166E+02 -0.11495413734E+03  0.12526691681E+03  0.47000000000E+01 0. -1.
        -11    1    6    6    0    0 -0.32954963391E+01  0.40189461833E+02  0.17661865048E+02  0.44022660251E+02  0.00000000000E+00 0.  1.
         12    1    6    6    0    0 -0.39985845729E+02  0.21677709378E+02 -0.55220075593E+02  0.71540531806E+02  0.00000000000E+00 0. -1.
         -5    1    3    3    0  503  0.49808171594E+02 -0.48083492182E+02 -0.14379770292E+03  0.15966447802E+03  0.47000000000E+01 0.  1.
         13    1    4    4    0    0 -0.40586999764E+02 -0.10084691934E+01  0.10105011444E+02  0.41838174150E+02  0.00000000000E+00 0. -1.
        -14    1    4    4    0    0 -0.14019154492E+02 -0.24760004003E+02 -0.67500275522E+02  0.73252178714E+02  0.00000000000E+00 0.  1.
</event>
<event>
12    1  0.8562501E-002  0.2004889E+03  0.7818608E-02  0.1149961E+00
         21   -1    0    0  501  502  0.00000000000E+00  0.00000000000E+00  0.34379836409E+03  0.34379836409E+03  0.00000000000E+00 0.  1.
         21   -1    0    0  502  503 -0.00000000000E+00 -0.00000000000E+00 -0.12430456115E+03  0.12430456115E+03  0.00000000000E+00 0.  1.
         -6    2    1    2    0  503  0.95164908368E+02  0.22513650767E+02  0.17239267861E+03  0.26215556399E+03  0.17158985937E+03 0.  0.
        -24    2    3    3    0    0  0.11970073417E+03  0.39188862619E+02  0.17734274098E+03  0.23171443136E+03  0.79856729268E+02 0.  0.
          6    2    1    2  501    0 -0.95164908368E+02 -0.22513650767E+02  0.47101124336E+02  0.20594736126E+03  0.17502164277E+03 0.  0.
         24    2    5    5    0    0 -0.57890923480E+02 -0.41052432496E+02 -0.35857345675E+02  0.11301064018E+03  0.80305630690E+02 0.  0.
          5    1    5    5  501    0 -0.37273984887E+02  0.18538781729E+02  0.82958470010E+02  0.92936721073E+02  0.47000000000E+01 0. -1.
        -11    1    6    6    0    0 -0.21286149264E+02 -0.14816495652E+02  0.25849398334E+02  0.36617210272E+02  0.00000000000E+00 0.  1.
         12    1    6    6    0    0 -0.36604774216E+02 -0.26235936843E+02 -0.61706744008E+02  0.76393429911E+02  0.00000000000E+00 0. -1.
         -5    1    3    3    0  503 -0.24535825802E+02 -0.16675211852E+02 -0.49500623724E+01  0.30441132627E+02  0.47000000000E+01 0.  1.
         13    1    4    4    0    0  0.62258113488E+00  0.28805847040E+02  0.25554888365E+02  0.38512553153E+02  0.00000000000E+00 0. -1.
        -14    1    4    4    0    0  0.11907815303E+03  0.10383015579E+02  0.15178785261E+03  0.19320187821E+03  0.00000000000E+00 0.  1.
</event>
<event>
12    1  0.8562501E-002  0.2590298E+03  0.7818608E-02  0.1107753E+00
         21   -1    0    0  501  502  0.00000000000E+00  0.00000000000E+00  0.53772234471E+02  0.53772234471E+02  0.00000000000E+00 0. -1.
         21   -1    0    0  502  503 -0.00000000000E+00 -0.00000000000E+00 -0.12515221651E+04  0.12515221651E+04  0.00000000000E+00 0.  1.
         -6    2    1    2    0  503  0.80318163408E+02  0.17609032503E+03 -0.55928510753E+03  0.61628514568E+03  0.17189746751E+03 0.  0.
        -24    2    3    3    0    0  0.11098230247E+03  0.15734432523E+03 -0.53072275164E+03  0.57013755520E+03  0.79472539879E+02 0.  0.
          6    2    1    2  501    0 -0.80318163408E+02 -0.17609032503E+03 -0.63846482309E+03  0.68900925389E+03  0.17215577734E+03 0.  0.
         24    2    5    5    0    0  0.21648223412E+02 -0.10138329601E+03 -0.36926227138E+03  0.39156953214E+03  0.78897751212E+02 0.  0.
          5    1    5    5  501    0 -0.10196638682E+03 -0.74707029016E+02 -0.26920255171E+03  0.29743972175E+03  0.47000000000E+01 0. -1.
        -13    1    6    6    0    0  0.33429335184E+02 -0.58551494776E+01 -0.10265382845E+03  0.10811850777E+03  0.00000000000E+00 0.  1.
         14    1    6    6    0    0 -0.11781111773E+02 -0.95528146537E+02 -0.26660844293E+03  0.28345102437E+03  0.00000000000E+00 0. -1.
         -5    1    3    3    0  503 -0.30664139066E+02  0.18745999800E+02 -0.28562355892E+02  0.46147590482E+02  0.47000000000E+01 0.  1.
         11    1    4    4    0    0  0.39850926954E+02  0.81543915962E+01 -0.14261175182E+03  0.14829936696E+03  0.00000000000E+00 0. -1.
        -12    1    4    4    0    0  0.71131375521E+02  0.14918993363E+03 -0.38811099981E+03  0.42183818824E+03  0.00000000000E+00 0.  1.
</event>
<event>
12    1  0.8562501E-002  0.2099427E+03  0.7818608E-02  0.1141813E+00
         21   -1    0    0  503  502  0.00000000000E+00  0.00000000000E+00  0.11038966235E+03  0.11038966235E+03  0.00000000000E+00 0.  1.
         21   -1    0    0  501  503 -0.00000000000E+00 -0.00000000000E+00 -0.45806055842E+03  0.45806055842E+03  0.00000000000E+00 0. -1.
          6    2    1    2  501    0  0.56805094596E+02 -0.10143111993E+03 -0.27767717760E+03  0.34810994408E+03  0.17481655341E+03 0.  0.
         24    2    3    3    0    0  0.60235342115E+02  0.38115469232E+01 -0.15438859800E+03  0.18590652431E+03  0.84158019577E+02 0.  0.
         -6    2    1    2    0  502 -0.56805094596E+02  0.10143111993E+03 -0.69993718471E+02  0.22034027668E+03  0.17359615791E+03 0.  0.
        -24    2    5    5    0    0  0.29924586912E+02  0.20124838646E+02 -0.12859471183E+02  0.88358606576E+02  0.79632828184E+02 0.  0.
          5    1    3    3  501    0 -0.34302475193E+01 -0.10524266686E+03 -0.12328857960E+03  0.16220341977E+03  0.47000000000E+01 0. -1.
        -11    1    4    4    0    0  0.73097188114E+02  0.16816081346E+02 -0.81517032323E+02  0.11077457317E+03  0.00000000000E+00 0.  1.
         12    1    4    4    0    0 -0.12861845999E+02 -0.13004534423E+02 -0.72871565679E+02  0.75131951143E+02  0.00000000000E+00 0. -1.
         -5    1    5    5    0  502 -0.86729681508E+02  0.81306281289E+02 -0.57134247288E+02  0.13198167011E+03  0.47000000000E+01 0.  1.
         11    1    6    6    0    0  0.57275559489E+01  0.12347295057E+02  0.33127898621E+02  0.35815056323E+02  0.00000000000E+00 0. -1.
        -12    1    6    6    0    0  0.24197030963E+02  0.77775435893E+01 -0.45987369804E+02  0.52543550253E+02  0.00000000000E+00 0.  1.
</event>
<event>
12    1  0.8562501E-002  0.2011675E+03  0.7818608E-02  0.1148791E+00
         21   -1    0    0  503  502  0.00000000000E+00  0.00000000000E+00  0.34409207031E+03  0.34409207031E+03  0.00000000000E+00 0.  1.
         21   -1    0    0  501  503 -0.00000000000E+00 -0.00000000000E+00 -0.13062463586E+03  0.13062463586E+03  0.00000000000E+00 0.  1.
          6    2    1    2  501    0 -0.35300570763E+02  0.99759615522E+02  0.18196455120E+03  0.27125531627E+03  0.17108546848E+03 0.  0.
         24    2    3    3    0    0 -0.84657190246E+02  0.82968170385E+02  0.10313096210E+03  0.17662522968E+03  0.80684070671E+02 0.  0.
         -6    2    1    2    0  502  0.35300570763E+02 -0.99759615522E+02  0.31502883251E+02  0.20346138990E+03  0.17089761363E+03 0.  0.
        -24    2    5    5    0    0  0.65666672203E+02 -0.14276934294E+02  0.40996945895E+02  0.11212894150E+03  0.79851156894E+02 0.  0.
          5    1    3    3  501    0  0.49356619483E+02  0.16791445137E+02  0.78833589100E+02  0.94630086585E+02  0.47000000000E+01 0. -1.
        -13    1    4    4    0    0 -0.85611126201E+02  0.96935996766E+02  0.94545396749E+02  0.16020201136E+03  0.00000000000E+00 0.  1.
         14    1    4    4    0    0  0.95393595505E+00 -0.13967826381E+02  0.85855653469E+01  0.16423218319E+02  0.00000000000E+00 0. -1.
         -5    1    5    5    0  502 -0.30366101440E+02 -0.85482681228E+02 -0.94940626437E+01  0.91332448407E+02  0.47000000000E+01 0.  1.
         13    1    6    6    0    0 -0.92971787318E+01  0.71088929254E+01  0.31492617484E+02  0.33597006518E+02  0.00000000000E+00 0. -1.
        -14    1    6    6    0    0  0.74963850935E+02 -0.21385827219E+02  0.95043284110E+01  0.78531934978E+02  0.00000000000E+00 0.  1.
</event>
<event>
12    1  0.8562501E-002  0.2079478E+03  0.7818608E-02  0.1143573E+00
         21   -1    0    0  503  502  0.00000000000E+00  0.00000000000E+00  0.29776221266E+02  0.29776221266E+02  0.00000000000E+00 0.  1.
         21   -1    0    0  501  503 -0.00000000000E+00 -0.00000000000E+00 -0.18630884209E+04  0.18630884209E+04  0.00000000000E+00 0.  1.
          6    2    1    2  501    0  0.95632184397E+02 -0.60168528644E+02 -0.13711324251E+04  0.13868116075E+04  0.17457531601E+03 0.  0.
         24    2    3    3    0    0  0.28886903934E+02 -0.89006865520E+02 -0.10620374998E+04  0.10692453231E+04  0.81272594625E+02 0.  0.
         -6    2    1    2    0  502 -0.95632184397E+02  0.60168528644E+02 -0.46217977450E+03  0.50605303465E+03  0.17237680641E+03 0.  0.
        -24    2    5    5    0    0  0.80341616291E+01  0.47819696778E+02 -0.29435227788E+03  0.30834779048E+03  0.77998879817E+02 0.  0.
          5    1    3    3  501    0  0.66745280463E+02  0.28838336876E+02 -0.30909492529E+03  0.31756628438E+03  0.47000000000E+01 0. -1.
        -11    1    4    4    0    0  0.53463987213E+02 -0.55346039278E+02 -0.82411382711E+03  0.82769872661E+03  0.00000000000E+00 0.  1.
         12    1    4    4    0    0 -0.24577083279E+02 -0.33660826242E+02 -0.23792367269E+03  0.24154659649E+03  0.00000000000E+00 0. -1.
         -5    1    5    5    0  502 -0.10366634603E+03  0.12348831866E+02 -0.16782749663E+03  0.19770524417E+03  0.47000000000E+01 0.  1.
         13    1    6    6    0    0 -0.20681228972E+02  0.48027429319E+02 -0.25071183698E+03  0.25610695500E+03  0.00000000000E+00 0. -1.
        -14    1    6    6    0    0  0.28715390601E+02 -0.20773254114E+00 -0.43640440894E+02  0.52240835479E+02  0.00000000000E+00 0.  1.
</event>
<event>
12    1  0.8562501E-002  0.1735786E+03  0.7818608E-02  0.1174468E+00
         21   -1    0    0  501  502  0.00000000000E+00  0.00000000000E+00  0.18945378024E+04  0.18945378024E+04  0.00000000000E+00 0.  1.
         21   -1    0    0  502  503 -0.00000000000E+00 -0.00000000000E+00 -0.19016542138E+02  0.19016542138E+02  0.00000000000E+00 0.  1.
         -6    2    1    2    0  503  0.60153302637E+01  0.67047518388E+01  0.54663615794E+03  0.57353345419E+03  0.17334473172E+03 0.  0.
        -24    2    3    3    0    0 -0.27504021186E+02  0.58673299710E+02  0.23765957555E+03  0.25839396864E+03  0.78015010723E+02 0.  0.
          6    2    1    2  501    0 -0.60153302637E+01 -0.67047518388E+01  0.13288851023E+04  0.13400208903E+04  0.17216048761E+03 0.  0.
         24    2    5    5    0    0 -0.48299788946E+01  0.32746801614E+02  0.11964293154E+04  0.12017296917E+04  0.10777505975E+03 0.  0.
          5    1    5    5  501    0 -0.11853513691E+01 -0.39451553453E+02  0.13245578692E+03  0.13829119862E+03  0.47000000000E+01 0. -1.
        -13    1    6    6    0    0  0.40292176312E+02  0.49732374849E+02  0.73893833591E+03  0.74170521965E+03  0.00000000000E+00 0.  1.
         14    1    6    6    0    0 -0.45122155207E+02 -0.16985573235E+02  0.45749097948E+03  0.46002447206E+03  0.00000000000E+00 0. -1.
         -5    1    3    3    0  503  0.33519351450E+02 -0.51968547871E+02  0.30897658239E+03  0.31513948555E+03  0.47000000000E+01 0.  1.
         11    1    4    4    0    0  0.12123851396E+02  0.18516173784E+02  0.16462618361E+03  0.16610724486E+03  0.00000000000E+00 0. -1.
        -12    1    4    4    0    0 -0.39627872582E+02  0.40157125926E+02  0.73033391941E+02  0.92286723782E+02  0.00000000000E+00 0.  1.
</event>
<event>
12    1  0.8562501E-002  0.2253868E+03  0.7818608E-02  0.1130152E+00
         21   -1    0    0  501  502  0.00000000000E+00  0.00000000000E+00  0.11676486292E+04  0.11676486292E+04  0.00000000000E+00 0. -1.
         21   -1    0    0  502  503 -0.00000000000E+00 -0.00000000000E+00 -0.45665647877E+02  0.45665647877E+02  0.00000000000E+00 0.  1.
         -6    2    1    2    0  503  0.16504880592E+02 -0.14529816418E+03  0.42346312691E+03  0.47970847240E+03  0.17150869087E+03 0.  0.
        -24    2    3    3    0    0  0.62594342377E+01 -0.11459178951E+03  0.42383078684E+03  0.44699645946E+03  0.83682974121E+02 0.  0.
          6    2    1    2  501    0 -0.16504880592E+02  0.14529816418E+03  0.69851985443E+03  0.73360580469E+03  0.16989267803E+03 0.  0.
         24    2    5    5    0    0 -0.42161986659E+02  0.12192967996E+03  0.67394941588E+03  0.69082532320E+03  0.79920785946E+02 0.  0.
          5    1    5    5  501    0  0.25657106066E+02  0.23368484222E+02  0.24570438545E+02  0.42780481494E+02  0.47000000000E+01 0. -1.
        -13    1    6    6    0    0  0.38385447216E+01  0.88597112816E+02  0.30871779897E+03  0.32120221392E+03  0.00000000000E+00 0.  1.
         14    1    6    6    0    0 -0.46000531380E+02  0.33332567143E+02  0.36523161691E+03  0.36962310928E+03  0.00000000000E+00 0. -1.
         -5    1    3    3    0  503  0.10245446355E+02 -0.30706374676E+02 -0.36765993096E+00  0.32712012940E+02  0.47000000000E+01 0.  1.
         13    1    4    4    0    0 -0.20705649653E+02 -0.58728629360E+02  0.10409758970E+03  0.12130162413E+03  0.00000000000E+00 0. -1.
        -14    1    4    4    0    0  0.26965083891E+02 -0.55863160145E+02  0.31973319714E+03  0.32569483533E+03  0.00000000000E+00 0.  1.
</event>
<event>
12    1  0.8562501E-002  0.1822547E+03  0.7818608E-02  0.1165794E+00
         21   -1    0    0  503  502  0.00000000000E+00  0.00000000000E+00  0.11624166825E+04  0.11624166825E+04  0.00000000000E+00 0.  1.
         21   -1    0    0  501  503 -0.00000000000E+00 -0.00000000000E+00 -0.31040874924E+02  0.31040874924E+02  0.00000000000E+00 0. -1.
          6    2    1    2  501    0  0.16253890649E+02  0.59094682733E+02  0.73823789677E+03  0.76040250773E+03  0.17164035380E+03 0.  0.
         24    2    3    3    0    0 -0.24378923166E+02  0.93873169184E+02  0.56509923028E+03  0.57913018080E+03  0.81536019426E+02 0.  0.
         -6    2    1    2    0  502 -0.16253890649E+02 -0.59094682733E+02  0.39313791085E+03  0.43305504973E+03  0.17094703467E+03 0.  0.
        -24    2    5    5    0    0 -0.31345015722E+02 -0.98083668375E+02  0.22423013876E+03  0.25898664786E+03  0.78689342544E+02 0.  0.
          5    1    3    3  501    0  0.40632813815E+02 -0.34778486451E+02  0.17313866649E+03  0.18127232694E+03  0.47000000000E+01 0. -1.
        -11    1    4    4    0    0 -0.43179064572E+02  0.15343162963E+02  0.19196467820E+03  0.19735825785E+03  0.00000000000E+00 0.  1.
         12    1    4    4    0    0  0.18800141405E+02  0.78530006222E+02  0.37313455208E+03  0.38177192294E+03  0.00000000000E+00 0. -1.
         -5    1    5    5    0  502  0.15091125073E+02  0.38988985642E+02  0.16890777209E+03  0.17406840187E+03  0.47000000000E+01 0.  1.
         11    1    6    6    0    0  0.84242022570E+01 -0.87271047398E+02  0.13949506139E+03  0.16476065990E+03  0.00000000000E+00 0. -1.
        -12    1    6    6    0    0 -0.39769217979E+02 -0.10812620977E+02  0.84735077370E+02  0.94225987965E+02  0.00000000000E+00 0.  1.
</event>
<event>
12    1  0.8562501E-002  0.2393377E+03  0.7818608E-02  0.1120260E+00
         21   -1    0    0  501  502  0.00000000000E+00  0.00000000000E+00  0.32766860698E+03  0.32766860698E+03  0.00000000000E+00 0. -1.
         21   -1    0    0  502  503 -0.00000000000E+00 -0.00000000000E+00 -0.20192818251E+03  0.20192818251E+03  0.00000000000E+00 0.  1.
         -6    2    1    2    0  503  0.10848361316E+02  0.16666928405E+03 -0.34366834985E+02  0.24164388983E+03  0.17121434798E+03 0.  0.
        -24    2    3    3    0    0  0.20898559694E+02  0.15967090678E+03  0.24060762682E+02  0.18176185629E+03  0.80789255672E+02 0.  0.
          6    2    1    2  501    0 -0.10848361316E+02 -0.16666928405E+03  0.16010725946E+03  0.28795289966E+03  0.17142403770E+03 0.  0.
         24    2    5    5    0    0  0.36614226958E+02 -0.41221361305E+02  0.31163626019E+02  0.10183887759E+03  0.79750756477E+02 0.  0.
          5    1    5    5  501    0 -0.47462588274E+02 -0.12544792275E+03  0.12894363344E+03  0.18611402207E+03  0.47000000000E+01 0. -1.
        -13    1    6    6    0    0 -0.74154943040E+01  0.17107526161E+02 -0.63430316051E+01  0.19694950039E+02  0.00000000000E+00 0.  1.
         14    1    6    6    0    0  0.44029721262E+02 -0.58328887466E+02  0.37506657624E+02  0.82143927551E+02  0.00000000000E+00 0. -1.
         -5    1    3    3    0  503 -0.10050198378E+02  0.69983772767E+01 -0.58427597666E+02  0.59882033541E+02  0.47000000000E+01 0.  1.
         11    1    4    4    0    0 -0.18003932658E+01  0.94648584565E+02  0.51333309565E+02  0.10768799676E+03  0.00000000000E+00 0. -1.
        -12    1    4    4    0    0  0.22698952960E+02  0.65022322212E+02 -0.27272546883E+02  0.74073859524E+02  0.00000000000E+00 0.  1.
</event>
<event>
12    1  0.8562501E-002  0.2240640E+03  0.7818608E-02  0.1131235E+00
         21   -1    0    0  501  502  0.00000000000E+00  0.00000000000E+00  0.18940274948E+03  0.18940274948E+03  0.00000000000E+00 0.  1.
         21   -1    0    0  502  503 -0.00000000000E+00 -0.00000000000E+00 -0.48325330107E+03  0.48325330107E+03  0.00000000000E+00 0.  1.
         -6    2    1    2    0  503 -0.87854681966E+02 -0.11552077792E+03  0.80554187920E+02  0.23632638656E+03  0.16821916811E+03 0.  0.
        -24    2    3    3    0    0 -0.10253777071E+03 -0.29113430721E+02  0.55504073261E+02  0.14504976858E+03  0.81222822821E+02 0.  0.
          6    2    1    2  501    0  0.87854681966E+02  0.11552077792E+03 -0.37440473951E+03  0.43632966399E+03  0.17070785405E+03 0.  0.
         24    2    5    5    0    0  0.23645764281E+02 -0.10178274845E+02 -0.14478647784E+03  0.16675653278E+03  0.78625044439E+02 0.  0.
          5    1    5    5  501    0  0.64208917685E+02  0.12569905277E+03 -0.22961826167E+03  0.26957313121E+03  0.47000000000E+01 0. -1.
        -11    1    6    6    0    0  0.22909010039E+02  0.20871947861E+01 -0.15116963446E+03  0.15290989996E+03  0.00000000000E+00 0.  1.
         12    1    6    6    0    0  0.73675424135E+00 -0.12265469631E+02  0.63831566202E+01  0.13846632822E+02  0.00000000000E+00 0. -1.
         -5    1    3    3    0  503  0.14683088743E+02 -0.86407347201E+02  0.25050114660E+02  0.91276617980E+02  0.47000000000E+01 0.  1.
         13    1    4    4    0    0 -0.11584856643E+03 -0.29788197770E+02  0.44029966765E+02  0.12746319094E+03  0.00000000000E+00 0. -1.
        -14    1    4    4    0    0  0.13310795723E+02  0.67476704980E+00  0.11474106495E+02  0.17586577644E+02  0.00000000000E+00 0.  1.
</event>
<event>
12    1  0.8562501E-002  0.2311952E+03  0.7818608E-02  0.1125839E+00
         21   -1    0    0  503  502  0.00000000000E+00  0.00000000000E+00  0.11505836146E+04  0.11505836146E+04  0.00000000000E+00 0. -1.
         21   -1    0    0  501  503 -0.00000000000E+00 -0.00000000000E+00 -0.48490649799E+02  0.48490649799E+02  0.00000000000E+00 0.  1.
          6    2    1    2  501    0  0.83178882450E+02  0.12878425912E+03  0.67492629966E+03  0.71335562815E+03  0.17276177345E+03 0.  0.
         24    2    3    3    0    0  0.66355830408E+02  0.10940255131E+02  0.39624889303E+03  0.41028235101E+03  0.82435653129E+02 0.  0.
         -6    2    1    2    0  502 -0.83178882450E+02 -0.12878425912E+03  0.42716666517E+03  0.48571863627E+03  0.17305236753E+03 0.  0.
        -24    2    5    5    0    0 -0.96586604708E+02 -0.28701032176E+02  0.26934147969E+03  0.29829585616E+03  0.79264517063E+02 0.  0.
          5    1    3    3  501    0  0.16823052042E+02  0.11784400399E+03  0.27867740662E+03  0.30307327714E+03  0.47000000000E+01 0. -1.
        -11    1    4    4    0    0  0.79405234260E+01  0.24105070450E+02  0.30564695931E+02  0.39727911738E+02  0.00000000000E+00 0.  1.
         12    1    4    4    0    0  0.58415306982E+02 -0.13164815320E+02  0.36568419710E+03  0.37055443927E+03  0.00000000000E+00 0. -1.
         -5    1    5    5    0  502  0.13407722258E+02 -0.10008322695E+03  0.15782518548E+03  0.18742278011E+03  0.47000000000E+01 0.  1.
         11    1    6    6    0    0 -0.29386327942E+02 -0.20651192155E+02  0.19282610752E+03  0.19614264133E+03  0.00000000000E+00 0. -1.
        -12    1    6    6    0    0 -0.67200276766E+02 -0.80498400205E+01  0.76515372167E+02  0.10215321483E+03  0.00000000000E+00 0.  1.
</event>
<event>
12    1  0.8562501E-002  0.1745824E+03  0.7818608E-02  0.1173330E+00
         21   -1    0    0  503  502  0.00000000000E+00  0.00000000000E+00  0.24445760193E+03  0.24445760193E+03  0.00000000000E+00 0. -1.
         21   -1    0    0  501  503 -0.00000000000E+00 -0.00000000000E+00 -0.20779700145E+03  0.20779700145E+03  0.00000000000E+00 0. -1.
          6    2    1    2  501    0 -0.40476895249E+01  0.27325662926E+02 -0.12509534892E+03  0.21477401008E+03  0.17238315880E+03 0.  0.
         24    2    3    3    0    0 -0.35712237176E+02  0.32538976610E+02 -0.30593697002E+02  0.11486167634E+03  0.99614665145E+02 0.  0.
         -6    2    1    2    0  502  0.40476895249E+01 -0.27325662926E+02  0.16175594940E+03  0.23748059330E+03  0.17166528298E+03 0.  0.
        -24    2    5    5    0    0 -0.13663442572E+02 -0.80813609390E+02  0.12885935353E+03  0.17206713415E+03  0.79276960949E+02 0.  0.
          5    1    3    3  501    0  0.31664547651E+02 -0.52133136840E+01 -0.94501651922E+02  0.99912333741E+02  0.47000000000E+01 0. -1.
        -11    1    4    4    0    0 -0.13435488952E+02 -0.34074719365E+02  0.34811633690E+01  0.36792898249E+02  0.00000000000E+00 0.  1.
         12    1    4    4    0    0 -0.22276748224E+02  0.66613695975E+02 -0.34074860371E+02  0.78068778088E+02  0.00000000000E+00 0. -1.
         -5    1    5    5    0  502  0.17711132096E+02  0.53487946464E+02  0.32896595871E+02  0.65413459143E+02  0.47000000000E+01 0.  1.
         13    1    6    6    0    0 -0.37670602292E+02 -0.54596507332E+02  0.42763887974E+02  0.78921499001E+02  0.00000000000E+00 0. -1.
        -14    1    6    6    0    0  0.24007159720E+02 -0.26217102058E+02  0.86095465559E+02  0.93145635152E+02  0.00000000000E+00 0.  1.
</event>
<event>
12    1  0.8562501E-002  0.1883167E+03  0.7818608E-02  0.1160377E+00
         21   -1    0    0  501  502  0.00000000000E+00  0.00000000000E+00  0.16358411374E+04  0.16358411374E+04  0.00000000000E+00 0. -1.
         21   -1    0    0  502  503 -0.00000000000E+00 -0.00000000000E+00 -0.22358385323E+02  0.22358385323E+02  0.00000000000E+00 0. -1.
         -6    2    1    2    0  503  0.48936556871E+02  0.49792902774E+02  0.64629103932E+03  0.67316808884E+03  0.17489725146E+03 0.  0.
        -24    2    3    3    0    0  0.57258047567E+02  0.62625882086E+02  0.64784390867E+03  0.65709220726E+03  0.69770722535E+02 0.  0.
          6    2    1    2  501    0 -0.48936556871E+02 -0.49792902774E+02  0.96719171279E+03  0.98503143391E+03  0.17306934084E+03 0.  0.
         24    2    5    5    0    0  0.15714997178E+02 -0.73251015012E+02  0.43584408876E+03  0.44923063694E+03  0.78964695430E+02 0.  0.
          5    1    5    5  501    0 -0.64651554049E+02  0.23458112238E+02  0.53134762403E+03  0.53580079697E+03  0.47000000000E+01 0. -1.
        -13    1    6    6    0    0  0.33838534495E+02 -0.41581889895E+02  0.37076132738E+03  0.37461722046E+03  0.00000000000E+00 0.  1.
         14    1    6    6    0    0 -0.18123537318E+02 -0.31669125117E+02  0.65082761385E+02  0.74613416488E+02  0.00000000000E+00 0. -1.
         -5    1    3    3    0  503 -0.83214906965E+01 -0.12832979311E+02 -0.15528693517E+01  0.16075881582E+02  0.47000000000E+01 0.  1.
         11    1    4    4    0    0  0.31693800349E+02  0.26519790588E+02  0.11124765849E+03  0.11867534619E+03  0.00000000000E+00 0. -1.
        -12    1    4    4    0    0  0.25564247218E+02  0.36106091497E+02  0.53659625018E+03  0.53841686107E+03  0.00000000000E+00 0.  1.
</event>
<event>
12    1  0.8562501E-002  0.1765663E+03  0.7818608E-02  0.1171489E+00
         21   -1    0    0  503  502  0.00000000000E+00  0.00000000000E+00  0.60609090858E+02  0.60609090858E+02  0.00000000000E+00 0.  1.
         21   -1    0    0  501  503 -0.00000000000E+00 -0.00000000000E+00 -0.51933377730E+03  0.51933377730E+03  0.00000000000E+00 0.  1.
          6    2    1    2  501    0 -0.50530560541E+01 -0.37080474942E+02 -0.26608691180E+03  0.31862893935E+03  0.17123568951E+03 0.  0.
         24    2    3    3    0    0  0.71192759844E+01 -0.69076665246E+02 -0.26320803529E+03  0.28395474446E+03  0.80805676104E+02 0.  0.
         -6    2    1    2    0  502  0.50530560541E+01  0.37080474942E+02 -0.19263777464E+03  0.26131392881E+03  0.17255480918E+03 0.  0.
        -24    2    5    5    0    0  0.17806345104E+02  0.17464987849E+02 -0.21586863046E+03  0.22800962912E+03  0.69043708117E+02 0.  0.
          5    1    3    3  501    0 -0.12172332038E+02  0.31996190304E+02 -0.28788765140E+01  0.34674194889E+02  0.47000000000E+01 0. -1.
        -13    1    4    4    0    0 -0.29406949930E+02 -0.62954180645E+02 -0.17462490942E+03  0.18794109864E+03  0.00000000000E+00 0.  1.
         14    1    4    4    0    0  0.36526225915E+02 -0.61224846009E+01 -0.88583125862E+02  0.96013645826E+02  0.00000000000E+00 0. -1.
         -5    1    5    5    0  502 -0.12753289050E+02  0.19615487093E+02  0.23230855816E+02  0.33304299684E+02  0.47000000000E+01 0.  1.
         13    1    6    6    0    0  0.34522945952E+02  0.33175043918E+02 -0.11507010706E+03  0.12463365066E+03  0.00000000000E+00 0. -1.
        -14    1    6    6    0    0 -0.16716600848E+02 -0.15710056069E+02 -0.10079852339E+03  0.10337597847E+03  0.00000000000E+00 0.  1.
</event>
<event>
12    1  0.8562501E-002  0.2230555E+03  0.7818608E-02  0.1131964E+00
         21   -1    0    0  501  502  0.00000000000E+00  0.00000000000E+00  0.31161692158E+02  0.31161692158E+02  0.00000000000E+00 0. -1.
         21   -1    0    0  502  503 -0.00000000000E+00 -0.00000000000E+00 -0.21027850686E+04  0.21027850686E+04  0.00000000000E+00 0. -1.
         -6    2    1    2    0  503  0.76544660570E+02  0.11665755738E+03 -0.15692730470E+04  0.15850462650E+04  0.17402785792E+03 0.  0.
        -24    2    3    3    0    0  0.10615921655E+03  0.63534567411E+02 -0.13280298135E+04  0.13362100503E+04  0.80546214472E+02 0.  0.
          6    2    1    2  501    0 -0.76544660570E+02 -0.11665755738E+03 -0.50235032944E+03  0.54890049578E+03  0.17166196439E+03 0.  0.
         24    2    5    5    0    0  0.23961657733E+02 -0.55297362308E+02 -0.27539484174E+03  0.29317119172E+03  0.80467816394E+02 0.  0.
          5    1    5    5  501    0 -0.10050631830E+03 -0.61360195072E+02 -0.22695548770E+03  0.25572930406E+03  0.47000000000E+01 0. -1.
        -13    1    6    6    0    0  0.47573046192E+01 -0.47764284643E+02 -0.26635990405E+03  0.27065043381E+03  0.00000000000E+00 0.  1.
         14    1    6    6    0    0  0.19204353114E+02 -0.75330776660E+01 -0.90349376889E+01  0.22520757907E+02  0.00000000000E+00 0. -1.
         -5    1    3    3    0  503 -0.29614555982E+02  0.53122989969E+02 -0.24124323352E+03  0.24883621462E+03  0.47000000000E+01 0.  1.
         11    1    4    4    0    0  0.65778932605E+02 -0.55890299202E+01 -0.50515957758E+03  0.50945490875E+03  0.00000000000E+00 0. -1.
        -12    1    4    4    0    0  0.40380283947E+02  0.69123597332E+02 -0.82287023588E+03  0.82675514159E+03  0.00000000000E+00 0.  1.
</event>
<event>
12    1  0.8562501E-002  0.3383147E+03  0.7818608E-02  0.1067620E+00
         21   -1    0    0  501  502  0.00000000000E+00  0.00000000000E+00  0.15612341843E+03  0.15612341843E+03  0.00000000000E+00 0. -1.
         21   -1    0    0  502  503 -0.00000000000E+00 -0.00000000000E+00 -0.89335143016E+03  0.89335143016E+03  0.00000000000E+00 0.  1.
         -6    2    1    2    0  503  0.28266084723E+03  0.67274525118E+02 -0.14536738548E+03  0.36822341999E+03  0.17330260813E+03 0.  0.
        -24    2    3    3    0    0  0.20683303757E+03  0.99603484669E+02 -0.61764485681E+02  0.25072212980E+03  0.79661628719E+02 0.  0.
          6    2    1    2  501    0 -0.28266084723E+03 -0.67274525118E+02 -0.59186062625E+03  0.68125142860E+03  0.17141030242E+03 0.  0.
         24    2    5    5    0    0 -0.15982735060E+03 -0.14828812630E+02 -0.45791964652E+03  0.49204017972E+03  0.81538089885E+02 0.  0.
          5    1    5    5  501    0 -0.12283349662E+03 -0.52445712488E+02 -0.13394097973E+03  0.18921124888E+03  0.47000000000E+01 0. -1.
        -11    1    6    6    0    0 -0.63740987933E+02 -0.41066424176E+02 -0.25431093472E+03  0.26537410622E+03  0.00000000000E+00 0.  1.
         12    1    6    6    0    0 -0.96086362672E+02  0.26237611546E+02 -0.20360871181E+03  0.22666607350E+03  0.00000000000E+00 0. -1.
         -5    1    3    3    0  503  0.75827809661E+02 -0.32328959551E+02 -0.83602899796E+02  0.11750129020E+03  0.47000000000E+01 0.  1.
         13    1    4    4    0    0  0.34668554551E+02  0.40108771717E+01  0.16766286452E+02  0.38718266642E+02  0.00000000000E+00 0. -1.
        -14    1    4    4    0    0  0.17216448302E+03  0.95592607497E+02 -0.78530772133E+02  0.21200386315E+03  0.00000000000E+00 0.  1.
</event>
<event>
12    1  0.8562501E-002  0.1981081E+03  0.7818608E-02  0.1152108E+00
         21   -1    0    0  503  502  0.00000000000E+00  0.00000000000E+00  0.13647639621E+04  0.13647639621E+04  0.00000000000E+00 0.  1.
         21   -1    0    0  501  503 -0.00000000000E+00 -0.00000000000E+00 -0.43289058713E+02  0.43289058713E+02  0.00000000000E+00 0. -1.
          6    2    1    2  501    0 -0.94584891492E+02  0.17318025125E+02  0.10718605955E+04  0.10893774260E+04  0.16915030097E+03 0.  0.
         24    2    3    3    0    0 -0.50892758834E+02 -0.55183708709E+02  0.62369953939E+03  0.63326787105E+03  0.79948523845E+02 0.  0.
         -6    2    1    2    0  502  0.94584891492E+02 -0.17318025125E+02  0.24961430785E+03  0.31867559482E+03  0.17320686001E+03 0.  0.
        -24    2    5    5    0    0  0.33160992962E+02 -0.66447431861E+02  0.88653706425E+02  0.13946343248E+03  0.77946498842E+02 0.  0.
          5    1    3    3  501    0 -0.43692132657E+02  0.72501733835E+02  0.44816105615E+03  0.45610955494E+03  0.47000000000E+01 0. -1.
        -13    1    4    4    0    0 -0.56969702064E+02 -0.69222142437E+01  0.25528824117E+03  0.26165922510E+03  0.00000000000E+00 0.  1.
         14    1    4    4    0    0  0.60769432297E+01 -0.48261494466E+02  0.36841129822E+03  0.37160864595E+03  0.00000000000E+00 0. -1.
         -5    1    5    5    0  502  0.61423898529E+02  0.49129406736E+02  0.16096060143E+03  0.17921216233E+03  0.47000000000E+01 0.  1.
         13    1    6    6    0    0  0.55284593994E+02 -0.64333453156E+02  0.75989333014E+02  0.11388396841E+03  0.00000000000E+00 0. -1.
        -14    1    6    6    0    0 -0.22123601031E+02 -0.21139787058E+01  0.12664373411E+02  0.25579464077E+02  0.00000000000E+00 0.  1.
</event>
<event>
12    1  0.8562501E-002  0.1972440E+03  0.7818608E-02  0.1152465E+00
         21   -1    0    0  501  502  0.00000000000E+00  0.00000000000E+00  0.18884823821E+03  0.18884823821E+03  0.00000000000E+00 0.  1.
         21   -1    0    0  502  503 -0.00000000000E+00 -0.00000000000E+00 -0.26941646198E+03  0.26941646198E+03  0.00000000000E+00 0.  1.
         -6    2    1    2    0  503 -0.43219653710E+02 -0.88393410980E+02 -0.15317217524E+03  0.24973371088E+03  0.17094992690E+03 0.  0.
        -24    2    3    3    0    0 -0.63738743330E+02 -0.16744261890E+02 -0.14014912822E+03  0.17392920337E+03  0.79161808583E+02 0.  0.
          6    2    1    2  501    0  0.43219653710E+02  0.88393410980E+02  0.72603951474E+02  0.20853098931E+03  0.16891567766E+03 0.  0.
         24    2    5    5    0    0  0.51298550749E+02  0.72861447283E+02 -0.13575249098E+02  0.12046592765E+03  0.79921339624E+02 0.  0.
          5    1    5    5  501    0 -0.80788970384E+01  0.15531963697E+02  0.86179200573E+02  0.88065061659E+02  0.47000000000E+01 0. -1.
        -13    1    6    6    0    0 -0.17980609592E+02  0.31639959970E+02 -0.16138305426E+02  0.39809977270E+02  0.00000000000E+00 0.  1.
         14    1    6    6    0    0  0.69279160341E+02  0.41221487313E+02  0.25630563274E+01  0.80655950379E+02  0.00000000000E+00 0. -1.
         -5    1    3    3    0  503  0.20519089620E+02 -0.71649149090E+02 -0.13023047025E+02  0.75804507504E+02  0.47000000000E+01 0.  1.
         13    1    4    4    0    0 -0.32699354667E+02  0.30163876985E+02 -0.44219987816E+02  0.62725709186E+02  0.00000000000E+00 0. -1.
        -14    1    4    4    0    0 -0.31039388663E+02 -0.46908138874E+02 -0.95929140402E+02  0.11120349419E+03  0.00000000000E+00 0.  1.
</event>
<event>
12    1  0.8562501E-002  0.1763677E+03  0.7818608E-02  0.1171735E+00
         21   -1    0    0  501  502  0.00000000000E+00  0.00000000000E+00  0.18187369008E+03  0.18187369008E+03  0.00000000000E+00 0.  1.
         21   -1    0    0  502  503 -0.00000000000E+00 -0.00000000000E+00 -0.26125708757E+03  0.26125708757E+03  0.00000000000E+00 0.  1.
         -6    2    1    2    0  503 -0.63559959347E+01  0.35287113689E+02 -0.17103723014E+03  0.24568130636E+03  0.17268465804E+03 0.  0.
        -24    2    3    3    0    0  0.60188853937E+01  0.56346509599E+02 -0.27666076850E+02  0.10016837415E+03  0.77827599516E+02 0.  0.
          6    2    1    2  501    0  0.63559959347E+01 -0.35287113689E+02  0.91653832644E+02  0.19744947129E+03  0.17117327361E+03 0.  0.
         24    2    5    5    0    0 -0.45589221602E+02 -0.34046172811E+02  0.10640963331E+03  0.14323075485E+03  0.77165536767E+02 0.  0.
          5    1    5    5  501    0  0.51945217537E+02 -0.12409408786E+01 -0.14755800664E+02  0.54218716440E+02  0.47000000000E+01 0. -1.
        -11    1    6    6    0    0  0.17175346889E+02 -0.39680659536E+01  0.19874945802E+01  0.17739453850E+02  0.00000000000E+00 0.  1.
         12    1    6    6    0    0 -0.62764568491E+02 -0.30078106857E+02  0.10442213873E+03  0.12549130100E+03  0.00000000000E+00 0. -1.
         -5    1    3    3    0  503 -0.12374881328E+02 -0.21059395910E+02 -0.14337115329E+03  0.14551293221E+03  0.47000000000E+01 0.  1.
         13    1    4    4    0    0  0.40686661119E+02  0.18942528238E+02 -0.84473168593E+01  0.45668161023E+02  0.00000000000E+00 0. -1.
        -14    1    4    4    0    0 -0.34667775726E+02  0.37403981361E+02 -0.19218759991E+02  0.54500213128E+02  0.00000000000E+00 0.  1.
</event>
<event>
12    1  0.8562501E-002  0.2118135E+03  0.7818608E-02  0.1140309E+00
         21   -1    0    0  501  502  0.00000000000E+00  0.00000000000E+00  0.15764217564E+03  0.15764217564E+03  0.00000000000E+00 0.  1.
         21   -1    0    0  502  503 -0.00000000000E+00 -0.00000000000E+00 -0.14010264696E+04  0.14010264696E+04  0.00000000000E+00 0. -1.
         -6    2    1    2    0  503  0.12059362314E+03  0.24389768953E+02 -0.13174869177E+04  0.13342668552E+04  0.17134345564E+03 0.  0.
        -24    2    3    3    0    0  0.10434825024E+03 -0.89701099159E+01 -0.53687272224E+03  0.55275715863E+03  0.79618693403E+02 0.  0.
          6    2    1    2  501    0 -0.12059362314E+03 -0.24389768953E+02  0.74102623797E+02  0.22440178999E+03  0.17241601355E+03 0.  0.
         24    2    5    5    0    0 -0.11619854912E+03 -0.38307105799E+02 -0.26717126730E+01  0.14611132007E+03  0.79823822451E+02 0.  0.
          5    1    5    5  501    0 -0.43950740155E+01  0.13917336846E+02  0.76774336470E+02  0.78290469924E+02  0.47000000000E+01 0. -1.
        -11    1    6    6    0    0 -0.91225964014E+02 -0.18017606569E+02  0.32442003365E+02  0.98484994994E+02  0.00000000000E+00 0.  1.
         12    1    6    6    0    0 -0.24972585108E+02 -0.20289499230E+02 -0.35113716038E+02  0.47626325074E+02  0.00000000000E+00 0. -1.
         -5    1    3    3    0  503  0.16245372894E+02  0.33359878869E+02 -0.78061419550E+03  0.78150969660E+03  0.47000000000E+01 0.  1.
         13    1    4    4    0    0 -0.91020795053E-01  0.43403162415E+01 -0.19480717966E+03  0.19485554618E+03  0.00000000000E+00 0. -1.
        -14    1    4    4    0    0  0.10443927104E+03 -0.13310426157E+02 -0.34206554257E+03  0.35790161245E+03  0.00000000000E+00 0.  1.
</event>
<event>
12    1  0.8562501E-002  0.1781564E+03  0.7818608E-02  0.1170167E+00
         21   -1    0    0  503  502  0.00000000000E+00  0.00000000000E+00  0.57582341159E+03  0.57582341159E+03  0.00000000000E+00 0. -1.
         21   -1    0    0  501  503 -0.00000000000E+00 -0.00000000000E+00 -0.65094650626E+02  0.65094650626E+02  0.00000000000E+00 0. -1.
          6    2    1    2  501    0  0.21003602793E+02 -0.35030897808E+02  0.12693316334E+03  0.21875034497E+03  0.17341098678E+03 0.  0.
         24    2    3    3    0    0  0.17341152671E+02 -0.67087217757E+02  0.14646785533E+03  0.18074093323E+03  0.80081470627E+02 0.  0.
         -6    2    1    2    0  502 -0.21003602793E+02  0.35030897808E+02  0.38379559762E+03  0.42216771725E+03  0.17105030137E+03 0.  0.
        -24    2    5    5    0    0 -0.53953770808E+02 -0.95038661823E+01  0.33300909334E+03  0.34686554070E+03  0.80120622938E+02 0.  0.
          5    1    3    3  501    0  0.36624501220E+01  0.32056319949E+02 -0.19534691988E+02  0.38009411738E+02  0.47000000000E+01 0. -1.
        -13    1    4    4    0    0  0.20043302205E+02 -0.66125975663E+02  0.15609027768E+03  0.17070018573E+03  0.00000000000E+00 0.  1.
         14    1    4    4    0    0 -0.27021495339E+01 -0.96124209398E+00 -0.96224223531E+01  0.10040747502E+02  0.00000000000E+00 0. -1.
         -5    1    5    5    0  502  0.32950168015E+02  0.44534763990E+02  0.50786504284E+02  0.75302176550E+02  0.47000000000E+01 0.  1.
         11    1    6    6    0    0 -0.43215239118E+02  0.13011780375E+02  0.74132969477E+02  0.86790324830E+02  0.00000000000E+00 0. -1.
        -12    1    6    6    0    0 -0.10738531690E+02 -0.22515646557E+02  0.25887612386E+03  0.26007521587E+03  0.00000000000E+00 0.  1.
</event>
<event>
12    1  0.8562501E-002  0.1724601E+03  0.7818608E-02  0.1175486E+00
         21   -1    0    0  503  502  0.00000000000E+00  0.00000000000E+00  0.20149208558E+03  0.20149208558E+03  0.00000000000E+00 0.  1.
         21   -1    0    0  501  503 -0.00000000000E+00 -0.00000000000E+00 -0.16396153916E+03  0.16396153916E+03  0.00000000000E+00 0.  1.
          6    2    1    2  501    0 -0.19676588518E+00  0.10152252379E+02 -0.39951261269E+02  0.17702709058E+03  0.17216091478E+03 0.  0.
         24    2    3    3    0    0  0.26799215195E+02 -0.12678781641E+02 -0.83314448063E+02  0.12088000626E+03  0.82411948273E+02 0.  0.
         -6    2    1    2    0  502  0.19676588518E+00 -0.10152252379E+02  0.77481807691E+02  0.18842653416E+03  0.17145851192E+03 0.  0.
        -24    2    5    5    0    0 -0.96448341102E+01 -0.74870290086E+01  0.12002642611E+03  0.14442545392E+03  0.79393263858E+02 0.  0.
          5    1    3    3  501    0 -0.26995981081E+02  0.22831034020E+02  0.43363186794E+02  0.56147084322E+02  0.47000000000E+01 0. -1.
        -13    1    4    4    0    0 -0.29507618565E+02 -0.99000263411E+01 -0.32176359355E+02  0.44766373276E+02  0.00000000000E+00 0.  1.
         14    1    4    4    0    0  0.56306833761E+02 -0.27787552994E+01 -0.51138088708E+02  0.76113632983E+02  0.00000000000E+00 0. -1.
         -5    1    5    5    0  502  0.98415999953E+01 -0.26652233704E+01 -0.42544618422E+02  0.44001080245E+02  0.47000000000E+01 0.  1.
         11    1    6    6    0    0 -0.96029402641E+01 -0.43171436653E+02  0.73657120990E+02  0.85914846662E+02  0.00000000000E+00 0. -1.
        -12    1    6    6    0    0 -0.41893846063E-01  0.35684407645E+02  0.46369305122E+02  0.58510607257E+02  0.00000000000E+00 0.  1.
</event>
<event>
12    1  0.8562501E-002  0.3341157E+03  0.7818608E-02  0.1069365E+00
         21   -1    0    0  501  502  0.00000000000E+00  0.00000000000E+00  0.52614680471E+03  0.52614680471E+03  0.00000000000E+00 0.  1.
         21   -1    0    0  502  503 -0.00000000000E+00 -0.00000000000E+00 -0.21400744707E+03  0.21400744707E+03  0.00000000000E+00 0. -1.
         -6    2    1    2    0  503  0.27760264334E+03  0.70710144643E+02  0.12002448997E+03  0.35501999660E+03  0.17195978498E+03 0.  0.
        -24    2    3    3    0    0  0.22498154949E+03 -0.79064584390E+01  0.87216548468E+02  0.25478027980E+03  0.81406725489E+02 0.  0.
          6    2    1    2  501    0 -0.27760264334E+03 -0.70710144643E+02  0.19211486767E+03  0.38513425518E+03  0.17133919572E+03 0.  0.
         24    2    5    5    0    0 -0.23178307686E+03 -0.10666268139E+03  0.18665055947E+03  0.32644893986E+03  0.81425773939E+02 0.  0.
          5    1    5    5  501    0 -0.45819566473E+02  0.35952536748E+02  0.54643082015E+01  0.58685315322E+02  0.47000000000E+01 0. -1.
        -11    1    6    6    0    0 -0.20962846792E+03 -0.73698384392E+02  0.18045576491E+03  0.28625133976E+03  0.00000000000E+00 0.  1.
         12    1    6    6    0    0 -0.22154608950E+02 -0.32964296998E+02  0.61947945584E+01  0.40197600101E+02  0.00000000000E+00 0. -1.
         -5    1    3    3    0  503  0.52621093853E+02  0.78616603082E+02  0.32807941501E+02  0.10023971680E+03  0.47000000000E+01 0.  1.
         11    1    4    4    0    0  0.72319174411E+02  0.25452352747E+02  0.17871639652E+01  0.76688194678E+02  0.00000000000E+00 0. -1.
        -12    1    4    4    0    0  0.15266237507E+03 -0.33358811186E+02  0.85429384502E+02  0.17809208512E+03  0.00000000000E+00 0.  1.
</event>
<event>
12    1  0.8562501E-002  0.1798925E+03  0.7818608E-02  0.1172764E+00
         21   -1    0    0  503  502  0.00000000000E+00  0.00000000000E+00  0.29149538452E+03  0.29149538452E+03  0.00000000000E+00 0. -1.
         21   -1    0    0  501  503 -0.00000000000E+00 -0.00000000000E+00 -0.19368039726E+03  0.19368039726E+03  0.00000000000E+00 0. -1.
          6    2    1    2  501    0 -0.38068459379E+02 -0.36374585176E+02 -0.11858455493E+03  0.21546137483E+03  0.17201450326E+03 0.  0.
         24    2    3    3    0    0 -0.24335596474E+01 -0.28611126966E+02  0.49134279541E+01  0.86605024041E+02  0.81558381642E+02 0.  0.
         -6    2    1    2    0  502  0.38068459379E+02  0.36374585176E+02  0.21639954219E+03  0.26971440695E+03  0.15213409022E+03 0.  0.
        -24    2    5    5    0    0  0.31329307824E+02  0.34302366044E+02  0.23318125744E+03  0.25091477337E+03  0.80165745974E+02 0.  0.
          5    1    3    3  501    0 -0.35634899731E+02 -0.77634582097E+01 -0.12349798289E+03  0.12885635079E+03  0.47000000000E+01 0. -1.
        -13    1    4    4    0    0 -0.17329368953E+02  0.24555564021E+02  0.86211484458E+01  0.31266706786E+02  0.00000000000E+00 0.  1.
         14    1    4    4    0    0  0.14895809306E+02 -0.53166690987E+02 -0.37077204917E+01  0.55338317255E+02  0.00000000000E+00 0. -1.
         -5    1    5    5    0  502  0.67391515544E+01  0.20722191314E+01 -0.16781715252E+02  0.18799633576E+02  0.47000000000E+01 0.  1.
         11    1    6    6    0    0  0.36704641963E+02 -0.15839797681E+02  0.13104732582E+03  0.13700923887E+03  0.00000000000E+00 0. -1.
        -12    1    6    6    0    0 -0.53753341383E+01  0.50142163725E+02  0.10213393162E+03  0.11390553450E+03  0.00000000000E+00 0.  1.
</event>
<event>
12    1  0.8562501E-002  0.2141472E+03  0.7818608E-02  0.1139140E+00
         21   -1    0    0  503  502  0.00000000000E+00  0.00000000000E+00  0.64178177839E+02  0.64178177839E+02  0.00000000000E+00 0. -1.
         21   -1    0    0  501  503 -0.00000000000E+00 -0.00000000000E+00 -0.71778781449E+03  0.71778781449E+03  0.00000000000E+00 0. -1.
          6    2    1    2  501    0 -0.98912520618E+02  0.78026758802E+02 -0.26955419944E+03  0.34426513684E+03  0.17316799988E+03 0.  0.
         24    2    3    3    0    0 -0.10795972891E+03  0.10289481801E+03 -0.26804691849E+03  0.31734610561E+03  0.81343429971E+02 0.  0.
         -6    2    1    2    0  502  0.98912520618E+02 -0.78026758802E+02 -0.38405543721E+03  0.43770085549E+03  0.16796308589E+03 0.  0.
        -24    2    5    5    0    0  0.50493898124E+02  0.12289416787E+02 -0.25911534441E+03  0.27604229133E+03  0.79736574924E+02 0.  0.
          5    1    3    3  501    0  0.90472082897E+01 -0.24868059204E+02 -0.15072809546E+01  0.26919031228E+02  0.47000000000E+01 0. -1.
        -11    1    4    4    0    0 -0.18503537649E+02 -0.90050619922E+01 -0.69683083642E+02  0.72658132324E+02  0.00000000000E+00 0.  1.
         12    1    4    4    0    0 -0.89456191259E+02  0.11189988000E+03 -0.19836383484E+03  0.24468797329E+03  0.00000000000E+00 0. -1.
         -5    1    5    5    0  502  0.48418622495E+02 -0.90316175589E+02 -0.12494009280E+03  0.16165856416E+03  0.47000000000E+01 0.  1.
         11    1    6    6    0    0  0.49576449386E+02 -0.18340725152E+02 -0.91692946233E+02  0.10583857010E+03  0.00000000000E+00 0. -1.
        -12    1    6    6    0    0  0.91744873789E+00  0.30630141939E+02 -0.16742239818E+03  0.17020372122E+03  0.00000000000E+00 0.  1.
</event>
<event>
12    1  0.8562501E-002  0.1933034E+03  0.7818608E-02  0.1155689E+00
         21   -1    0    0  503  502  0.00000000000E+00  0.00000000000E+00  0.74892834902E+02  0.74892834902E+02  0.00000000000E+00 0. -1.
         21   -1    0    0  501  503 -0.00000000000E+00 -0.00000000000E+00 -0.54425437522E+03  0.54425437522E+03  0.00000000000E+00 0.  1.
          6    2    1    2  501    0 -0.68276081833E+02  0.54123223893E+02 -0.32643503082E+03  0.37937583453E+03  0.17255505720E+03 0.  0.
         24    2    3    3    0    0  0.20649756158E+02  0.30619443579E+02 -0.83057687702E+02  0.11915505616E+03  0.77041450975E+02 0.  0.
         -6    2    1    2    0  502  0.68276081833E+02 -0.54123223893E+02 -0.14292650950E+03  0.23977137559E+03  0.17167230039E+03 0.  0.
        -24    2    5    5    0    0  0.91840318069E+02 -0.75989550246E+02 -0.73182027590E+02  0.16283118964E+03  0.83362649836E+02 0.  0.
          5    1    3    3  501    0 -0.88925837991E+02  0.23503780314E+02 -0.24337734312E+03  0.26022077837E+03  0.47000000000E+01 0. -1.
        -13    1    4    4    0    0 -0.88882276977E+01  0.45036627747E+02 -0.70166351206E+02  0.83848764284E+02  0.00000000000E+00 0.  1.
         14    1    4    4    0    0  0.29537983856E+02 -0.14417184168E+02 -0.12891336497E+02  0.35306291879E+02  0.00000000000E+00 0. -1.
         -5    1    5    5    0  502 -0.23564236236E+02  0.21866326353E+02 -0.69744481912E+02  0.76940185955E+02  0.47000000000E+01 0.  1.
         11    1    6    6    0    0 -0.15045487071E+01 -0.45315955955E+02 -0.11352304452E+02  0.46740500075E+02  0.00000000000E+00 0. -1.
        -12    1    6    6    0    0  0.93344866776E+02 -0.30673594291E+02 -0.61829723138E+02  0.11609068956E+03  0.00000000000E+00 0.  1.
</event>
<event>
12    1  0.8562501E-002  0.2039275E+03  0.7818608E-02  0.1146987E+00
         21   -1    0    0  503  502  0.00000000000E+00  0.00000000000E+00  0.20074121150E+04  0.20074121150E+04  0.00000000000E+00 0.  1.
         21   -1    0    0  501  503 -0.00000000000E+00 -0.00000000000E+00 -0.71000753765E+02  0.71000753765E+02  0.00000000000E+00 0.  1.
          6    2    1    2  501    0 -0.10703219422E+03 -0.23139101226E+02  0.93176673000E+02  0.22420601018E+03  0.17203236325E+03 0.  0.
         24    2    3    3    0    0 -0.11051333168E+03 -0.50333785331E+02  0.12511140282E+03  0.18185525895E+03  0.51689318681E+02 0.  0.
         -6    2    1    2    0  502  0.10703219422E+03  0.23139101226E+02  0.18432346882E+04  0.18542068586E+04  0.16904925288E+03 0.  0.
        -24    2    5    5    0    0  0.26957622721E+02  0.44380100990E+02  0.50406039148E+03  0.51246433330E+03  0.76462460439E+02 0.  0.
          5    1    3    3  501    0  0.34811374634E+01  0.27194684105E+02 -0.31934729820E+02  0.42350751236E+02  0.47000000000E+01 0. -1.
        -11    1    4    4    0    0 -0.28712247628E+02  0.54447920771E+01  0.12159370524E+02  0.31652633637E+02  0.00000000000E+00 0.  1.
         12    1    4    4    0    0 -0.81801084054E+02 -0.55778577408E+02  0.11295203230E+03  0.15020262531E+03  0.00000000000E+00 0. -1.
         -5    1    5    5    0  502  0.80074571497E+02 -0.21240999763E+02  0.13391742968E+04  0.13417425253E+04  0.47000000000E+01 0.  1.
         11    1    6    6    0    0  0.33191192773E+02  0.55770642404E+02  0.48546639473E+03  0.48978530015E+03  0.00000000000E+00 0. -1.
        -12    1    6    6    0    0 -0.62335700512E+01 -0.11390541415E+02  0.18593996747E+02  0.22679033143E+02  0.00000000000E+00 0.  1.
</event>
<event>
12    1  0.8562501E-002  0.1800212E+03  0.7818608E-02  0.1168118E+00
         21   -1    0    0  503  502  0.00000000000E+00  0.00000000000E+00  0.26325960841E+02  0.26325960841E+02  0.00000000000E+00 0. -1.
         21   -1    0    0  501  503 -0.00000000000E+00 -0.00000000000E+00 -0.12930075062E+04  0.12930075062E+04  0.00000000000E+00 0. -1.
          6    2    1    2  501    0  0.48720204206E+02  0.17844446031E+02 -0.79066926325E+03  0.81090412601E+03  0.17238194561E+03 0.  0.
         24    2    3    3    0    0  0.17451105765E+02 -0.54235164264E+02 -0.35137915500E+03  0.36461821322E+03  0.78950216681E+02 0.  0.
         -6    2    1    2    0  502 -0.48720204206E+02 -0.17844446031E+02 -0.47601228214E+03  0.50842934106E+03  0.17094039767E+03 0.  0.
        -24    2    5    5    0    0  0.10651831728E+02 -0.56546909826E+02 -0.34210358462E+03  0.35684916879E+03  0.83638819509E+02 0.  0.
          5    1    3    3  501    0  0.31269098441E+02  0.72079610295E+02 -0.43929010826E+03  0.44628591278E+03  0.47000000000E+01 0. -1.
        -13    1    4    4    0    0 -0.21499666992E+02  0.84555450154E+01 -0.69633094849E+02  0.73365522015E+02  0.00000000000E+00 0.  1.
         14    1    4    4    0    0  0.38950772757E+02 -0.62690709279E+02 -0.28174606015E+03  0.29125269121E+03  0.00000000000E+00 0. -1.
         -5    1    5    5    0  502 -0.59372035933E+02  0.38702463794E+02 -0.13390869752E+03  0.15158017227E+03  0.47000000000E+01 0.  1.
         13    1    6    6    0    0  0.27060719165E+01 -0.54163328423E+02 -0.93364878276E+02  0.10797216987E+03  0.00000000000E+00 0. -1.
        -14    1    6    6    0    0  0.79457598110E+01 -0.23835814026E+01 -0.24873870634E+03  0.24887699892E+03  0.00000000000E+00 0.  1.
</event>
<event>
12    1  0.8562501E-002  0.2069675E+03  0.7818608E-02  0.1144172E+00
         21   -1    0    0  501  502  0.00000000000E+00  0.00000000000E+00  0.18428210280E+03  0.18428210280E+03  0.00000000000E+00 0. -1.
         21   -1    0    0  502  503 -0.00000000000E+00 -0.00000000000E+00 -0.23357770125E+03  0.23357770125E+03  0.00000000000E+00 0.  1.
         -6    2    1    2    0  503  0.11134245509E+03  0.26748784879E+02 -0.44703547732E+02  0.21174026625E+03  0.17240328702E+03 0.  0.
        -24    2    3    3    0    0  0.32064584967E+02  0.53826776680E+02  0.22129554626E+02  0.10446980479E+03  0.80614908229E+02 0.  0.
          6    2    1    2  501    0 -0.11134245509E+03 -0.26748784879E+02 -0.45920507228E+01  0.20611953780E+03  0.17132290312E+03 0.  0.
         24    2    5    5    0    0 -0.59700559853E+02  0.21651183287E+02 -0.57645463998E+02  0.11754077668E+03  0.80373528463E+02 0.  0.
          5    1    5    5  501    0 -0.51641895236E+02 -0.48399968165E+02  0.53053413275E+02  0.88578761123E+02  0.47000000000E+01 0. -1.
        -11    1    6    6    0    0 -0.36887292903E+02 -0.20932580759E+02 -0.10964919430E+00  0.42412938331E+02  0.00000000000E+00 0.  1.
         12    1    6    6    0    0 -0.22813266950E+02  0.42583764046E+02 -0.57535814803E+02  0.75127838345E+02  0.00000000000E+00 0. -1.
         -5    1    3    3    0  503  0.79277870122E+02 -0.27077991801E+02 -0.66833102358E+02  0.10727046146E+03  0.47000000000E+01 0.  1.
         13    1    4    4    0    0 -0.23897163581E+02  0.11567558772E+02  0.21785399258E+02  0.34343652456E+02  0.00000000000E+00 0. -1.
        -14    1    4    4    0    0  0.55961748548E+02  0.42259217907E+02  0.34415536816E+00  0.70126152338E+02  0.00000000000E+00 0.  1.
</event>
<event>
12    1  0.8562501E-002  0.1784296E+03  0.7818608E-02  0.1169518E+00
         21   -1    0    0  503  502  0.00000000000E+00  0.00000000000E+00  0.41288918966E+03  0.41288918966E+03  0.00000000000E+00 0. -1.
         21   -1    0    0  501  503 -0.00000000000E+00 -0.00000000000E+00 -0.76918609429E+02  0.76918609429E+02  0.00000000000E+00 0. -1.
          6    2    1    2  501    0  0.20562425806E+02  0.41327297816E+02  0.17875881195E+03  0.25257045895E+03  0.17235534510E+03 0.  0.
         24    2    3    3    0    0 -0.32832675019E+02 -0.14963617320E+01  0.15973084083E+03  0.18137315356E+03  0.79385487800E+02 0.  0.
         -6    2    1    2    0  502 -0.20562425806E+02 -0.41327297816E+02  0.15721176828E+03  0.23723734014E+03  0.17156706144E+03 0.  0.
        -24    2    5    5    0    0 -0.67962437495E+02 -0.16045939639E+01  0.13078518254E+03  0.16981991848E+03  0.84336072398E+02 0.  0.
          5    1    3    3  501    0  0.53395100825E+02  0.42823659548E+02  0.19027971116E+02  0.71197305384E+02  0.47000000000E+01 0. -1.
        -13    1    4    4    0    0 -0.33093168022E+02  0.15087243813E-02  0.16888338534E+03  0.17209519347E+03  0.00000000000E+00 0.  1.
         14    1    4    4    0    0  0.26049300320E+00 -0.14978704563E+01 -0.91525445076E+01  0.92779600922E+01  0.00000000000E+00 0. -1.
         -5    1    5    5    0  502  0.47400011689E+02 -0.39722703852E+02  0.26426585739E+02  0.67417421660E+02  0.47000000000E+01 0.  1.
         13    1    6    6    0    0 -0.19798794487E+02 -0.20173441244E+01 -0.90938386972E+01  0.21880581407E+02  0.00000000000E+00 0. -1.
        -14    1    6    6    0    0 -0.48163643008E+02  0.41275016050E+00  0.13987902124E+03  0.14793933707E+03  0.00000000000E+00 0.  1.
</event>
<event>
12    1  0.8562501E-002  0.2500138E+03  0.7818608E-02  0.1113898E+00
         21   -1    0    0  501  502  0.00000000000E+00  0.00000000000E+00  0.55142332734E+03  0.55142332734E+03  0.00000000000E+00 0.  1.
         21   -1    0    0  502  503 -0.00000000000E+00 -0.00000000000E+00 -0.11404758384E+03  0.11404758384E+03  0.00000000000E+00 0.  1.
         -6    2    1    2    0  503  0.42067978304E+02  0.17650862880E+03  0.17207224063E+03  0.30350576682E+03  0.17199384773E+03 0.  0.
        -24    2    3    3    0    0 -0.40694278267E+02  0.61586727530E+02  0.63934775981E+02  0.12525752485E+03  0.78440057754E+02 0.  0.
          6    2    1    2  501    0 -0.42067978304E+02 -0.17650862880E+03  0.26530350288E+03  0.36196514436E+03  0.16645661974E+03 0.  0.
         24    2    5    5    0    0 -0.26811918739E+02 -0.13582650619E+03  0.27332152714E+03  0.31753361089E+03  0.83397950050E+02 0.  0.
          5    1    5    5  501    0 -0.15256059565E+02 -0.40682122614E+02 -0.80180242677E+01  0.44431533476E+02  0.47000000000E+01 0. -1.
        -11    1    6    6    0    0 -0.18706984954E+02 -0.86955863120E+02  0.85816624607E+02  0.12359517173E+03  0.00000000000E+00 0.  1.
         12    1    6    6    0    0 -0.81049337851E+01 -0.48870643067E+02  0.18750490254E+03  0.19393843915E+03  0.00000000000E+00 0. -1.
         -5    1    3    3    0  503  0.82762256571E+02  0.11492190127E+03  0.10813746465E+03  0.17824824197E+03  0.47000000000E+01 0.  1.
         11    1    4    4    0    0 -0.19856999716E+02  0.12919409087E+02  0.68149379393E+02  0.72149493973E+02  0.00000000000E+00 0. -1.
        -12    1    4    4    0    0 -0.20837278551E+02  0.48667318443E+02 -0.42146034120E+01  0.53108030878E+02  0.00000000000E+00 0.  1.
</event>
<event>
12    1  0.8562501E-002  0.2127470E+03  0.7818608E-02  0.1139954E+00
         21   -1    0    0  501  502  0.00000000000E+00  0.00000000000E+00  0.13515550461E+03  0.13515550461E+03  0.00000000000E+00 0.  1.
         21   -1    0    0  502  503 -0.00000000000E+00 -0.00000000000E+00 -0.39328325693E+03  0.39328325693E+03  0.00000000000E+00 0. -1.
         -6    2    1    2    0  503  0.11863508737E+03  0.21675789740E+02 -0.23532535762E+03  0.31723698420E+03  0.17526310618E+03 0.  0.
        -24    2    3    3    0    0  0.66675579200E+02  0.13431730079E+01 -0.32430154307E+02  0.10675715305E+03  0.76798032814E+02 0.  0.
          6    2    1    2  501    0 -0.11863508737E+03 -0.21675789740E+02 -0.22802394700E+02  0.21120177734E+03  0.17187820610E+03 0.  0.
         24    2    5    5    0    0 -0.21569256704E+02  0.11823362185E+02  0.37963423877E+02  0.91792634600E+02  0.79872657939E+02 0.  0.
          5    1    5    5  501    0 -0.97065830667E+02 -0.33499151925E+02 -0.60765818577E+02  0.11940914274E+03  0.47000000000E+01 0. -1.
        -11    1    6    6    0    0 -0.44683192489E+02 -0.45750115201E+01  0.43933560116E+02  0.62830534981E+02  0.00000000000E+00 0.  1.
         12    1    6    6    0    0  0.23113935785E+02  0.16398373705E+02 -0.59701362392E+01  0.28962099619E+02  0.00000000000E+00 0. -1.
         -5    1    3    3    0  503  0.51959508171E+02  0.20332616732E+02 -0.20289520331E+03  0.21047983115E+03  0.47000000000E+01 0.  1.
         13    1    4    4    0    0 -0.13840227673E+02 -0.31723847895E+01  0.82639356401E+01  0.16428894045E+02  0.00000000000E+00 0. -1.
        -14    1    4    4    0    0  0.80515806873E+02  0.45155577974E+01 -0.40694089947E+02  0.90328259007E+02  0.00000000000E+00 0.  1.
</event>
<event>
12    1  0.8562501E-002  0.1905273E+03  0.7818608E-02  0.1158124E+00
         21   -1    0    0  503  502  0.00000000000E+00  0.00000000000E+00  0.62434171801E+03  0.62434171801E+03  0.00000000000E+00 0. -1.
         21   -1    0    0  501  503 -0.00000000000E+00 -0.00000000000E+00 -0.61253567902E+02  0.61253567902E+02  0.00000000000E+00 0. -1.
          6    2    1    2  501    0  0.67919786784E+02 -0.43598714696E+02  0.20157476903E+03  0.27694805650E+03  0.17191245775E+03 0.  0.
         24    2    3    3    0    0  0.23445548043E+02 -0.42636065192E+02  0.26693051287E+02  0.96436035277E+02  0.78866102572E+02 0.  0.
         -6    2    1    2    0  502 -0.67919786784E+02  0.43598714696E+02  0.36151338107E+03  0.40864722940E+03  0.17258820367E+03 0.  0.
        -24    2    5    5    0    0 -0.40797174325E+02 -0.27306208627E+02  0.28964352741E+03  0.30400254428E+03  0.78192937666E+02 0.  0.
          5    1    3    3  501    0  0.44474238740E+02 -0.96264950410E+00  0.17488171775E+03  0.18051202123E+03  0.47000000000E+01 0. -1.
        -11    1    4    4    0    0 -0.14664949889E+01  0.21137037532E+02  0.17249573191E+02  0.27321653289E+02  0.00000000000E+00 0.  1.
         12    1    4    4    0    0  0.24912043032E+02 -0.63773102724E+02  0.94434780967E+01  0.69114381988E+02  0.00000000000E+00 0. -1.
         -5    1    5    5    0  502 -0.27122612459E+02  0.70904923323E+02  0.71869853665E+02  0.10464468512E+03  0.47000000000E+01 0.  1.
         13    1    6    6    0    0 -0.18931297028E+02  0.27377389867E+02  0.11297965290E+03  0.11778080256E+03  0.00000000000E+00 0. -1.
        -14    1    6    6    0    0 -0.21865877297E+02 -0.54683598494E+02  0.17666387451E+03  0.18622174172E+03  0.00000000000E+00 0.  1.
</event>
<event>
12    1  0.8562501E-002  0.2428797E+03  0.7818608E-02  0.1118184E+00
         21   -1    0    0  503  502  0.00000000000E+00  0.00000000000E+00  0.10259291211E+04  0.10259291211E+04  0.00000000000E+00 0. -1.
         21   -1    0    0  501  503 -0.00000000000E+00 -0.00000000000E+00 -0.59203489084E+02  0.59203489084E+02  0.00000000000E+00 0. -1.
          6    2    1    2  501    0  0.16062867836E+03 -0.56736807036E+02  0.37881269403E+03  0.44902554844E+03  0.17059967296E+03 0.  0.
         24    2    3    3    0    0  0.15254657082E+03 -0.95359934653E+02  0.26407592947E+03  0.32760198570E+03  0.72270264285E+02 0.  0.
         -6    2    1    2    0  502 -0.16062867836E+03  0.56736807036E+02  0.58791293797E+03  0.63610706172E+03  0.17311826524E+03 0.  0.
        -24    2    5    5    0    0 -0.30166140080E+02 -0.16428131132E+02  0.29993554428E+03  0.31156638423E+03  0.77022084887E+02 0.  0.
          5    1    3    3  501    0  0.80821075364E+01  0.38623127617E+02  0.11473676456E+03  0.12142356275E+03  0.47000000000E+01 0. -1.
        -13    1    4    4    0    0  0.69442615350E+02 -0.78049693533E+02  0.18003153863E+03  0.20814751113E+03  0.00000000000E+00 0.  1.
         14    1    4    4    0    0  0.83103955470E+02 -0.17310241120E+02  0.84044390841E+02  0.11945447457E+03  0.00000000000E+00 0. -1.
         -5    1    5    5    0  502 -0.13046253828E+03  0.73164938168E+02  0.28797739368E+03  0.32454067749E+03  0.47000000000E+01 0.  1.
         13    1    6    6    0    0 -0.29931674940E+02  0.27355348774E+02  0.14506158567E+03  0.15062232208E+03  0.00000000000E+00 0. -1.
        -14    1    6    6    0    0 -0.23446513983E+00 -0.43783479906E+02  0.15487395861E+03  0.16094406215E+03  0.00000000000E+00 0.  1.
</event>
<event>
12    1  0.8562501E-002  0.1779630E+03  0.7818608E-02  0.1170036E+00
         21   -1    0    0  503  502  0.00000000000E+00  0.00000000000E+00  0.44982798505E+02  0.44982798505E+02  0.00000000000E+00 0.  1.
         21   -1    0    0  501  503 -0.00000000000E+00 -0.00000000000E+00 -0.17298815516E+04  0.17298815516E+04  0.00000000000E+00 0.  1.
          6    2    1    2  501    0 -0.37931901256E+02 -0.62757824327E+01 -0.15281083261E+04  0.15384361846E+04  0.17376024654E+03 0.  0.
         24    2    3    3    0    0 -0.26474864694E+02 -0.72021599070E+02 -0.71375497592E+03  0.72133934517E+03  0.70684199415E+02 0.  0.
         -6    2    1    2    0  502  0.37931901256E+02  0.62757824327E+01 -0.15679042705E+03  0.23642816554E+03  0.17273339245E+03 0.  0.
        -24    2    5    5    0    0 -0.25734631312E+02  0.34437358590E+02 -0.13727523681E+03  0.16397518499E+03  0.78709387851E+02 0.  0.
          5    1    3    3  501    0 -0.11457036562E+02  0.65745816637E+02 -0.81435335013E+03  0.81709683940E+03  0.47000000000E+01 0. -1.
        -13    1    4    4    0    0 -0.33206364486E+01 -0.32161661193E+02 -0.55724048675E+03  0.55817771287E+03  0.00000000000E+00 0.  1.
         14    1    4    4    0    0 -0.23154228245E+02 -0.39859937876E+02 -0.15651448918E+03  0.16316163230E+03  0.00000000000E+00 0. -1.
         -5    1    5    5    0  502  0.63666532567E+02 -0.28161576157E+02 -0.19515190247E+02  0.72452980554E+02  0.47000000000E+01 0.  1.
         13    1    6    6    0    0  0.13717460749E+02  0.10476770995E+02 -0.10787911733E+03  0.10925124904E+03  0.00000000000E+00 0. -1.
        -14    1    6    6    0    0 -0.39452092060E+02  0.23960587595E+02 -0.29396119478E+02  0.54723935953E+02  0.00000000000E+00 0.  1.
</event>
<event>
12    1  0.8562501E-002  0.1989467E+03  0.7818608E-02  0.1150734E+00
         21   -1    0    0  501  502  0.00000000000E+00  0.00000000000E+00  0.19173229739E+03  0.19173229739E+03  0.00000000000E+00 0. -1.
         21   -1    0    0  502  503 -0.00000000000E+00 -0.00000000000E+00 -0.21761100907E+03  0.21761100907E+03  0.00000000000E+00 0. -1.
         -6    2    1    2    0  503 -0.97549294605E+02  0.13238586439E+02  0.34470604413E+02  0.20191092954E+03  0.17288341694E+03 0.  0.
        -24    2    3    3    0    0 -0.81947802067E+02 -0.54291153848E+02  0.71811446546E+00  0.12467756259E+03  0.76687725722E+02 0.  0.
          6    2    1    2  501    0  0.97549294605E+02 -0.13238586439E+02 -0.60349316089E+02  0.20743237692E+03  0.17232244773E+03 0.  0.
         24    2    5    5    0    0  0.16118363334E+02 -0.41264857073E+02 -0.77606921258E+02  0.11947566398E+03  0.79303278568E+02 0.  0.
          5    1    5    5  501    0  0.81430931271E+02  0.28026270634E+02  0.17257605169E+02  0.87956712931E+02  0.47000000000E+01 0. -1.
        -11    1    6    6    0    0  0.17828604625E+02  0.21439948550E+02 -0.27844994685E+02  0.39406525674E+02  0.00000000000E+00 0.  1.
         12    1    6    6    0    0 -0.17102412909E+01 -0.62704805623E+02 -0.49761926573E+02  0.80069138310E+02  0.00000000000E+00 0. -1.
         -5    1    3    3    0  503 -0.15601492538E+02  0.67529740287E+02  0.33752489948E+02  0.77233366949E+02  0.47000000000E+01 0.  1.
         11    1    4    4    0    0 -0.31765812504E+02 -0.11239705324E+02  0.36353082999E+02  0.49567574718E+02  0.00000000000E+00 0. -1.
        -12    1    4    4    0    0 -0.50181989563E+02 -0.43051448524E+02 -0.35634968534E+02  0.75109987877E+02  0.00000000000E+00 0.  1.
</event>
<event>
12    1  0.8562501E-002  0.2388941E+03  0.7818608E-02  0.1121706E+00
         21   -1    0    0  503  502  0.00000000000E+00  0.00000000000E+00  0.82165642881E+03  0.82165642881E+03  0.00000000000E+00 0.  1.
         21   -1    0    0  501  503 -0.00000000000E+00 -0.00000000000E+00 -0.89383907436E+02  0.89383907436E+02  0.00000000000E+00 0. -1.
          6    2    1    2  501    0  0.10111881099E+03  0.11829684706E+03  0.13653888464E+03  0.26919224148E+03  0.17205359019E+03 0.  0.
         24    2    3    3    0    0  0.18064961080E+02  0.10749278972E+03  0.12467062832E+03  0.18447143443E+03  0.81276699582E+02 0.  0.
         -6    2    1    2    0  502 -0.10111881099E+03 -0.11829684706E+03  0.59573363673E+03  0.64184809476E+03  0.18124914580E+03 0.  0.
        -24    2    5    5    0    0 -0.76045755270E+02 -0.60863233781E+02  0.54979723098E+03  0.56400516682E+03  0.79608685987E+02 0.  0.
          5    1    3    3  501    0  0.83053849906E+02  0.10804057339E+02  0.11868256321E+02  0.84720807050E+02  0.47000000000E+01 0. -1.
        -11    1    4    4    0    0 -0.27332879772E+02  0.11286811370E+02  0.25964851639E+02  0.39352915370E+02  0.00000000000E+00 0.  1.
         12    1    4    4    0    0  0.45397840852E+02  0.96205978352E+02  0.98705776679E+02  0.14511851906E+03  0.00000000000E+00 0. -1.
         -5    1    5    5    0  502 -0.25073055716E+02 -0.57433613280E+02  0.45936405754E+02  0.77842927944E+02  0.47000000000E+01 0.  1.
         13    1    6    6    0    0 -0.76147099764E+02 -0.38223343184E+02  0.26613662613E+03  0.27944249594E+03  0.00000000000E+00 0. -1.
        -14    1    6    6    0    0  0.10134449378E+00 -0.22639890597E+02  0.28366060484E+03  0.28456267088E+03  0.00000000000E+00 0.  1.
</event>
<event>
12    1  0.8562501E-002  0.2272530E+03  0.7818608E-02  0.1128786E+00
         21   -1    0    0  501  502  0.00000000000E+00  0.00000000000E+00  0.61023729118E+03  0.61023729118E+03  0.00000000000E+00 0.  1.
         21   -1    0    0  502  503 -0.00000000000E+00 -0.00000000000E+00 -0.90512778547E+02  0.90512778547E+02  0.00000000000E+00 0.  1.
         -6    2    1    2    0  503  0.12706817970E+03 -0.76970478327E+02  0.16687371613E+03  0.28105062345E+03  0.17050465969E+03 0.  0.
        -24    2    3    3    0    0  0.15054992226E+03 -0.35367348541E+02  0.10858552906E+03  0.20554025732E+03  0.80869350318E+02 0.  0.
          6    2    1    2  501    0 -0.12706817970E+03  0.76970478327E+02  0.35285079650E+03  0.41969944628E+03  0.17196849650E+03 0.  0.
         24    2    5    5    0    0 -0.13705875095E+03  0.13064234933E+02  0.21610391591E+03  0.26835342285E+03  0.79730054778E+02 0.  0.
          5    1    5    5  501    0  0.99905712454E+01  0.63906243394E+02  0.13674688058E+03  0.15134602343E+03  0.47000000000E+01 0. -1.
        -11    1    6    6    0    0 -0.54964580783E+02  0.38697257928E+02  0.59890497082E+02  0.90030297970E+02  0.00000000000E+00 0.  1.
         12    1    6    6    0    0 -0.82094170165E+02 -0.25633022996E+02  0.15621341883E+03  0.17832312488E+03  0.00000000000E+00 0. -1.
         -5    1    3    3    0  503 -0.23481742555E+02 -0.41603129786E+02  0.58288187073E+02  0.75510366133E+02  0.47000000000E+01 0.  1.
         11    1    4    4    0    0  0.42856259513E+02  0.10700993681E+02  0.68944183410E+02  0.81880832136E+02  0.00000000000E+00 0. -1.
        -12    1    4    4    0    0  0.10769366274E+03 -0.46068342222E+02  0.39641345651E+02  0.12365942518E+03  0.00000000000E+00 0.  1.
</event>
<event>
12    1  0.8562501E-002  0.2041614E+03  0.7818608E-02  0.1146308E+00
         21   -1    0    0  501  502  0.00000000000E+00  0.00000000000E+00  0.75639688676E+03  0.75639688676E+03  0.00000000000E+00 0. -1.
         21   -1    0    0  502  503 -0.00000000000E+00 -0.00000000000E+00 -0.62246743144E+02  0.62246743144E+02  0.00000000000E+00 0. -1.
         -6    2    1    2    0  503  0.70324663373E+02 -0.83926256624E+02  0.48626593155E+03  0.52738642675E+03  0.17231573377E+03 0.  0.
        -24    2    3    3    0    0 -0.23777621177E+02 -0.26919893579E+02  0.15349720833E+03  0.17686955335E+03  0.80195947511E+02 0.  0.
          6    2    1    2  501    0 -0.70324663373E+02  0.83926256624E+02  0.20788421207E+03  0.29125720316E+03  0.17212128844E+03 0.  0.
         24    2    5    5    0    0 -0.72536675743E+02  0.66818680494E+02  0.23025532542E+03  0.26261948550E+03  0.78899771158E+02 0.  0.
          5    1    5    5  501    0  0.22120123698E+01  0.17107576131E+02 -0.22371113355E+02  0.28637717656E+02  0.47000000000E+01 0. -1.
        -11    1    6    6    0    0  0.85311749264E+01 -0.67794414985E+01  0.46495110817E+01  0.11847351010E+02  0.00000000000E+00 0.  1.
         12    1    6    6    0    0 -0.81067850670E+02  0.73598121992E+02  0.22560581434E+03  0.25077213449E+03  0.00000000000E+00 0. -1.
         -5    1    3    3    0  503  0.94102284551E+02 -0.57006363046E+02  0.33276872323E+03  0.35051687341E+03  0.47000000000E+01 0.  1.
         11    1    4    4    0    0 -0.79716784915E-01 -0.52756877638E+02  0.89112021895E+02  0.10355794001E+03  0.00000000000E+00 0. -1.
        -12    1    4    4    0    0 -0.23697904392E+02  0.25836984060E+02  0.64385186433E+02  0.73311613335E+02  0.00000000000E+00 0.  1.
</event>
<event>
12    1  0.8562501E-002  0.1753002E+03  0.7818608E-02  0.1172435E+00
         21   -1    0    0  501  502  0.00000000000E+00  0.00000000000E+00  0.68136442900E+02  0.68136442900E+02  0.00000000000E+00 0.  1.
         21   -1    0    0  502  503 -0.00000000000E+00 -0.00000000000E+00 -0.45147399237E+03  0.45147399237E+03  0.00000000000E+00 0.  1.
         -6    2    1    2    0  503 -0.33228395791E+02 -0.80045160950E+01 -0.18296525905E+03  0.25338991003E+03  0.17193592389E+03 0.  0.
        -24    2    3    3    0    0 -0.70077574721E+02  0.13829747540E+02 -0.18070748185E+03  0.21024150781E+03  0.80275582933E+02 0.  0.
          6    2    1    2  501    0  0.33228395791E+02  0.80045160950E+01 -0.20037229041E+03  0.26622052523E+03  0.17191891904E+03 0.  0.
         24    2    5    5    0    0 -0.41368221019E+02  0.16523231660E+02 -0.91701627315E+02  0.13405159252E+03  0.87041910085E+02 0.  0.
          5    1    5    5  501    0  0.74596616810E+02 -0.85187155647E+01 -0.10867066310E+03  0.13216893271E+03  0.47000000000E+01 0. -1.
        -13    1    6    6    0    0  0.20702606380E+02  0.14161487386E+02 -0.58429977550E+02  0.63586224234E+02  0.00000000000E+00 0.  1.
         14    1    6    6    0    0 -0.62070827400E+02  0.23617442738E+01 -0.33271649765E+02  0.70465368289E+02  0.00000000000E+00 0. -1.
         -5    1    3    3    0  503  0.36849178930E+02 -0.21834263634E+02 -0.22577772014E+01  0.43148402221E+02  0.47000000000E+01 0.  1.
         13    1    4    4    0    0  0.10555926374E+02  0.65852399772E+01 -0.80314897181E+02  0.81272847104E+02  0.00000000000E+00 0. -1.
        -14    1    4    4    0    0 -0.80633501095E+02  0.72445075623E+01 -0.10039258467E+03  0.12896866071E+03  0.00000000000E+00 0.  1.
</event>
<event>
12    1  0.8562501E-002  0.2361487E+03  0.7818608E-02  0.1122640E+00
         21   -1    0    0  501  502  0.00000000000E+00  0.00000000000E+00  0.54679275140E+03  0.54679275140E+03  0.00000000000E+00 0. -1.
         21   -1    0    0  502  503 -0.00000000000E+00 -0.00000000000E+00 -0.15951407226E+03  0.15951407226E+03  0.00000000000E+00 0.  1.
         -6    2    1    2    0  503  0.89347558395E+02  0.13448364649E+03 -0.20011670441E+02  0.23550789113E+03  0.17027819140E+03 0.  0.
        -24    2    3    3    0    0 -0.50337357252E+01  0.18917256336E+02  0.14956290547E+02  0.82183830692E+02  0.78404657500E+02 0.  0.
          6    2    1    2  501    0 -0.89347558395E+02 -0.13448364649E+03  0.40729034958E+03  0.47079893253E+03  0.17232924488E+03 0.  0.
         24    2    5    5    0    0 -0.10769185761E+03 -0.40124542112E+02  0.18321784073E+03  0.22693271281E+03  0.68718002796E+02 0.  0.
          5    1    5    5  501    0  0.18344299217E+02 -0.94359104380E+02  0.22407250885E+03  0.24386621971E+03  0.47000000000E+01 0. -1.
        -13    1    6    6    0    0 -0.48998262309E+02  0.15886971720E+02  0.86686859458E+02  0.10083569399E+03  0.00000000000E+00 0.  1.
         14    1    6    6    0    0 -0.58693595303E+02 -0.56011513832E+02  0.96530981270E+02  0.12609701882E+03  0.00000000000E+00 0. -1.
         -5    1    3    3    0  503  0.94381294120E+02  0.11556639016E+03 -0.34967960988E+02  0.15332406044E+03  0.47000000000E+01 0.  1.
         13    1    4    4    0    0  0.20365159020E+02 -0.22203675621E+02 -0.37424256804E+01  0.30360313947E+02  0.00000000000E+00 0. -1.
        -14    1    4    4    0    0 -0.25398894745E+02  0.41120931957E+02  0.18698716227E+02  0.51823516745E+02  0.00000000000E+00 0.  1.
</event>
<event>
12    1  0.8562501E-002  0.1924361E+03  0.7818608E-02  0.1156401E+00
         21   -1    0    0  503  502  0.00000000000E+00  0.00000000000E+00  0.16968597884E+03  0.16968597884E+03  0.00000000000E+00 0.  1.
         21   -1    0    0  501  503 -0.00000000000E+00 -0.00000000000E+00 -0.45699436220E+03  0.45699436220E+03  0.00000000000E+00 0.  1.
          6    2    1    2  501    0 -0.78134018796E+02 -0.34687385824E+02 -0.37052150764E+03  0.41751389433E+03  0.17240511799E+03 0.  0.
         24    2    3    3    0    0  0.18276550377E+02 -0.12327444011E+02 -0.24184680200E+03  0.25511243277E+03  0.78143966800E+02 0.  0.
         -6    2    1    2    0  502  0.78134018796E+02  0.34687385824E+02  0.83213124277E+02  0.20916644670E+03  0.17180814517E+03 0.  0.
        -24    2    5    5    0    0  0.84755162428E+02  0.71105423942E+02  0.23166760849E+02  0.13847154728E+03  0.79989072539E+02 0.  0.
          5    1    3    3  501    0 -0.96410569173E+02 -0.22359941813E+02 -0.12867470564E+03  0.16240146156E+03  0.47000000000E+01 0. -1.
        -11    1    4    4    0    0 -0.26481119164E+00  0.26593568208E+02 -0.16384556915E+03  0.16598993501E+03  0.00000000000E+00 0.  1.
         12    1    4    4    0    0  0.18541361569E+02 -0.38921012218E+02 -0.78001232855E+02  0.89122497765E+02  0.00000000000E+00 0. -1.
         -5    1    5    5    0  502 -0.66211436326E+01 -0.36418038118E+02  0.60046363428E+02  0.70694899422E+02  0.47000000000E+01 0.  1.
         11    1    6    6    0    0  0.17076881419E+02 -0.16520412480E+02 -0.48791283294E+01  0.24255923003E+02  0.00000000000E+00 0. -1.
        -12    1    6    6    0    0  0.67678281010E+02  0.87625836422E+02  0.28045889178E+02  0.11421562428E+03  0.00000000000E+00 0.  1.
</event>
<event>
12    1  0.8562501E-002  0.1905561E+03  0.7818608E-02  0.1159442E+00
         21   -1    0    0  503  502  0.00000000000E+00  0.00000000000E+00  0.58897383152E+03  0.58897383152E+03  0.00000000000E+00 0.  1.
         21   -1    0    0  501  503 -0.00000000000E+00 -0.00000000000E+00 -0.70849347701E+02  0.70849347701E+02  0.00000000000E+00 0.  1.
          6    2    1    2  501    0  0.44989141275E+02 -0.47281705084E+02  0.12371248372E+03  0.22179071258E+03  0.17212425480E+03 0.  0.
         24    2    3    3    0    0  0.33872957935E+02 -0.96916788726E+02  0.99322397209E+02  0.16518525896E+03  0.82951732788E+02 0.  0.
         -6    2    1    2    0  502 -0.44989141275E+02  0.47281705084E+02  0.39441200009E+03  0.43803246664E+03  0.17903081729E+03 0.  0.
        -24    2    5    5    0    0 -0.32221338910E+02  0.67982740948E+01  0.37896024515E+03  0.39261472019E+03  0.97216356071E+02 0.  0.
          5    1    3    3  501    0  0.11116183340E+02  0.49635083642E+02  0.24390086512E+02  0.56605453626E+02  0.47000000000E+01 0. -1.
        -13    1    4    4    0    0 -0.12273463326E+02 -0.47694173309E+02  0.54042854415E+01  0.49543701625E+02  0.00000000000E+00 0.  1.
         14    1    4    4    0    0  0.46146421261E+02 -0.49222615417E+02  0.93918111767E+02  0.11564155733E+03  0.00000000000E+00 0. -1.
         -5    1    5    5    0  502 -0.12767802365E+02  0.40483430989E+02  0.15451754941E+02  0.45417746451E+02  0.47000000000E+01 0.  1.
         13    1    6    6    0    0 -0.24796537106E+02 -0.25938875132E+02  0.47867781702E+02  0.59824894656E+02  0.00000000000E+00 0. -1.
        -14    1    6    6    0    0 -0.74248018041E+01  0.32737149227E+02  0.33109246345E+03  0.33278982553E+03  0.00000000000E+00 0.  1.
</event>
<event>
12    1  0.8562501E-002  0.1939764E+03  0.7818608E-02  0.1155495E+00
         21   -1    0    0  501  502  0.00000000000E+00  0.00000000000E+00  0.62434514107E+03  0.62434514107E+03  0.00000000000E+00 0.  1.
         21   -1    0    0  502  503 -0.00000000000E+00 -0.00000000000E+00 -0.91304744013E+02  0.91304744013E+02  0.00000000000E+00 0. -1.
         -6    2    1    2    0  503 -0.79759000090E+02 -0.28568118873E+01  0.56384113929E+02  0.20200494228E+03  0.17679697093E+03 0.  0.
        -24    2    3    3    0    0 -0.12223837839E+02  0.59757743159E+02  0.41527837957E+02  0.10860055491E+03  0.79681297191E+02 0.  0.
          6    2    1    2  501    0  0.79759000090E+02  0.28568118873E+01  0.47665628313E+03  0.51364494281E+03  0.17395475146E+03 0.  0.
         24    2    5    5    0    0 -0.36567622325E+01 -0.36167953772E+01  0.10109230553E+03  0.12884565972E+03  0.79718860207E+02 0.  0.
          5    1    5    5  501    0  0.83415762322E+02  0.64736072644E+01  0.37556397760E+03  0.38479928309E+03  0.47000000000E+01 0. -1.
        -11    1    6    6    0    0 -0.23350130490E+02  0.23329564086E+02  0.86189944660E+02  0.92294115278E+02  0.00000000000E+00 0.  1.
         12    1    6    6    0    0  0.19693368258E+02 -0.26946359463E+02  0.14902360869E+02  0.36551544442E+02  0.00000000000E+00 0. -1.
         -5    1    3    3    0  503 -0.67535162251E+02 -0.62614555046E+02  0.14856275972E+02  0.93404387368E+02  0.47000000000E+01 0.  1.
         13    1    4    4    0    0 -0.40643674477E+02  0.17136901963E+02  0.24622916437E+01  0.44177421428E+02  0.00000000000E+00 0. -1.
        -14    1    4    4    0    0  0.28419836637E+02  0.42620841195E+02  0.39065546313E+02  0.64423133481E+02  0.00000000000E+00 0.  1.
</event>
<event>
12    1  0.8562501E-002  0.1748886E+03  0.7818608E-02  0.1173202E+00
         21   -1    0    0  503  502  0.00000000000E+00  0.00000000000E+00  0.18832516854E+03  0.18832516854E+03  0.00000000000E+00 0. -1.
         21   -1    0    0  501  503 -0.00000000000E+00 -0.00000000000E+00 -0.16213227518E+03  0.16213227518E+03  0.00000000000E+00 0. -1.
          6    2    1    2  501    0  0.13872263645E+02 -0.17507484933E+02  0.27072173344E+02  0.17556665866E+03  0.17202266518E+03 0.  0.
         24    2    3    3    0    0 -0.57606060402E+02 -0.15797061801E+02  0.17204169480E+01  0.99560883168E+02  0.79632934556E+02 0.  0.
         -6    2    1    2    0  502 -0.13872263645E+02  0.17507484933E+02 -0.87927997619E+00  0.17489078506E+03  0.17345622456E+03 0.  0.
        -24    2    5    5    0    0  0.13399281571E+02 -0.48142793042E+02  0.23304137283E+02  0.99653667576E+02  0.83009043955E+02 0.  0.
          5    1    3    3  501    0  0.71478324048E+02 -0.17104231322E+01  0.25351756396E+02  0.76005775493E+02  0.47000000000E+01 0. -1.
        -11    1    4    4    0    0  0.16241233511E+02 -0.79364598821E+01 -0.14939005562E+02  0.23450777142E+02  0.00000000000E+00 0.  1.
         12    1    4    4    0    0 -0.73847293913E+02 -0.78606019189E+01  0.16659422510E+02  0.76110106025E+02  0.00000000000E+00 0. -1.
         -5    1    5    5    0  502 -0.27271545216E+02  0.65650277976E+02 -0.24183417259E+02  0.75237117482E+02  0.47000000000E+01 0.  1.
         13    1    6    6    0    0  0.34238650104E+02 -0.59053283262E+01 -0.16055029923E+02  0.38274300117E+02  0.00000000000E+00 0. -1.
        -14    1    6    6    0    0 -0.20839368534E+02 -0.42237464716E+02  0.39359167206E+02  0.61379367459E+02  0.00000000000E+00 0.  1.
</event>
<event>
12    1  0.8562501E-002  0.1778438E+03  0.7818608E-02  0.1170450E+00
         21   -1    0    0  501  502  0.00000000000E+00  0.00000000000E+00  0.47800653704E+02  0.47800653704E+02  0.00000000000E+00 0. -1.
         21   -1    0    0  502  503 -0.00000000000E+00 -0.00000000000E+00 -0.84372533986E+03  0.84372533986E+03  0.00000000000E+00 0. -1.
         -6    2    1    2    0  503 -0.37891940578E+02 -0.85936621739E+01 -0.60768987097E+03  0.63256508551E+03  0.17129494427E+03 0.  0.
        -24    2    3    3    0    0 -0.58315295814E+02  0.46068609866E+02 -0.29585542720E+03  0.31528305364E+03  0.79686759051E+02 0.  0.
          6    2    1    2  501    0  0.37891940578E+02  0.85936621739E+01 -0.18823481518E+03  0.25896090806E+03  0.17354756139E+03 0.  0.
         24    2    5    5    0    0 -0.37994888292E+02 -0.19653504836E+01 -0.13216703542E+03  0.16390308633E+03  0.89155046500E+02 0.  0.
          5    1    5    5  501    0  0.75886828871E+02  0.10559012657E+02 -0.56067779763E+02  0.95057821729E+02  0.47000000000E+01 0. -1.
        -11    1    6    6    0    0  0.23069257252E+02 -0.18983478349E+02 -0.23149838195E+02  0.37795212512E+02  0.00000000000E+00 0.  1.
         12    1    6    6    0    0 -0.61064145544E+02  0.17018127865E+02 -0.10901719723E+03  0.12610787381E+03  0.00000000000E+00 0. -1.
         -5    1    3    3    0  503  0.20423355236E+02 -0.54662272039E+02 -0.31183444377E+03  0.31728203187E+03  0.47000000000E+01 0.  1.
         11    1    4    4    0    0 -0.11089702826E+02 -0.14435543076E+02 -0.13449955513E+02  0.22633331968E+02  0.00000000000E+00 0. -1.
        -12    1    4    4    0    0 -0.47225592988E+02  0.60504152941E+02 -0.28240547169E+03  0.29264972167E+03  0.00000000000E+00 0.  1.
</event>
<event>
12    1  0.8562501E-002  0.2326618E+03  0.7818608E-02  0.1124793E+00
         21   -1    0    0  501  502  0.00000000000E+00  0.00000000000E+00  0.67116151473E+02  0.67116151473E+02  0.00000000000E+00 0.  1.
         21   -1    0    0  502  503 -0.00000000000E+00 -0.00000000000E+00 -0.82574972617E+03  0.82574972617E+03  0.00000000000E+00 0.  1.
         -6    2    1    2    0  503  0.10191750732E+03  0.12045464408E+03 -0.44780561126E+03  0.50460623138E+03  0.17088324578E+03 0.  0.
        -24    2    3    3    0    0  0.76411082253E+02  0.83493509490E+01 -0.25590576210E+03  0.28085231169E+03  0.86497958084E+02 0.  0.
          6    2    1    2  501    0 -0.10191750732E+03 -0.12045464408E+03 -0.31082796344E+03  0.38825964627E+03  0.17098254439E+03 0.  0.
         24    2    5    5    0    0  0.16092503528E+02 -0.38793867573E+02 -0.13360158708E+03  0.16016728875E+03  0.77719003365E+02 0.  0.
          5    1    5    5  501    0 -0.11801001085E+03 -0.81660776511E+02 -0.17722637637E+03  0.22809235752E+03  0.47000000000E+01 0. -1.
        -13    1    6    6    0    0 -0.10496380187E+02 -0.35187639182E+01  0.67922196335E+01  0.12988069298E+02  0.00000000000E+00 0.  1.
         14    1    6    6    0    0  0.26588883715E+02 -0.35275103655E+02 -0.14039380671E+03  0.14717921945E+03  0.00000000000E+00 0. -1.
         -5    1    3    3    0  503  0.25506425068E+02  0.11210529313E+03 -0.19189984916E+03  0.22375391969E+03  0.47000000000E+01 0.  1.
         11    1    4    4    0    0  0.44441266068E+00 -0.10042184028E+02  0.29319123973E+01  0.10470867823E+02  0.00000000000E+00 0. -1.
        -12    1    4    4    0    0  0.75966669592E+02  0.18391534977E+02 -0.25883767449E+03  0.27038144386E+03  0.00000000000E+00 0.  1.
</event>
<event>
12    1  0.8562501E-002  0.2687665E+03  0.7818608E-02  0.1102303E+00
         21   -1    0    0  503  502  0.00000000000E+00  0.00000000000E+00  0.17614667887E+04  0.17614667887E+04  0.00000000000E+00 0.  1.
         21   -1    0    0  501  503 -0.00000000000E+00 -0.00000000000E+00 -0.42074033879E+02  0.42074033879E+02  0.00000000000E+00 0. -1.
          6    2    1    2  501    0  0.13516525565E+03  0.15548512655E+03  0.69197562057E+03  0.74155146186E+03  0.16918345137E+03 0.  0.
         24    2    3    3    0    0  0.67135425425E+02  0.10558335513E+03  0.59431485929E+03  0.61240828982E+03  0.78605033203E+02 0.  0.
         -6    2    1    2    0  502 -0.13516525565E+03 -0.15548512655E+03  0.10274171342E+04  0.10619893607E+04  0.17259827233E+03 0.  0.
        -24    2    5    5    0    0 -0.77203320191E+02 -0.73584970378E+02  0.30801882021E+03  0.33561256745E+03  0.79906828973E+02 0.  0.
          5    1    3    3  501    0  0.68029830225E+02  0.49901771414E+02  0.97660761285E+02  0.12914317204E+03  0.47000000000E+01 0. -1.
        -11    1    4    4    0    0  0.61446079496E+02  0.25487814210E+02  0.30401373523E+03  0.31120668464E+03  0.00000000000E+00 0.  1.
         12    1    4    4    0    0  0.56893459281E+01  0.80095540922E+02  0.29030112406E+03  0.30120160518E+03  0.00000000000E+00 0. -1.
         -5    1    5    5    0  502 -0.57961935458E+02 -0.81900156167E+02  0.71939831403E+03  0.72637679325E+03  0.47000000000E+01 0.  1.
         13    1    6    6    0    0 -0.47159950875E+02 -0.73431647425E+02  0.28412452629E+03  0.29722552759E+03  0.00000000000E+00 0. -1.
        -14    1    6    6    0    0 -0.30043369316E+02 -0.15332295264E+00  0.23894293916E+02  0.38387039864E+02  0.00000000000E+00 0.  1.
</event>
<event>
12    1  0.8562501E-002  0.1769169E+03  0.7818608E-02  0.1170932E+00
         21   -1    0    0  503  502  0.00000000000E+00  0.00000000000E+00  0.60453925937E+02  0.60453925937E+02  0.00000000000E+00 0. -1.
         21   -1    0    0  501  503 -0.00000000000E+00 -0.00000000000E+00 -0.69198411685E+03  0.69198411685E+03  0.00000000000E+00 0. -1.
          6    2    1    2  501    0  0.64907070208E+01  0.39059726142E+02 -0.50496205274E+03  0.53490851853E+03  0.17196702302E+03 0.  0.
         24    2    3    3    0    0  0.21951142873E+02  0.47067675156E+02 -0.50851925940E+03  0.51652656968E+03  0.74233693783E+02 0.  0.
         -6    2    1    2    0  502 -0.64907070208E+01 -0.39059726142E+02 -0.12656813818E+03  0.21752952426E+03  0.17242914150E+03 0.  0.
        -24    2    5    5    0    0 -0.27451795980E+02 -0.53859536370E+02 -0.15122248227E+03  0.18163623357E+03  0.80430289334E+02 0.  0.
          5    1    3    3  501    0 -0.15460435852E+02 -0.80079490140E+01  0.35572066610E+01  0.18381948846E+02  0.47000000000E+01 0. -1.
        -11    1    4    4    0    0 -0.10965987439E+02  0.32321550576E+02 -0.86826301698E+02  0.93293848558E+02  0.00000000000E+00 0.  1.
         12    1    4    4    0    0  0.32917130312E+02  0.14746124580E+02 -0.42169295770E+03  0.42323272113E+03  0.00000000000E+00 0. -1.
         -5    1    5    5    0  502  0.20961088959E+02  0.14799810228E+02  0.24654344096E+02  0.35893290681E+02  0.47000000000E+01 0.  1.
         11    1    6    6    0    0 -0.10279150555E+02 -0.72667792390E+02 -0.96143262201E+02  0.12095369301E+03  0.00000000000E+00 0. -1.
        -12    1    6    6    0    0 -0.17172645425E+02  0.18808256020E+02 -0.55079220071E+02  0.60682540561E+02  0.00000000000E+00 0.  1.
</event>
<event>
12    1  0.8562501E-002  0.2003430E+03  0.7818608E-02  0.1150532E+00
         21   -1    0    0  503  502  0.00000000000E+00  0.00000000000E+00  0.16104377271E+03  0.16104377271E+03  0.00000000000E+00 0. -1.
         21   -1    0    0  501  503 -0.00000000000E+00 -0.00000000000E+00 -0.58667505532E+03  0.58667505532E+03  0.00000000000E+00 0.  1.
          6    2    1    2  501    0 -0.10090499001E+03  0.99243091068E+01 -0.50009260914E+03  0.53872991188E+03  0.17279175710E+03 0.  0.
         24    2    3    3    0    0 -0.12023178016E+03 -0.16150505359E+02 -0.47442084394E+03  0.49708197922E+03  0.85433231894E+02 0.  0.
         -6    2    1    2    0  502  0.10090499001E+03 -0.99243091068E+01  0.74461326520E+02  0.20898891615E+03  0.16688789353E+03 0.  0.
        -24    2    5    5    0    0  0.21356005804E+02  0.15027166109E+02  0.91663336639E+02  0.12373273657E+03  0.78903283271E+02 0.  0.
          5    1    3    3  501    0  0.19326790150E+02  0.26074814465E+02 -0.25671765196E+02  0.41647932664E+02  0.47000000000E+01 0. -1.
        -11    1    4    4    0    0 -0.55621898725E+02 -0.27906866984E+02 -0.10651814731E+03  0.12336411370E+03  0.00000000000E+00 0.  1.
         12    1    4    4    0    0 -0.64609881434E+02  0.11756361625E+02 -0.36790269663E+03  0.37371786551E+03  0.00000000000E+00 0. -1.
         -5    1    5    5    0  502  0.79548984205E+02 -0.24951475216E+02 -0.17202010119E+02  0.85256179575E+02  0.47000000000E+01 0.  1.
         11    1    6    6    0    0  0.19797611756E+02 -0.30711293218E+02  0.32242836938E+02  0.48731196334E+02  0.00000000000E+00 0. -1.
        -12    1    6    6    0    0  0.15583940480E+01  0.45738459326E+02  0.59420499701E+02  0.75001540239E+02  0.00000000000E+00 0.  1.
</event>
<event>
12    1  0.8562501E-002  0.2961379E+03  0.7818608E-02  0.1087192E+00
         21   -1    0    0  501  502  0.00000000000E+00  0.00000000000E+00  0.14693795482E+04  0.14693795482E+04  0.00000000000E+00 0. -1.
         21   -1    0    0  502  503 -0.00000000000E+00 -0.00000000000E+00 -0.59897844824E+02  0.59897844824E+02  0.00000000000E+00 0.  1.
         -6    2    1    2    0  503 -0.14017501747E+03 -0.19651322102E+03  0.65827448330E+03  0.72181919760E+03  0.17155517219E+03 0.  0.
        -24    2    3    3    0    0 -0.87934927208E+02 -0.90773173935E+02  0.21229279252E+03  0.26048228915E+03  0.82525588013E+02 0.  0.
          6    2    1    2  501    0  0.14017501747E+03  0.19651322102E+03  0.75120722006E+03  0.80745819540E+03  0.17149334768E+03 0.  0.
         24    2    5    5    0    0  0.13250278952E+03  0.14453920806E+03  0.39978175394E+03  0.45209625408E+03  0.78211254131E+02 0.  0.
          5    1    5    5  501    0  0.76722279483E+01  0.51974012965E+02  0.35142546611E+03  0.35536194132E+03  0.47000000000E+01 0. -1.
        -13    1    6    6    0    0 -0.58901860053E+01  0.38294759081E+01  0.93181568604E+00  0.70871332272E+01  0.00000000000E+00 0.  1.
         14    1    6    6    0    0  0.13839297553E+03  0.14070973215E+03  0.39884993826E+03  0.44500912085E+03  0.00000000000E+00 0. -1.
         -5    1    3    3    0  503 -0.52240090261E+02 -0.10574004709E+03  0.44598169078E+03  0.46133690845E+03  0.47000000000E+01 0.  1.
         11    1    4    4    0    0 -0.14831179675E+02  0.15524540269E+02  0.37882963690E+02  0.43544163548E+02  0.00000000000E+00 0. -1.
        -12    1    4    4    0    0 -0.73103747533E+02 -0.10629771420E+03  0.17440982883E+03  0.21693812560E+03  0.00000000000E+00 0.  1.
</event>
<event>
12    1  0.8562501E-002  0.2141894E+03  0.7818608E-02  0.1138630E+00
         21   -1    0    0  501  502  0.00000000000E+00  0.00000000000E+00  0.15315665045E+04  0.15315665045E+04  0.00000000000E+00 0.  1.
         21   -1    0    0  502  503 -0.00000000000E+00 -0.00000000000E+00 -0.37404798392E+02  0.37404798392E+02  0.00000000000E+00 0.  1.
         -6    2    1    2    0  503 -0.50530293071E+02 -0.11668179750E+03  0.11053266700E+04  0.11258881644E+04  0.17236344984E+03 0.  0.
        -24    2    3    3    0    0 -0.28139408621E+02  0.28260459757E+01  0.50410554372E+03  0.51247769082E+03  0.87813276479E+02 0.  0.
          6    2    1    2  501    0  0.50530293071E+02  0.11668179750E+03  0.38883503610E+03  0.44308313853E+03  0.17018234328E+03 0.  0.
         24    2    5    5    0    0  0.20583517156E+02  0.25625579424E+02  0.70489881827E+02  0.11058686564E+03  0.78614756324E+02 0.  0.
          5    1    5    5  501    0  0.29946775915E+02  0.91056218075E+02  0.31834515427E+03  0.33249627289E+03  0.47000000000E+01 0. -1.
        -11    1    6    6    0    0  0.14660389572E+02  0.51032211264E+02  0.26256799311E+02  0.59233716066E+02  0.00000000000E+00 0.  1.
         12    1    6    6    0    0  0.59231275844E+01 -0.25406631841E+02  0.44233082516E+02  0.51353149570E+02  0.00000000000E+00 0. -1.
         -5    1    3    3    0  503 -0.22390884450E+02 -0.11950784347E+03  0.60122112632E+03  0.61341047358E+03  0.47000000000E+01 0.  1.
         11    1    4    4    0    0 -0.72325569430E+01 -0.99921476106E+01  0.59079249814E+01  0.13676858974E+02  0.00000000000E+00 0. -1.
        -12    1    4    4    0    0 -0.20906851678E+02  0.12818193586E+02  0.49819761874E+03  0.49880083184E+03  0.00000000000E+00 0.  1.
</event>
<event>
12    1  0.8562501E-002  0.2016898E+03  0.7818608E-02  0.1148533E+00
         21   -1    0    0  503  502  0.00000000000E+00  0.00000000000E+00  0.53523552622E+03  0.53523552622E+03  0.00000000000E+00 0.  1.
         21   -1    0    0  501  503 -0.00000000000E+00 -0.00000000000E+00 -0.15606645391E+03  0.15606645391E+03  0.00000000000E+00 0. -1.
          6    2    1    2  501    0 -0.93102301930E+02 -0.48946791930E+02 -0.58345774701E+02  0.20995955459E+03  0.17208997087E+03 0.  0.
         24    2    3    3    0    0 -0.33124430268E+02 -0.91281390434E+02 -0.18192444988E+02  0.12615058606E+03  0.78444153307E+02 0.  0.
         -6    2    1    2    0  502  0.93102301930E+02  0.48946791930E+02  0.43751484701E+03  0.48134242554E+03  0.17090190814E+03 0.  0.
        -24    2    5    5    0    0  0.78567799752E+02  0.53709508333E+02  0.14251167098E+03  0.18590563181E+03  0.72067448478E+02 0.  0.
          5    1    3    3  501    0 -0.59977871662E+02  0.42334598504E+02 -0.40153329712E+02  0.83808968533E+02  0.47000000000E+01 0. -1.
        -11    1    4    4    0    0  0.72162057283E+00 -0.51409107658E+02  0.26059096548E+02  0.57641075626E+02  0.00000000000E+00 0.  1.
         12    1    4    4    0    0 -0.33846050841E+02 -0.39872282776E+02 -0.44251541536E+02  0.68509510432E+02  0.00000000000E+00 0. -1.
         -5    1    5    5    0  502  0.14534502178E+02 -0.47627164030E+01  0.29500317603E+03  0.29543679372E+03  0.47000000000E+01 0.  1.
         11    1    6    6    0    0  0.30316285008E+00 -0.14639594974E+02  0.11088043035E+02  0.18367208473E+02  0.00000000000E+00 0. -1.
        -12    1    6    6    0    0  0.78264636902E+02  0.68349103307E+02  0.13142362795E+03  0.16753842334E+03  0.00000000000E+00 0.  1.
</event>
<event>
12    1  0.8562501E-002  0.1881746E+03  0.7818608E-02  0.1160522E+00
         21   -1    0    0  503  502  0.00000000000E+00  0.00000000000E+00  0.13419445347E+03  0.13419445347E+03  0.00000000000E+00 0.  1.
         21   -1    0    0  501  503 -0.00000000000E+00 -0.00000000000E+00 -0.26269409301E+03  0.26269409301E+03  0.00000000000E+00 0.  1.
          6    2    1    2  501    0  0.71876555432E+02 -0.23505465746E+02 -0.50063201446E+02  0.19302107587E+03  0.17038798505E+03 0.  0.
         24    2    3    3    0    0  0.24511426384E+02 -0.68531761524E+02  0.27263233579E+01  0.10888043949E+03  0.80932718370E+02 0.  0.
         -6    2    1    2    0  502 -0.71876555432E+02  0.23505465746E+02 -0.78436438094E+02  0.20386747062E+03  0.17231054702E+03 0.  0.
        -24    2    5    5    0    0 -0.11637937404E+02 -0.11058112697E+02  0.21150719090E+02  0.82364285753E+02  0.77966654450E+02 0.  0.
          5    1    3    3  501    0  0.47365129048E+02  0.45026295778E+02 -0.52789524804E+02  0.84140636379E+02  0.47000000000E+01 0. -1.
        -13    1    4    4    0    0  0.45581803321E+02 -0.70031066497E+02  0.14331524267E+02  0.84778792493E+02  0.00000000000E+00 0.  1.
         14    1    4    4    0    0 -0.21070376937E+02  0.14993049731E+01 -0.11605200909E+02  0.24101646994E+02  0.00000000000E+00 0. -1.
         -5    1    5    5    0  502 -0.60238618027E+02  0.34563578443E+02 -0.99587157184E+02  0.12150318487E+03  0.47000000000E+01 0.  1.
         11    1    6    6    0    0 -0.33738407117E+02  0.20443673733E+02  0.23051051518E+01  0.39516293099E+02  0.00000000000E+00 0. -1.
        -12    1    6    6    0    0  0.22100469713E+02 -0.31501786430E+02  0.18845613938E+02  0.42847992654E+02  0.00000000000E+00 0.  1.
</event>
<event>
12    1  0.8562501E-002  0.2066877E+03  0.7818608E-02  0.1144277E+00
         21   -1    0    0  503  502  0.00000000000E+00  0.00000000000E+00  0.18197128113E+03  0.18197128113E+03  0.00000000000E+00 0. -1.
         21   -1    0    0  501  503 -0.00000000000E+00 -0.00000000000E+00 -0.29062841104E+03  0.29062841104E+03  0.00000000000E+00 0. -1.
          6    2    1    2  501    0 -0.11558702368E+03 -0.10945802743E+02 -0.15821391427E+03  0.26005400456E+03  0.17063490844E+03 0.  0.
         24    2    3    3    0    0 -0.36387668494E+02 -0.45209199592E+02 -0.26657644229E+02  0.10265114432E+03  0.80365995846E+02 0.  0.
         -6    2    1    2    0  502  0.11558702368E+03  0.10945802743E+02  0.49556784361E+02  0.21254568761E+03  0.17099597599E+03 0.  0.
        -24    2    5    5    0    0  0.13420961774E+03  0.38504938680E+02  0.93953977969E+01  0.16018793791E+03  0.77955436978E+02 0.  0.
          5    1    3    3  501    0 -0.79199355185E+02  0.34263396849E+02 -0.13155627004E+03  0.15740286024E+03  0.47000000000E+01 0. -1.
        -11    1    4    4    0    0  0.73007665848E+01  0.63641029161E+01 -0.33352069034E+02  0.34729864778E+02  0.00000000000E+00 0.  1.
         12    1    4    4    0    0 -0.43688435078E+02 -0.51573302508E+02  0.66944248049E+01  0.67921279543E+02  0.00000000000E+00 0. -1.
         -5    1    5    5    0  502 -0.18622594061E+02 -0.27559135937E+02  0.40161386564E+02  0.52357749702E+02  0.47000000000E+01 0.  1.
         13    1    6    6    0    0  0.66433777724E+01  0.28505511321E+02 -0.96535023398E+01  0.30820265270E+02  0.00000000000E+00 0. -1.
        -14    1    6    6    0    0  0.12756623997E+03  0.99994273590E+01  0.19048900137E+02  0.12936767264E+03  0.00000000000E+00 0.  1.
</event>
<event>
12    1  0.8562501E-002  0.1819672E+03  0.7818608E-02  0.1166109E+00
         21   -1    0    0  501  502  0.00000000000E+00  0.00000000000E+00  0.58754556989E+03  0.58754556989E+03  0.00000000000E+00 0.  1.
         21   -1    0    0  502  503 -0.00000000000E+00 -0.00000000000E+00 -0.57987997126E+02  0.57987997126E+02  0.00000000000E+00 0. -1.
         -6    2    1    2    0  503 -0.42104470337E+02  0.34758164465E+02  0.32240281901E+03  0.36980696833E+03  0.17272145118E+03 0.  0.
        -24    2    3    3    0    0  0.68446936403E+00  0.59891908610E+02  0.10282081776E+03  0.14463826774E+03  0.82222860037E+02 0.  0.
          6    2    1    2  501    0  0.42104470337E+02 -0.34758164465E+02  0.20715475375E+03  0.27572659869E+03  0.17358326187E+03 0.  0.
         24    2    5    5    0    0 -0.35478966527E+02 -0.50426234688E+02  0.13163773247E+03  0.16622961880E+03  0.80636414522E+02 0.  0.
          5    1    5    5  501    0  0.77583436863E+02  0.15668070223E+02  0.75517021283E+02  0.10949697988E+03  0.47000000000E+01 0. -1.
        -13    1    6    6    0    0 -0.24498518812E+02  0.18185017035E+02  0.54125467467E+02  0.62132427098E+02  0.00000000000E+00 0.  1.
         14    1    6    6    0    0 -0.10980447715E+02 -0.68611251723E+02  0.77512265005E+02  0.10409719171E+03  0.00000000000E+00 0. -1.
         -5    1    3    3    0  503 -0.42788939701E+02 -0.25133744145E+02  0.21958200125E+03  0.22516870059E+03  0.47000000000E+01 0.  1.
         13    1    4    4    0    0  0.15952837145E+02  0.44840806439E+02  0.90488689550E+01  0.48446599101E+02  0.00000000000E+00 0. -1.
        -14    1    4    4    0    0 -0.15268367781E+02  0.15051102171E+02  0.93771948810E+02  0.96191668635E+02  0.00000000000E+00 0.  1.
</event>
<event>
12    1  0.8562501E-002  0.1771411E+03  0.7818608E-02  0.1170599E+00
         21   -1    0    0  501  502  0.00000000000E+00  0.00000000000E+00  0.15703821534E+03  0.15703821534E+03  0.00000000000E+00 0. -1.
         21   -1    0    0  502  503 -0.00000000000E+00 -0.00000000000E+00 -0.21005933654E+03  0.21005933654E+03  0.00000000000E+00 0. -1.
         -6    2    1    2    0  503 -0.34771830394E+02  0.21426112374E+02 -0.67040044747E+02  0.18940258406E+03  0.17236824757E+03 0.  0.
        -24    2    3    3    0    0  0.10826971367E+02  0.13091886974E+02 -0.10265879105E+03  0.13075537506E+03  0.79180300037E+02 0.  0.
          6    2    1    2  501    0  0.34771830394E+02 -0.21426112374E+02  0.14018923550E+02  0.17769496782E+03  0.17236824792E+03 0.  0.
         24    2    5    5    0    0 -0.20517994742E+02  0.45555708720E+02  0.27503221225E+00  0.89635251318E+02  0.74418357486E+02 0.  0.
          5    1    5    5  501    0  0.55289825135E+02 -0.66981821095E+02  0.13743891337E+02  0.88059716498E+02  0.47000000000E+01 0. -1.
        -13    1    6    6    0    0 -0.21403229006E+02  0.15519353626E+02 -0.34635931111E+02  0.43572884605E+02  0.00000000000E+00 0.  1.
         14    1    6    6    0    0  0.88523426382E+00  0.30036355094E+02  0.34910963324E+02  0.46062366713E+02  0.00000000000E+00 0. -1.
         -5    1    3    3    0  503 -0.45598801760E+02  0.83342254001E+01  0.35618746305E+02  0.58647208999E+02  0.47000000000E+01 0.  1.
         13    1    4    4    0    0  0.75627979490E+01  0.27840898973E+02 -0.11017022926E+03  0.11388499016E+03  0.00000000000E+00 0. -1.
        -14    1    4    4    0    0  0.32641734177E+01 -0.14749011999E+02  0.75114382032E+01  0.16870384907E+02  0.00000000000E+00 0.  1.
</event>
<event>
12    1  0.8562501E-002  0.2154900E+03  0.7818608E-02  0.1137480E+00
         21   -1    0    0  501  502  0.00000000000E+00  0.00000000000E+00  0.20091840324E+04  0.20091840324E+04  0.00000000000E+00 0.  1.
         21   -1    0    0  502  503 -0.00000000000E+00 -0.00000000000E+00 -0.23032288517E+02  0.23032288517E+02  0.00000000000E+00 0. -1.
         -6    2    1    2    0  503 -0.10290576479E+03 -0.79959063594E+02  0.95647460460E+03  0.98023202605E+03  0.17037636974E+03 0.  0.
        -24    2    3    3    0    0 -0.92547139137E+02  0.10408765249E+02  0.55578977212E+03  0.56932562478E+03  0.80969629439E+02 0.  0.
          6    2    1    2  501    0  0.10290576479E+03  0.79959063594E+02  0.10296771392E+04  0.10519842948E+04  0.17161846408E+03 0.  0.
         24    2    5    5    0    0  0.48378162247E+02 -0.23694000273E+02  0.51903438833E+03  0.52806127935E+03  0.80933097373E+02 0.  0.
          5    1    5    5  501    0  0.54527602539E+02  0.10365306387E+03  0.51064275091E+03  0.52392301548E+03  0.47000000000E+01 0. -1.
        -11    1    6    6    0    0 -0.11379641097E+02 -0.31362179090E+02  0.12190891916E+03  0.12639172077E+03  0.00000000000E+00 0.  1.
         12    1    6    6    0    0  0.59757803345E+02  0.76681788166E+01  0.39712546917E+03  0.40166955858E+03  0.00000000000E+00 0. -1.
         -5    1    3    3    0  503 -0.10358625649E+02 -0.90367828843E+02  0.40068483249E+03  0.41090640127E+03  0.47000000000E+01 0.  1.
         13    1    4    4    0    0 -0.20134274698E+02 -0.32238208800E+02  0.13627885823E+03  0.14148009869E+03  0.00000000000E+00 0. -1.
        -14    1    4    4    0    0 -0.72412864439E+02  0.42646974049E+02  0.41951091388E+03  0.42784552609E+03  0.00000000000E+00 0.  1.
</event>
<event>
12    1  0.8562501E-002  0.1873871E+03  0.7818608E-02  0.1161455E+00
         21   -1    0    0  501  502  0.00000000000E+00  0.00000000000E+00  0.33654939257E+02  0.33654939257E+02  0.00000000000E+00 0.  1.
         21   -1    0    0  502  503 -0.00000000000E+00 -0.00000000000E+00 -0.11819306695E+04  0.11819306695E+04  0.00000000000E+00 0. -1.
         -6    2    1    2    0  503 -0.69278333413E+02 -0.68706748418E+01 -0.78948889010E+03  0.81081167606E+03  0.17110281349E+03 0.  0.
        -24    2    3    3    0    0  0.23310682669E+02 -0.12637333714E+02 -0.49436910506E+03  0.50141911349E+03  0.79480973814E+02 0.  0.
          6    2    1    2  501    0  0.69278333413E+02  0.68706748418E+01 -0.35878684012E+03  0.40477393268E+03  0.17397484381E+03 0.  0.
         24    2    5    5    0    0 -0.24696549837E+01  0.44839971516E+02 -0.98059780087E+02  0.13166199379E+03  0.75514487994E+02 0.  0.
          5    1    5    5  501    0  0.71747988397E+02 -0.37969296675E+02 -0.26072706004E+03  0.27311193889E+03  0.47000000000E+01 0. -1.
        -11    1    6    6    0    0  0.11086975601E+02 -0.17620519920E+02 -0.10669833798E+02  0.23393355970E+02  0.00000000000E+00 0.  1.
         12    1    6    6    0    0 -0.13556630585E+02  0.62460491437E+02 -0.87389946289E+02  0.10826863782E+03  0.00000000000E+00 0. -1.
         -5    1    3    3    0  503 -0.92589016082E+02  0.57666588726E+01 -0.29511978504E+03  0.30939256257E+03  0.47000000000E+01 0.  1.
         11    1    4    4    0    0 -0.16443296767E+02 -0.47564215151E+00 -0.36840440511E+03  0.36877149286E+03  0.00000000000E+00 0. -1.
        -12    1    4    4    0    0  0.39753979436E+02 -0.12161691563E+02 -0.12596469995E+03  0.13264762062E+03  0.00000000000E+00 0.  1.
</event>
<event>
12    1  0.8562501E-002  0.2160814E+03  0.7818608E-02  0.1137441E+00
         21   -1    0    0  503  502  0.00000000000E+00  0.00000000000E+00  0.29622302739E+03  0.29622302739E+03  0.00000000000E+00 0.  1.
         21   -1    0    0  501  503 -0.00000000000E+00 -0.00000000000E+00 -0.33225614263E+03  0.33225614263E+03  0.00000000000E+00 0.  1.
          6    2    1    2  501    0  0.93889973716E+02  0.90723244070E+02 -0.24725170676E+03  0.32631289399E+03  0.16822801226E+03 0.  0.
         24    2    3    3    0    0  0.18743284245E+02  0.10474402423E+03 -0.12973130727E+03  0.18603908492E+03  0.80359863833E+02 0.  0.
         -6    2    1    2    0  502 -0.93889973716E+02 -0.90723244070E+02  0.21121859152E+03  0.30216627603E+03  0.17217761407E+03 0.  0.
        -24    2    5    5    0    0 -0.70715276320E+02 -0.34792333909E+02  0.21188336027E+03  0.24143847985E+03  0.84775140164E+02 0.  0.
          5    1    3    3  501    0  0.75146689471E+02 -0.14020780163E+02 -0.11752039949E+03  0.14027380907E+03  0.47000000000E+01 0. -1.
        -13    1    4    4    0    0 -0.17078947834E+02  0.28997726289E+02 -0.84202548339E+02  0.90678706077E+02  0.00000000000E+00 0.  1.
         14    1    4    4    0    0  0.35822232079E+02  0.75746297945E+02 -0.45528758933E+02  0.95360378845E+02  0.00000000000E+00 0. -1.
         -5    1    5    5    0  502 -0.23174697395E+02 -0.55930910161E+02 -0.66476875539E+00  0.60727796175E+02  0.47000000000E+01 0.  1.
         13    1    6    6    0    0 -0.26262915932E+02  0.23799143556E+02  0.11149427465E+03  0.11699193676E+03  0.00000000000E+00 0. -1.
        -14    1    6    6    0    0 -0.44452360389E+02 -0.58591477465E+02  0.10038908562E+03  0.12444654309E+03  0.00000000000E+00 0.  1.
</event>
<event>
12    1  0.8562501E-002  0.2033734E+03  0.7818608E-02  0.1147149E+00
         21   -1    0    0  501  502  0.00000000000E+00  0.00000000000E+00  0.14302552382E+03  0.14302552382E+03  0.00000000000E+00 0.  1.
         21   -1    0    0  502  503 -0.00000000000E+00 -0.00000000000E+00 -0.30445485884E+03  0.30445485884E+03  0.00000000000E+00 0.  1.
         -6    2    1    2    0  503  0.54122701705E+02  0.91833317530E+02 -0.27931225750E+02  0.20420590665E+03  0.17192229027E+03 0.  0.
        -24    2    3    3    0    0  0.86625339705E+01  0.10599900456E+03  0.22824311645E+02  0.13445271234E+03  0.79030084099E+02 0.  0.
          6    2    1    2  501    0 -0.54122701705E+02 -0.91833317530E+02 -0.13349810927E+03  0.24327447601E+03  0.17319959714E+03 0.  0.
         24    2    5    5    0    0 -0.33632919618E+02 -0.10527702783E+03 -0.15779684558E+03  0.20844513345E+03  0.79593362244E+02 0.  0.
          5    1    5    5  501    0 -0.20489782087E+02  0.13443710303E+02  0.24298736310E+02  0.34829342557E+02  0.47000000000E+01 0. -1.
        -11    1    6    6    0    0 -0.33353888329E+02 -0.74078064703E+02 -0.15752876813E+03  0.17724377091E+03  0.00000000000E+00 0.  1.
         12    1    6    6    0    0 -0.27903128917E+00 -0.31198963130E+02 -0.26807744491E+00  0.31201362541E+02  0.00000000000E+00 0. -1.
         -5    1    3    3    0  503  0.45460167735E+02 -0.14165687028E+02 -0.50755537396E+02  0.69753194305E+02  0.47000000000E+01 0.  1.
         13    1    4    4    0    0  0.31612710505E+02  0.41243973458E+02 -0.17448944178E+02  0.54816917690E+02  0.00000000000E+00 0. -1.
        -14    1    4    4    0    0 -0.22950176534E+02  0.64755031100E+02  0.40273255824E+02  0.79635794655E+02  0.00000000000E+00 0.  1.
</event>
<event>
12    1  0.8562501E-002  0.1739338E+03  0.7818608E-02  0.1173865E+00
         21   -1    0    0  503  502  0.00000000000E+00  0.00000000000E+00  0.36221576508E+03  0.36221576508E+03  0.00000000000E+00 0.  1.
         21   -1    0    0  501  503 -0.00000000000E+00 -0.00000000000E+00 -0.25568864593E+03  0.25568864593E+03  0.00000000000E+00 0.  1.
          6    2    1    2  501    0 -0.22873522483E+02 -0.92625879424E+01 -0.20032522237E+03  0.26529824353E+03  0.17217424237E+03 0.  0.
         24    2    3    3    0    0  0.41095018963E+01 -0.67659006896E+02 -0.10026126785E+03  0.14624737060E+03  0.82105677980E+02 0.  0.
         -6    2    1    2    0  502  0.22873522483E+02  0.92625879424E+01  0.30685234152E+03  0.35260616748E+03  0.17194114191E+03 0.  0.
        -24    2    5    5    0    0 -0.54004016110E+02 -0.77827294760E+00  0.18106753316E+03  0.20477219696E+03  0.78925037953E+02 0.  0.
          5    1    3    3  501    0 -0.26983024379E+02  0.58396418953E+02 -0.10006395452E+03  0.11905087293E+03  0.47000000000E+01 0. -1.
        -11    1    4    4    0    0  0.42808168821E+02 -0.29630528964E+02 -0.52999527687E+02  0.74293051489E+02  0.00000000000E+00 0.  1.
         12    1    4    4    0    0 -0.38698666924E+02 -0.38028477931E+02 -0.47261740160E+02  0.71954319109E+02  0.00000000000E+00 0. -1.
         -5    1    5    5    0  502  0.76877538593E+02  0.10040860890E+02  0.12578480835E+03  0.14783397052E+03  0.47000000000E+01 0.  1.
         11    1    6    6    0    0  0.19480074880E+02 -0.82828297153E+01  0.50528863640E+02  0.54783616586E+02  0.00000000000E+00 0. -1.
        -12    1    6    6    0    0 -0.73484090990E+02  0.75045567677E+01  0.13053866952E+03  0.14998858037E+03  0.00000000000E+00 0.  1.
</event>
<event>
12    1  0.8562501E-002  0.3012772E+03  0.7818608E-02  0.1084725E+00
         21   -1    0    0  503  502  0.00000000000E+00  0.00000000000E+00  0.96617089305E+03  0.96617089305E+03  0.00000000000E+00 0. -1.
         21   -1    0    0  501  503 -0.00000000000E+00 -0.00000000000E+00 -0.10345679282E+03  0.10345679282E+03  0.00000000000E+00 0.  1.
          6    2    1    2  501    0  0.22254569968E+03  0.10686865328E+03  0.26726307181E+03  0.40273753659E+03  0.17268606292E+03 0.  0.
         24    2    3    3    0    0  0.15857143810E+03  0.55634559819E+02  0.26088179256E+03  0.32039405353E+03  0.79705298579E+02 0.  0.
         -6    2    1    2    0  502 -0.22254569968E+03 -0.10686865328E+03  0.59545102843E+03  0.66689014928E+03  0.17097674245E+03 0.  0.
        -24    2    5    5    0    0 -0.53556061689E+02 -0.55037003940E+02  0.32604640769E+03  0.34464031252E+03  0.81076269639E+02 0.  0.
          5    1    3    3  501    0  0.63974261579E+02  0.51234093457E+02  0.63812792467E+01  0.82343483056E+02  0.47000000000E+01 0. -1.
        -13    1    4    4    0    0  0.10709234055E+01 -0.82830591411E+01 -0.76069952142E+00  0.83865731641E+01  0.00000000000E+00 0.  1.
         14    1    4    4    0    0  0.15750051469E+03  0.63917618960E+02  0.26164249208E+03  0.31200748037E+03  0.00000000000E+00 0. -1.
         -5    1    5    5    0  502 -0.16898963799E+03 -0.51831649336E+02  0.26940462074E+03  0.32224983676E+03  0.47000000000E+01 0.  1.
         11    1    6    6    0    0  0.12804053785E+02 -0.39005062140E+02  0.90022059427E+02  0.98940941220E+02  0.00000000000E+00 0. -1.
        -12    1    6    6    0    0 -0.66360115474E+02 -0.16031941800E+02  0.23602434826E+03  0.24569937130E+03  0.00000000000E+00 0.  1.
</event>
<event>
12    1  0.8562501E-002  0.1808593E+03  0.7818608E-02  0.1167060E+00
         21   -1    0    0  503  502  0.00000000000E+00  0.00000000000E+00  0.20610646118E+04  0.20610646118E+04  0.00000000000E+00 0. -1.
         21   -1    0    0  501  503 -0.00000000000E+00 -0.00000000000E+00 -0.19546459495E+02  0.19546459495E+02  0.00000000000E+00 0.  1.
          6    2    1    2  501    0 -0.22881335416E+02 -0.52203065323E+02  0.56688555101E+03  0.59492893937E+03  0.17126733319E+03 0.  0.
         24    2    3    3    0    0  0.27285356281E+01 -0.84156535420E+01  0.12084792013E+03  0.14599145922E+03  0.81431064302E+02 0.  0.
         -6    2    1    2    0  502  0.22881335416E+02  0.52203065323E+02  0.14746326013E+04  0.14856821319E+04  0.17164315535E+03 0.  0.
        -24    2    5    5    0    0  0.18818727150E+02  0.92618852996E+02  0.77045375057E+03  0.78031706015E+03  0.79770521897E+02 0.  0.
          5    1    3    3  501    0 -0.25609871044E+02 -0.43787411781E+02  0.44603763088E+03  0.44893748015E+03  0.47000000000E+01 0. -1.
        -13    1    4    4    0    0 -0.25798018989E+02  0.28070641082E+00  0.48886081110E+01  0.26258618949E+02  0.00000000000E+00 0.  1.
         14    1    4    4    0    0  0.28526554617E+02 -0.86963599528E+01  0.11595931202E+03  0.11973284027E+03  0.00000000000E+00 0. -1.
         -5    1    5    5    0  502  0.40626082658E+01 -0.40415787673E+02  0.70417885071E+03  0.70536507176E+03  0.47000000000E+01 0.  1.
         11    1    6    6    0    0  0.10420325600E+02  0.23352406260E+02  0.51117102632E+03  0.51181025411E+03  0.00000000000E+00 0. -1.
        -12    1    6    6    0    0  0.83984015503E+01  0.69266446736E+02  0.25928272425E+03  0.26850680603E+03  0.00000000000E+00 0.  1.
</event>
<event>
12    1  0.8562501E-002  0.2216973E+03  0.7818608E-02  0.1133407E+00
         21   -1    0    0  503  502  0.00000000000E+00  0.00000000000E+00  0.55171043875E+03  0.55171043875E+03  0.00000000000E+00 0.  1.
         21   -1    0    0  501  503 -0.00000000000E+00 -0.00000000000E+00 -0.96022675803E+02  0.96022675803E+02  0.00000000000E+00 0.  1.
          6    2    1    2  501    0  0.11126092761E+02 -0.13293979295E+03  0.12885541084E+03  0.25280390037E+03  0.17178276005E+03 0.  0.
         24    2    3    3    0    0  0.51903981271E+02 -0.63781503553E+02  0.12658731906E+03  0.17234932049E+03  0.83173526205E+02 0.  0.
         -6    2    1    2    0  502 -0.11126092761E+02  0.13293979295E+03  0.32683235211E+03  0.39492921418E+03  0.17706755587E+03 0.  0.
        -24    2    5    5    0    0  0.49060050417E+02  0.12268793979E+03  0.27072002783E+03  0.31187408032E+03  0.80727253111E+02 0.  0.
          5    1    3    3  501    0 -0.40777888510E+02 -0.69158289393E+02  0.22680917830E+01  0.80454579878E+02  0.47000000000E+01 0. -1.
        -11    1    4    4    0    0 -0.16676090358E+02 -0.31298350572E+02  0.17718731602E+02  0.39643816514E+02  0.00000000000E+00 0.  1.
         12    1    4    4    0    0  0.68580071629E+02 -0.32483152981E+02  0.10886858746E+03  0.13270550398E+03  0.00000000000E+00 0. -1.
         -5    1    5    5    0  502 -0.60186143178E+02  0.10251853159E+02  0.56112324280E+02  0.83055133857E+02  0.47000000000E+01 0.  1.
         13    1    6    6    0    0  0.41595647281E+01 -0.21237537860E+01 -0.44198535286E+01  0.64301954936E+01  0.00000000000E+00 0. -1.
        -14    1    6    6    0    0  0.44900485689E+02  0.12481169357E+03  0.27513988135E+03  0.30544388483E+03  0.00000000000E+00 0.  1.
</event>
<event>
12    1  0.8562501E-002  0.1759551E+03  0.7818608E-02  0.1171900E+00
         21   -1    0    0  501  502  0.00000000000E+00  0.00000000000E+00  0.69454874418E+02  0.69454874418E+02  0.00000000000E+00 0. -1.
         21   -1    0    0  502  503 -0.00000000000E+00 -0.00000000000E+00 -0.45434602833E+03  0.45434602833E+03  0.00000000000E+00 0. -1.
         -6    2    1    2    0  503  0.77203805537E+01 -0.33176002906E+02 -0.15364037494E+03  0.23322021718E+03  0.17212220497E+03 0.  0.
        -24    2    3    3    0    0 -0.56057832842E+02 -0.41726119562E+02 -0.53711515835E+02  0.11427219542E+03  0.72730035310E+02 0.  0.
          6    2    1    2  501    0 -0.77203805537E+01  0.33176002906E+02 -0.23125077897E+03  0.29058068556E+03  0.17262665091E+03 0.  0.
         24    2    5    5    0    0  0.56904813477E+02  0.24521126500E+02 -0.18403266863E+03  0.20993973732E+03  0.79794904241E+02 0.  0.
          5    1    5    5  501    0 -0.64625194031E+02  0.86548764062E+01 -0.47218110339E+02  0.80640948240E+02  0.47000000000E+01 0. -1.
        -11    1    6    6    0    0  0.22602546505E+02  0.11294811186E+02 -0.32721635830E+01  0.25478518850E+02  0.00000000000E+00 0.  1.
         12    1    6    6    0    0  0.34302266972E+02  0.13226315314E+02 -0.18076050505E+03  0.18446121847E+03  0.00000000000E+00 0. -1.
         -5    1    3    3    0  503  0.63778213395E+02  0.85501166557E+01 -0.99928859103E+02  0.11894802176E+03  0.47000000000E+01 0.  1.
         11    1    4    4    0    0 -0.50837169120E+02  0.44246167852E+01 -0.42704301034E+02  0.66540606585E+02  0.00000000000E+00 0. -1.
        -12    1    4    4    0    0 -0.52206637219E+01 -0.46150736347E+02 -0.11007214801E+02  0.47731588835E+02  0.00000000000E+00 0.  1.
</event>
<event>
12    1  0.8562501E-002  0.2951289E+03  0.7818608E-02  0.1087732E+00
         21   -1    0    0  501  502  0.00000000000E+00  0.00000000000E+00  0.63495849408E+03  0.63495849408E+03  0.00000000000E+00 0.  1.
         21   -1    0    0  502  503 -0.00000000000E+00 -0.00000000000E+00 -0.15137985658E+03  0.15137985658E+03  0.00000000000E+00 0. -1.
         -6    2    1    2    0  503 -0.17957037046E+03 -0.15753843519E+03  0.12078476475E+03  0.31866275395E+03  0.17289625458E+03 0.  0.
        -24    2    3    3    0    0 -0.10684022470E+02 -0.77708765867E+02  0.65325400452E+02  0.12374429477E+03  0.69945992842E+02 0.  0.
          6    2    1    2  501    0  0.17957037046E+03  0.15753843519E+03  0.36279387275E+03  0.46767559670E+03  0.17331241485E+03 0.  0.
         24    2    5    5    0    0  0.18903623507E+03  0.17563608051E+03  0.30471133352E+03  0.40592773259E+03  0.73113585395E+02 0.  0.
          5    1    5    5  501    0 -0.94658646094E+01 -0.18097645320E+02  0.58082539228E+02  0.61747864109E+02  0.47000000000E+01 0. -1.
        -13    1    6    6    0    0  0.37307654466E+02  0.79504759492E+02  0.11463715777E+03  0.14441103076E+03  0.00000000000E+00 0.  1.
         14    1    6    6    0    0  0.15172858060E+03  0.96131321022E+02  0.19007417574E+03  0.26151670183E+03  0.00000000000E+00 0. -1.
         -5    1    3    3    0  503 -0.16888634799E+03 -0.79829669328E+02  0.55459364302E+02  0.19491845918E+03  0.47000000000E+01 0.  1.
         13    1    4    4    0    0  0.19563522400E+01 -0.85009101955E+02  0.38795354371E+02  0.93463652026E+02  0.00000000000E+00 0. -1.
        -14    1    4    4    0    0 -0.12640374710E+02  0.73003360880E+01  0.26530046081E+02  0.30280642742E+02  0.00000000000E+00 0.  1.
</event>
<event>
12    1  0.8562501E-002  0.2245015E+03  0.7818608E-02  0.1130614E+00
         21   -1    0    0  503  502  0.00000000000E+00  0.00000000000E+00  0.69851743376E+03  0.69851743376E+03  0.00000000000E+00 0. -1.
         21   -1    0    0  501  503 -0.00000000000E+00 -0.00000000000E+00 -0.19500785947E+03  0.19500785947E+03  0.00000000000E+00 0. -1.
          6    2    1    2  501    0  0.14378148309E+03  0.12908483724E+02 -0.10301141133E+03  0.24678839929E+03  0.17161998522E+03 0.  0.
         24    2    3    3    0    0  0.46904424505E+02  0.56289247163E+02 -0.13847069110E+02  0.10808214478E+03  0.78240042899E+02 0.  0.
         -6    2    1    2    0  502 -0.14378148309E+03 -0.12908483724E+02  0.60652098562E+03  0.64673689394E+03  0.17193359229E+03 0.  0.
        -24    2    5    5    0    0 -0.14621875509E+03 -0.28236593995E+02  0.34074082945E+03  0.38046246282E+03  0.80437200191E+02 0.  0.
          5    1    3    3  501    0  0.96877058585E+02 -0.43380763439E+02 -0.89164342220E+02  0.13870625451E+03  0.47000000000E+01 0. -1.
        -13    1    4    4    0    0  0.52641213008E+02  0.19678430650E+02  0.18217528653E+02  0.59078052524E+02  0.00000000000E+00 0.  1.
         14    1    4    4    0    0 -0.57367885027E+01  0.36610816513E+02 -0.32064597763E+02  0.49004092256E+02  0.00000000000E+00 0. -1.
         -5    1    5    5    0  502  0.24372720033E+01  0.15328110271E+02  0.26578015617E+03  0.26627443112E+03  0.47000000000E+01 0.  1.
         13    1    6    6    0    0 -0.10446424860E+03 -0.45854200521E+02  0.29399708595E+03  0.31535642294E+03  0.00000000000E+00 0. -1.
        -14    1    6    6    0    0 -0.41754506490E+02  0.17617606526E+02  0.46743743505E+02  0.65106039879E+02  0.00000000000E+00 0.  1.
</event>
<event>
12    1  0.8562501E-002  0.1959065E+03  0.7818608E-02  0.1153299E+00
         21   -1    0    0  501  502  0.00000000000E+00  0.00000000000E+00  0.30896485970E+03  0.30896485970E+03  0.00000000000E+00 0. -1.
         21   -1    0    0  502  503 -0.00000000000E+00 -0.00000000000E+00 -0.14750473857E+03  0.14750473857E+03  0.00000000000E+00 0. -1.
         -6    2    1    2    0  503  0.14438313722E+02 -0.95890017310E+02 -0.10242603858E+02  0.19617408761E+03  0.17022338674E+03 0.  0.
        -24    2    3    3    0    0  0.26999818533E+02 -0.12596493425E+02 -0.54676249997E+02  0.10082189082E+03  0.79296276755E+02 0.  0.
          6    2    1    2  501    0 -0.14438313722E+02  0.95890017310E+02  0.17170272500E+03  0.26029551066E+03  0.16990752418E+03 0.  0.
         24    2    5    5    0    0  0.55520720671E+02  0.27127505705E+02  0.53431693231E+02  0.10656627970E+03  0.68432259485E+02 0.  0.
          5    1    5    5  501    0 -0.69959034393E+02  0.68762511605E+02  0.11827103176E+03  0.15372923096E+03  0.47000000000E+01 0. -1.
        -13    1    6    6    0    0  0.16029527629E+02 -0.30120377726E+01 -0.14895393418E+02  0.22088251914E+02  0.00000000000E+00 0.  1.
         14    1    6    6    0    0  0.39491193042E+02  0.30139543477E+02  0.68327086648E+02  0.84478027787E+02  0.00000000000E+00 0. -1.
         -5    1    3    3    0  503 -0.12561504812E+02 -0.83293523884E+02  0.44433646139E+02  0.95352196794E+02  0.47000000000E+01 0.  1.
         13    1    4    4    0    0  0.15521965158E+02 -0.28642159051E+02  0.92949583411E+01  0.33877734990E+02  0.00000000000E+00 0. -1.
        -14    1    4    4    0    0  0.11477853376E+02  0.16045665626E+02 -0.63971208339E+02  0.66944155830E+02  0.00000000000E+00 0.  1.
</event>
<event>
12    1  0.8562501E-002  0.2177579E+03  0.7818608E-02  0.1135845E+00
         21   -1    0    0  501  502  0.00000000000E+00  0.00000000000E+00  0.12262705281E+03  0.12262705281E+03  0.00000000000E+00 0.  1.
         21   -1    0    0  502  503 -0.00000000000E+00 -0.00000000000E+00 -0.40034544760E+03  0.40034544760E+03  0.00000000000E+00 0.  1.
         -6    2    1    2    0  503  0.10344558232E+03 -0.83198617985E+02 -0.19111178090E+03  0.28862406265E+03  0.17075461401E+03 0.  0.
        -24    2    3    3    0    0 -0.42052545753E+01 -0.57474998336E+01 -0.98616984704E+02  0.12686882870E+03  0.79496365345E+02 0.  0.
          6    2    1    2  501    0 -0.10344558232E+03  0.83198617985E+02 -0.86606613884E+02  0.23434843776E+03  0.17261369057E+03 0.  0.
         24    2    5    5    0    0 -0.11722189068E+03  0.65327997898E+02 -0.10148549064E+02  0.15449187002E+03  0.75868477586E+02 0.  0.
          5    1    5    5  501    0  0.13776308356E+02  0.17870620087E+02 -0.76458064820E+02  0.79856567734E+02  0.47000000000E+01 0. -1.
        -11    1    6    6    0    0 -0.41700324993E+02  0.66652640475E+02 -0.56190417072E+01  0.78822999287E+02  0.00000000000E+00 0.  1.
         12    1    6    6    0    0 -0.75521565686E+02 -0.13246425769E+01 -0.45295073570E+01  0.75668870736E+02  0.00000000000E+00 0. -1.
         -5    1    3    3    0  503  0.10765083690E+03 -0.77451118151E+02 -0.92494796199E+02  0.16175523396E+03  0.47000000000E+01 0.  1.
         13    1    4    4    0    0  0.20387204385E+02 -0.11142278941E+02 -0.98999011435E+02  0.10168870511E+03  0.00000000000E+00 0. -1.
        -14    1    4    4    0    0 -0.24592458960E+02  0.53947791076E+01  0.38202673192E+00  0.25180123585E+02  0.00000000000E+00 0.  1.
</event>
<event>
12    1  0.8562501E-002  0.1982393E+03  0.7818608E-02  0.1152228E+00
         21   -1    0    0  503  502  0.00000000000E+00  0.00000000000E+00  0.29685879493E+03  0.29685879493E+03  0.00000000000E+00 0.  1.
         21   -1    0    0  501  503 -0.00000000000E+00 -0.00000000000E+00 -0.15358348037E+03  0.15358348037E+03  0.00000000000E+00 0.  1.
          6    2    1    2  501    0  0.94274093392E+02  0.17640514805E+02 -0.18574556792E+02  0.19452392551E+03  0.16821340906E+03 0.  0.
         24    2    3    3    0    0  0.89894854721E+02 -0.37644255340E+02 -0.42856399990E+02  0.13380093604E+03  0.81042239601E+02 0.  0.
         -6    2    1    2    0  502 -0.94274093392E+02 -0.17640514805E+02  0.16184987135E+03  0.25591834979E+03  0.17349359774E+03 0.  0.
        -24    2    5    5    0    0 -0.92819157981E+02 -0.45721422803E+02  0.18007717079E+03  0.22208081625E+03  0.78652761657E+02 0.  0.
          5    1    3    3  501    0  0.43792386717E+01  0.55284770145E+02  0.24281843198E+02  0.60722989472E+02  0.47000000000E+01 0. -1.
        -13    1    4    4    0    0  0.11303886059E+02 -0.46316667020E+02 -0.15408161638E+02  0.50104120878E+02  0.00000000000E+00 0.  1.
         14    1    4    4    0    0  0.78590968662E+02  0.86724116800E+01 -0.27448238351E+02  0.83696815161E+02  0.00000000000E+00 0. -1.
         -5    1    5    5    0  502 -0.14549354112E+01  0.28080907999E+02 -0.18227299441E+02  0.33837533539E+02  0.47000000000E+01 0.  1.
         11    1    6    6    0    0 -0.91599251781E+01 -0.42790189729E+02  0.42271499680E+02  0.60842289993E+02  0.00000000000E+00 0. -1.
        -12    1    6    6    0    0 -0.83659232803E+02 -0.29312330742E+01  0.13780567111E+03  0.16123852626E+03  0.00000000000E+00 0.  1.
</event>
<event>
12    1  0.8562501E-002  0.1772379E+03  0.7818608E-02  0.1170669E+00
         21   -1    0    0  503  502  0.00000000000E+00  0.00000000000E+00  0.74240031662E+03  0.74240031662E+03  0.00000000000E+00 0. -1.
         21   -1    0    0  501  503 -0.00000000000E+00 -0.00000000000E+00 -0.42190719298E+02  0.42190719298E+02  0.00000000000E+00 0. -1.
          6    2    1    2  501    0 -0.36580594763E+02 -0.13491625358E+02  0.33905096395E+03  0.38258177301E+03  0.17289619145E+03 0.  0.
         24    2    3    3    0    0 -0.82063543169E+02 -0.17706111428E+02  0.30251009198E+03  0.32389799491E+03  0.79684527083E+02 0.  0.
         -6    2    1    2    0  502  0.36580594763E+02  0.13491625358E+02  0.36115863337E+03  0.40200926290E+03  0.17220837707E+03 0.  0.
        -24    2    5    5    0    0 -0.48012431442E+01  0.67975062775E+02  0.25063824832E+03  0.27194102322E+03  0.80552638044E+02 0.  0.
          5    1    3    3  501    0  0.45482948406E+02  0.42144860695E+01  0.36540871970E+02  0.58683778106E+02  0.47000000000E+01 0. -1.
        -11    1    4    4    0    0 -0.13286291249E+02  0.20250120012E+02  0.15398516860E+03  0.15587823788E+03  0.00000000000E+00 0.  1.
         12    1    4    4    0    0 -0.68777251919E+02 -0.37956231440E+02  0.14852492337E+03  0.16801975702E+03  0.00000000000E+00 0. -1.
         -5    1    5    5    0  502  0.41381837907E+02 -0.54483437417E+02  0.11052038505E+03  0.13006823968E+03  0.47000000000E+01 0.  1.
         13    1    6    6    0    0  0.34622263236E+02  0.26779266847E+02  0.15017935271E+03  0.15642783711E+03  0.00000000000E+00 0. -1.
        -14    1    6    6    0    0 -0.39423506380E+02  0.41195795928E+02  0.10045889561E+03  0.11551318611E+03  0.00000000000E+00 0.  1.
</event>
<event>
12    1  0.8562501E-002  0.1813369E+03  0.7818608E-02  0.1166587E+00
         21   -1    0    0  501  502  0.00000000000E+00  0.00000000000E+00  0.17231961029E+04  0.17231961029E+04  0.00000000000E+00 0. -1.
         21   -1    0    0  502  503 -0.00000000000E+00 -0.00000000000E+00 -0.65264538137E+02  0.65264538137E+02  0.00000000000E+00 0. -1.
         -6    2    1    2    0  503 -0.17497659074E+02  0.52328221758E+02  0.76284851555E+02  0.19645266550E+03  0.17242349127E+03 0.  0.
        -24    2    3    3    0    0 -0.44061622306E+02 -0.25967211052E+02  0.26122883557E+02  0.99632564413E+02  0.81415724747E+02 0.  0.
          6    2    1    2  501    0  0.17497659074E+02 -0.52328221758E+02  0.15816467132E+04  0.15920079755E+04  0.17273869833E+03 0.  0.
         24    2    5    5    0    0  0.36232373847E+02 -0.29947072039E+02  0.43027222341E+03  0.44025400391E+03  0.80497140827E+02 0.  0.
          5    1    5    5  501    0 -0.18734714773E+02 -0.22381149719E+02  0.11513744898E+04  0.11517539716E+04  0.47000000000E+01 0. -1.
        -11    1    6    6    0    0  0.45170980412E+02 -0.41076653043E+02  0.41453530125E+03  0.41900742819E+03  0.00000000000E+00 0.  1.
         12    1    6    6    0    0 -0.89386065652E+01  0.11129581005E+02  0.15736922160E+02  0.21246575718E+02  0.00000000000E+00 0. -1.
         -5    1    3    3    0  503  0.26563963232E+02  0.78295432809E+02  0.50161967998E+02  0.96820101089E+02  0.47000000000E+01 0.  1.
         13    1    4    4    0    0 -0.17774647339E+02  0.72580384366E+01 -0.26090253461E+02  0.32393186562E+02  0.00000000000E+00 0. -1.
        -14    1    4    4    0    0 -0.26286974967E+02 -0.33225249488E+02  0.52213137018E+02  0.67239377851E+02  0.00000000000E+00 0.  1.
</event>
<event>
12    1  0.8562501E-002  0.1774196E+03  0.7818608E-02  0.1170679E+00
         21   -1    0    0  501  502  0.00000000000E+00  0.00000000000E+00  0.12094921022E+04  0.12094921022E+04  0.00000000000E+00 0. -1.
         21   -1    0    0  502  503 -0.00000000000E+00 -0.00000000000E+00 -0.34227358364E+02  0.34227358364E+02  0.00000000000E+00 0. -1.
         -6    2    1    2    0  503  0.30624024042E+02  0.31316109926E+02  0.28114922176E+03  0.33244937631E+03  0.17192781428E+03 0.  0.
        -24    2    3    3    0    0 -0.56332269038E+01  0.62019951240E+02  0.26229324352E+03  0.28111759246E+03  0.79694087596E+02 0.  0.
          6    2    1    2  501    0 -0.30624024042E+02 -0.31316109926E+02  0.89411552208E+03  0.91127008426E+03  0.17044667803E+03 0.  0.
         24    2    5    5    0    0  0.27425580104E+01 -0.28779571602E+02  0.85607145136E+03  0.86038586134E+03  0.81053779703E+02 0.  0.
          5    1    5    5  501    0 -0.33366582053E+02 -0.25365383240E+01  0.38044070722E+02  0.50884222915E+02  0.47000000000E+01 0. -1.
        -13    1    6    6    0    0  0.15976729581E+02  0.13766398015E+01  0.33344806325E+02  0.37000366675E+02  0.00000000000E+00 0.  1.
         14    1    6    6    0    0 -0.13234171571E+02 -0.30156211403E+02  0.82272664503E+03  0.82338549467E+03  0.00000000000E+00 0. -1.
         -5    1    3    3    0  503  0.36257250946E+02 -0.30703841314E+02  0.18855978239E+02  0.51331783847E+02  0.47000000000E+01 0.  1.
         11    1    4    4    0    0  0.66952183620E+01  0.48318233178E+02  0.57104229445E+02  0.75102400939E+02  0.00000000000E+00 0. -1.
        -12    1    4    4    0    0 -0.12328445266E+02  0.13701718062E+02  0.20518901408E+03  0.20601519152E+03  0.00000000000E+00 0.  1.
</event>
<event>
12    1  0.8562501E-002  0.1803339E+03  0.7818608E-02  0.1167651E+00
         21   -1    0    0  501  502  0.00000000000E+00  0.00000000000E+00  0.23285177845E+03  0.23285177845E+03  0.00000000000E+00 0. -1.
         21   -1    0    0  502  503 -0.00000000000E+00 -0.00000000000E+00 -0.21642689394E+03  0.21642689394E+03  0.00000000000E+00 0. -1.
         -6    2    1    2    0  503 -0.53041661575E+02 -0.37254468890E+01 -0.12606084016E+03  0.21944723057E+03  0.17157638173E+03 0.  0.
        -24    2    3    3    0    0 -0.42744901286E+02 -0.25698263525E+00 -0.35765341506E+01  0.96392166738E+02  0.86321872002E+02 0.  0.
          6    2    1    2  501    0  0.53041661575E+02  0.37254468890E+01  0.14248572467E+03  0.22983144181E+03  0.17231660714E+03 0.  0.
         24    2    5    5    0    0  0.37923379097E+02 -0.33696091158E+02  0.13776319606E+02  0.94860574859E+02  0.78962854807E+02 0.  0.
          5    1    5    5  501    0  0.15118282478E+02  0.37421538047E+02  0.12870940506E+03  0.13497086695E+03  0.47000000000E+01 0. -1.
        -13    1    6    6    0    0 -0.17902015260E+02 -0.89821956447E+01 -0.17199720574E+02  0.26400613190E+02  0.00000000000E+00 0.  1.
         14    1    6    6    0    0  0.55825394357E+02 -0.24713895513E+02  0.30976040180E+02  0.68459961670E+02  0.00000000000E+00 0. -1.
         -5    1    3    3    0  503 -0.10296760289E+02 -0.34684642537E+01 -0.12248430601E+03  0.12305506384E+03  0.47000000000E+01 0.  1.
         11    1    4    4    0    0  0.15937745024E+02 -0.16362795044E+01 -0.28441817766E+02  0.32643929373E+02  0.00000000000E+00 0. -1.
        -12    1    4    4    0    0 -0.58682646310E+02  0.13792968692E+01  0.24865283616E+02  0.63748237365E+02  0.00000000000E+00 0.  1.
</event>
<event>
12    1  0.8562501E-002  0.2055143E+03  0.7818608E-02  0.1145263E+00
         21   -1    0    0  503  502  0.00000000000E+00  0.00000000000E+00  0.54866773987E+03  0.54866773987E+03  0.00000000000E+00 0.  1.
         21   -1    0    0  501  503 -0.00000000000E+00 -0.00000000000E+00 -0.78510106902E+02  0.78510106902E+02  0.00000000000E+00 0.  1.
          6    2    1    2  501    0  0.58392332914E+02 -0.95522897035E+02  0.18912916903E+03  0.27929551893E+03  0.17234226386E+03 0.  0.
         24    2    3    3    0    0  0.46959650321E+02 -0.48574527232E+02  0.23604679017E+02  0.10679826546E+03  0.79271654329E+02 0.  0.
         -6    2    1    2    0  502 -0.58392332914E+02  0.95522897035E+02  0.28102846394E+03  0.34788232785E+03  0.17178715925E+03 0.  0.
        -24    2    5    5    0    0  0.27267533271E+02  0.44643706786E+02  0.81705988946E+02  0.12499705756E+03  0.78815080042E+02 0.  0.
          5    1    3    3  501    0  0.11432682593E+02 -0.46948369802E+02  0.16552449002E+03  0.17249725347E+03  0.47000000000E+01 0. -1.
        -13    1    4    4    0    0  0.49443780358E+02  0.17581278394E+01 -0.34611344442E+01  0.49595946218E+02  0.00000000000E+00 0.  1.
         14    1    4    4    0    0 -0.24841300368E+01 -0.50332655072E+02  0.27065813461E+02  0.57202319244E+02  0.00000000000E+00 0. -1.
         -5    1    5    5    0  502 -0.85659866185E+02  0.50879190249E+02  0.19932247499E+03  0.22288527029E+03  0.47000000000E+01 0.  1.
         11    1    6    6    0    0  0.31822168165E+02 -0.87851122629E+01  0.82088091032E+01  0.34017835485E+02  0.00000000000E+00 0. -1.
        -12    1    6    6    0    0 -0.45546348943E+01  0.53428819049E+02  0.73497179843E+02  0.90979222072E+02  0.00000000000E+00 0.  1.
</event>
<event>
12    1  0.8562501E-002  0.1821317E+03  0.7818608E-02  0.1166088E+00
         21   -1    0    0  501  502  0.00000000000E+00  0.00000000000E+00  0.38994154350E+03  0.38994154350E+03  0.00000000000E+00 0.  1.
         21   -1    0    0  502  503 -0.00000000000E+00 -0.00000000000E+00 -0.93122545229E+02  0.93122545229E+02  0.00000000000E+00 0.  1.
         -6    2    1    2    0  503  0.57190797167E+02 -0.37576865269E+01  0.75092887595E+02  0.19700483221E+03  0.17287872818E+03 0.  0.
        -24    2    3    3    0    0 -0.12293911854E+02  0.45736536344E+02  0.14597655167E+02  0.92316886238E+02  0.77886744206E+02 0.  0.
          6    2    1    2  501    0 -0.57190797167E+02  0.37576865269E+01  0.22172611067E+03  0.28605925652E+03  0.17141330927E+03 0.  0.
         24    2    5    5    0    0 -0.98477888790E+02  0.21721591378E+02  0.12882943162E+03  0.18271899916E+03  0.81360236533E+02 0.  0.
          5    1    5    5  501    0  0.41287091623E+02 -0.17963904851E+02  0.92896679054E+02  0.10334025736E+03  0.47000000000E+01 0. -1.
        -11    1    6    6    0    0 -0.32626601353E+02 -0.30225130484E+02  0.56947212292E+02  0.72256754815E+02  0.00000000000E+00 0.  1.
         12    1    6    6    0    0 -0.65851287437E+02  0.51946721862E+02  0.71882219327E+02  0.11046224434E+03  0.00000000000E+00 0. -1.
         -5    1    3    3    0  503  0.69484709021E+02 -0.49494222871E+02  0.60495232428E+02  0.10468794597E+03  0.47000000000E+01 0.  1.
         11    1    4    4    0    0 -0.28033670200E+02 -0.10513276540E+02  0.15883057771E+02  0.33892287805E+02  0.00000000000E+00 0. -1.
        -12    1    4    4    0    0  0.15739758347E+02  0.56249812883E+02 -0.12854026042E+01  0.58424598433E+02  0.00000000000E+00 0.  1.
</event>
<event>
12    1  0.8562501E-002  0.1794104E+03  0.7818608E-02  0.1169089E+00
         21   -1    0    0  501  502  0.00000000000E+00  0.00000000000E+00  0.28174034829E+03  0.28174034829E+03  0.00000000000E+00 0.  1.
         21   -1    0    0  502  503 -0.00000000000E+00 -0.00000000000E+00 -0.12624635564E+03  0.12624635564E+03  0.00000000000E+00 0.  1.
         -6    2    1    2    0  503 -0.91297922453E+01 -0.49442557653E+02  0.10756512260E+02  0.17973255998E+03  0.17222128483E+03 0.  0.
        -24    2    3    3    0    0  0.32750172391E+02 -0.47908354771E+02 -0.45508106462E+02  0.10941838974E+03  0.80830761541E+02 0.  0.
          6    2    1    2  501    0  0.91297922453E+01  0.49442557653E+02  0.14473748039E+03  0.22825414396E+03  0.16918361738E+03 0.  0.
         24    2    5    5    0    0  0.91866397021E+01  0.69232138434E+02  0.16690375503E+03  0.19816985453E+03  0.80851372645E+02 0.  0.
          5    1    5    5  501    0 -0.56847456716E-01 -0.19789580781E+02 -0.22166274639E+02  0.30084289430E+02  0.47000000000E+01 0. -1.
        -11    1    6    6    0    0  0.17083719427E+02 -0.11280918562E+02  0.64470626128E+02  0.67642990963E+02  0.00000000000E+00 0.  1.
         12    1    6    6    0    0 -0.78970797252E+01  0.80513056995E+02  0.10243312890E+03  0.13052686356E+03  0.00000000000E+00 0. -1.
         -5    1    3    3    0  503 -0.41879964637E+02 -0.15342028814E+01  0.56264618722E+02  0.70314170239E+02  0.47000000000E+01 0.  1.
         13    1    4    4    0    0 -0.12855362701E+02  0.15278808430E+02 -0.17687822538E+02  0.26675108310E+02  0.00000000000E+00 0. -1.
        -14    1    4    4    0    0  0.45605535092E+02 -0.63187163201E+02 -0.27820283924E+02  0.82743281432E+02  0.00000000000E+00 0.  1.
</event>
<event>
12    1  0.8562501E-002  0.1760562E+03  0.7818608E-02  0.1172151E+00
         21   -1    0    0  503  502  0.00000000000E+00  0.00000000000E+00  0.79018699330E+02  0.79018699330E+02  0.00000000000E+00 0.  1.
         21   -1    0    0  501  503 -0.00000000000E+00 -0.00000000000E+00 -0.46939346220E+03  0.46939346220E+03  0.00000000000E+00 0.  1.
          6    2    1    2  501    0  0.18445322316E+02  0.28664018181E+02 -0.31021496867E+03  0.35669191409E+03  0.17272503854E+03 0.  0.
         24    2    3    3    0    0 -0.10541409671E+02 -0.12815672489E+02 -0.29175551867E+03  0.30262125048E+03  0.78631900557E+02 0.  0.
         -6    2    1    2    0  502 -0.18445322316E+02 -0.28664018181E+02 -0.80159794204E+02  0.19172024744E+03  0.17078994355E+03 0.  0.
        -24    2    5    5    0    0  0.31080234003E+02 -0.17245430495E+02  0.92814744261E+01  0.88739689047E+02  0.80778715180E+02 0.  0.
          5    1    3    3  501    0  0.28986731987E+02  0.41479690669E+02 -0.18459449996E+02  0.54070663612E+02  0.47000000000E+01 0. -1.
        -13    1    4    4    0    0 -0.16821153337E+00  0.27025205312E+02 -0.45287279391E+02  0.52738294360E+02  0.00000000000E+00 0.  1.
         14    1    4    4    0    0 -0.10373198138E+02 -0.39840877801E+02 -0.24646823928E+03  0.24988295612E+03  0.00000000000E+00 0. -1.
         -5    1    5    5    0  502 -0.49525556319E+02 -0.11418587685E+02 -0.89441268630E+02  0.10298055840E+03  0.47000000000E+01 0.  1.
         11    1    6    6    0    0  0.33338552018E+02  0.25346808952E+02 -0.81457785973E+01  0.42664663173E+02  0.00000000000E+00 0. -1.
        -12    1    6    6    0    0 -0.22583180156E+01 -0.42592239447E+02  0.17427253023E+02  0.46075025874E+02  0.00000000000E+00 0.  1.
</event>
<event>
12    1  0.8562501E-002  0.2167185E+03  0.7818608E-02  0.1136850E+00
         21   -1    0    0  501  502  0.00000000000E+00  0.00000000000E+00  0.14981830834E+03  0.14981830834E+03  0.00000000000E+00 0.  1.
         21   -1    0    0  502  503 -0.00000000000E+00 -0.00000000000E+00 -0.35699098592E+03  0.35699098592E+03  0.00000000000E+00 0. -1.
         -6    2    1    2    0  503  0.75163287859E+02  0.10616297549E+03 -0.19522765190E+03  0.28976182545E+03  0.17008228071E+03 0.  0.
        -24    2    3    3    0    0  0.19842725855E+02  0.12799642029E+03 -0.12099916211E+03  0.19453040947E+03  0.80152764159E+02 0.  0.
          6    2    1    2  501    0 -0.75163287859E+02 -0.10616297549E+03 -0.11945025684E+02  0.21704746881E+03  0.17334019405E+03 0.  0.
         24    2    5    5    0    0 -0.79344552901E+01 -0.46234280501E+01  0.28217680591E+02  0.88730951564E+02  0.83621842839E+02 0.  0.
          5    1    5    5  501    0 -0.67228832569E+02 -0.10153954744E+03 -0.40162706275E+02  0.12831651725E+03  0.47000000000E+01 0. -1.
        -13    1    6    6    0    0 -0.34404933939E+02 -0.38914659886E+00  0.45343841007E+02  0.56920249750E+02  0.00000000000E+00 0.  1.
         14    1    6    6    0    0  0.26470478648E+02 -0.42342814513E+01 -0.17126160416E+02  0.31810701814E+02  0.00000000000E+00 0. -1.
         -5    1    3    3    0  503  0.55320562004E+02 -0.21833444796E+02 -0.74228489790E+02  0.95231415975E+02  0.47000000000E+01 0.  1.
         13    1    4    4    0    0 -0.24026774664E+02  0.14594879846E+02 -0.38180360273E+02  0.47413461475E+02  0.00000000000E+00 0. -1.
        -14    1    4    4    0    0  0.43869500519E+02  0.11340154044E+03 -0.82818801842E+02  0.14711694800E+03  0.00000000000E+00 0.  1.
</event>
<event>
12    1  0.8562501E-002  0.2650339E+03  0.7818608E-02  0.1104755E+00
         21   -1    0    0  503  502  0.00000000000E+00  0.00000000000E+00  0.19491721380E+04  0.19491721380E+04  0.00000000000E+00 0. -1.
         21   -1    0    0  501  503 -0.00000000000E+00 -0.00000000000E+00 -0.59562106388E+02  0.59562106388E+02  0.00000000000E+00 0.  1.
          6    2    1    2  501    0 -0.19849838354E+03  0.39049711277E+02  0.31062370336E+03  0.40832591970E+03  0.17122056942E+03 0.  0.
         24    2    3    3    0    0 -0.37207700611E+02 -0.19780680969E+02  0.14573488686E+03  0.17023746711E+03  0.77242796659E+02 0.  0.
         -6    2    1    2    0  502  0.19849838354E+03 -0.39049711277E+02  0.15789863282E+04  0.16004083247E+04  0.16487113968E+03 0.  0.
        -24    2    5    5    0    0  0.18908113616E+03  0.11558081850E+02  0.11188905553E+04  0.11374179970E+04  0.76930876608E+02 0.  0.
          5    1    3    3  501    0 -0.16129068292E+03  0.58830392246E+02  0.16488881650E+03  0.23808845259E+03  0.47000000000E+01 0. -1.
        -11    1    4    4    0    0  0.26364678770E+01  0.96029459628E+01 -0.53104403178E+01  0.11285756971E+02  0.00000000000E+00 0.  1.
         12    1    4    4    0    0 -0.39844168488E+02 -0.29383626932E+02  0.15104532718E+03  0.15895171014E+03  0.00000000000E+00 0. -1.
         -5    1    5    5    0  502  0.94172473726E+01 -0.50607793127E+02  0.46009577289E+03  0.46299032765E+03  0.47000000000E+01 0.  1.
         11    1    6    6    0    0  0.67969090604E+02  0.86309742821E+01  0.22059716291E+03  0.23099220610E+03  0.00000000000E+00 0. -1.
        -12    1    6    6    0    0  0.12111204556E+03  0.29271075684E+01  0.89829339243E+03  0.90642579090E+03  0.00000000000E+00 0.  1.
</event>
<event>
12    1  0.8562501E-002  0.1862842E+03  0.7818608E-02  0.1162234E+00
         21   -1    0    0  503  502  0.00000000000E+00  0.00000000000E+00  0.22704596745E+03  0.22704596745E+03  0.00000000000E+00 0.  1.
         21   -1    0    0  501  503 -0.00000000000E+00 -0.00000000000E+00 -0.27770146431E+03  0.27770146431E+03  0.00000000000E+00 0.  1.
          6    2    1    2  501    0 -0.19575312351E+02  0.68126953134E+02 -0.19551348863E+03  0.27005060118E+03  0.17227108975E+03 0.  0.
         24    2    3    3    0    0 -0.58278313808E+02  0.95688272897E+02 -0.13521134040E+03  0.19313514272E+03  0.80414360341E+02 0.  0.
         -6    2    1    2    0  502  0.19575312351E+02 -0.68126953134E+02  0.14485799177E+03  0.23469683058E+03  0.17051184682E+03 0.  0.
        -24    2    5    5    0    0  0.40320384613E+02 -0.55455329232E+02  0.16886636944E+03  0.20020885770E+03  0.82865608170E+02 0.  0.
          5    1    3    3  501    0  0.38703001456E+02 -0.27561319763E+02 -0.60302148234E+02  0.76915458462E+02  0.47000000000E+01 0. -1.
        -11    1    4    4    0    0 -0.18411484830E+02  0.16394048789E+02  0.68878984958E+01  0.25596694221E+02  0.00000000000E+00 0.  1.
         12    1    4    4    0    0 -0.39866828978E+02  0.79294224109E+02 -0.14209923889E+03  0.16753844850E+03  0.00000000000E+00 0. -1.
         -5    1    5    5    0  502 -0.20745072262E+02 -0.12671623902E+02 -0.24008377665E+02  0.34487972883E+02  0.47000000000E+01 0.  1.
         11    1    6    6    0    0  0.15890553316E+02  0.17809097429E+02  0.15398268244E+02  0.28403878271E+02  0.00000000000E+00 0. -1.
        -12    1    6    6    0    0  0.24429831297E+02 -0.73264426661E+02  0.15346810120E+03  0.17180497943E+03  0.00000000000E+00 0.  1.
</event>
<event>
12    1  0.8562501E-002  0.2005856E+03  0.7818608E-02  0.1149728E+00
         21   -1    0    0  501  502  0.00000000000E+00  0.00000000000E+00  0.38552848892E+03  0.38552848892E+03  0.00000000000E+00 0. -1.
         21   -1    0    0  502  503 -0.00000000000E+00 -0.00000000000E+00 -0.22356725696E+03  0.22356725696E+03  0.00000000000E+00 0. -1.
         -6    2    1    2    0  503  0.76700701744E+02 -0.62705207922E+02 -0.14271504388E+03  0.24431879446E+03  0.17178227157E+03 0.  0.
        -24    2    3    3    0    0 -0.20311706640E+02 -0.78767589167E+01 -0.86006861942E+02  0.11919695744E+03  0.79599783942E+02 0.  0.
          6    2    1    2  501    0 -0.76700701744E+02  0.62705207922E+02  0.30467627585E+03  0.36477695142E+03  0.17441230023E+03 0.  0.
         24    2    5    5    0    0  0.58321019659E+01 -0.34717179143E+01  0.20096072048E+03  0.21655395851E+03  0.80401116478E+02 0.  0.
          5    1    5    5  501    0 -0.82532803710E+02  0.66176925836E+02  0.10371555536E+03  0.14822299291E+03  0.47000000000E+01 0. -1.
        -11    1    6    6    0    0  0.42768537415E+02 -0.16980197709E+01  0.12378765508E+03  0.13097868000E+03  0.00000000000E+00 0.  1.
         12    1    6    6    0    0 -0.36936435449E+02 -0.17736981434E+01  0.77173065399E+02  0.85575278509E+02  0.00000000000E+00 0. -1.
         -5    1    3    3    0  503  0.97012408384E+02 -0.54828449005E+02 -0.56708181941E+02  0.12512183702E+03  0.47000000000E+01 0.  1.
         13    1    4    4    0    0 -0.57560613728E+01 -0.17970239466E+02  0.10147275512E+02  0.21424960894E+02  0.00000000000E+00 0. -1.
        -14    1    4    4    0    0 -0.14555645267E+02  0.10093480549E+02 -0.96154137454E+02  0.97771996544E+02  0.00000000000E+00 0.  1.
</event>
<event>
12    1  0.8562501E-002  0.1912765E+03  0.7818608E-02  0.1159258E+00
         21   -1    0    0  503  502  0.00000000000E+00  0.00000000000E+00  0.44403751147E+02  0.44403751147E+02  0.00000000000E+00 0. -1.
         21   -1    0    0  501  503 -0.00000000000E+00 -0.00000000000E+00 -0.87692991391E+03  0.87692991391E+03  0.00000000000E+00 0.  1.
          6    2    1    2  501    0 -0.38423640247E+02  0.73009090005E+02 -0.55459815402E+03  0.58394565488E+03  0.16311564014E+03 0.  0.
         24    2    3    3    0    0 -0.18491224369E+01 -0.28003898911E+02 -0.22248162433E+03  0.23485426488E+03  0.69791224075E+02 0.  0.
         -6    2    1    2    0  502  0.38423640247E+02 -0.73009090005E+02 -0.27792800874E+03  0.33738801017E+03  0.17256879212E+03 0.  0.
        -24    2    5    5    0    0 -0.33485008910E+02 -0.28535783311E+02 -0.20921695329E+03  0.22833743487E+03  0.80191731929E+02 0.  0.
          5    1    3    3  501    0 -0.36574517811E+02  0.10101298892E+03 -0.33211652969E+03  0.34909139000E+03  0.47000000000E+01 0. -1.
        -13    1    4    4    0    0 -0.26714570128E+02  0.11048727038E+02 -0.87935184966E+02  0.92565324941E+02  0.00000000000E+00 0.  1.
         14    1    4    4    0    0  0.24865447691E+02 -0.39052625949E+02 -0.13454643937E+03  0.14228893994E+03  0.00000000000E+00 0. -1.
         -5    1    5    5    0  502  0.71908649157E+02 -0.44473306694E+02 -0.68711055449E+02  0.10905057530E+03  0.47000000000E+01 0.  1.
         13    1    6    6    0    0 -0.40639871802E+02  0.11069496156E+02 -0.56903598339E+02  0.70796556619E+02  0.00000000000E+00 0. -1.
        -14    1    6    6    0    0  0.71548628921E+01 -0.39605279467E+02 -0.15231335495E+03  0.15754087825E+03  0.00000000000E+00 0.  1.
</event>
<event>
12    1  0.8562501E-002  0.1933949E+03  0.7818608E-02  0.1155655E+00
         21   -1    0    0  501  502  0.00000000000E+00  0.00000000000E+00  0.99933501643E+03  0.99933501643E+03  0.00000000000E+00 0.  1.
         21   -1    0    0  502  503 -0.00000000000E+00 -0.00000000000E+00 -0.39050039579E+02  0.39050039579E+02  0.00000000000E+00 0. -1.
         -6    2    1    2    0  503 -0.65928132293E+01  0.86602319905E+02  0.36936012749E+03  0.41692745987E+03  0.17279518516E+03 0.  0.
        -24    2    3    3    0    0 -0.26697478724E+02  0.75007621014E+02  0.11445313040E+03  0.16092296424E+03  0.80360330893E+02 0.  0.
          6    2    1    2  501    0  0.65928132293E+01 -0.86602319905E+02  0.59092484936E+03  0.62145759614E+03  0.17167975771E+03 0.  0.
         24    2    5    5    0    0 -0.19832818446E+02 -0.74244353275E+02  0.57866302534E+03  0.58946578974E+03  0.81935680199E+02 0.  0.
          5    1    5    5  501    0  0.26425631675E+02 -0.12357966630E+02  0.12261824017E+02  0.31991806402E+02  0.47000000000E+01 0. -1.
        -11    1    6    6    0    0 -0.42223647797E+02 -0.69571842674E+02  0.33550143785E+03  0.34523078154E+03  0.00000000000E+00 0.  1.
         12    1    6    6    0    0  0.22390829351E+02 -0.46725106008E+01  0.24316158750E+03  0.24423500819E+03  0.00000000000E+00 0. -1.
         -5    1    3    3    0  503  0.20104665495E+02  0.11594698891E+02  0.25490699710E+03  0.25600449563E+03  0.47000000000E+01 0.  1.
         13    1    4    4    0    0 -0.59994900286E+01  0.84314023654E+02  0.65397277136E+02  0.10687213071E+03  0.00000000000E+00 0. -1.
        -14    1    4    4    0    0 -0.20697988695E+02 -0.93064026403E+01  0.49055853260E+02  0.54050833530E+02  0.00000000000E+00 0.  1.
</event>
<event>
12    1  0.8562501E-002  0.2333454E+03  0.7818608E-02  0.1124644E+00
         21   -1    0    0  503  502  0.00000000000E+00  0.00000000000E+00  0.76542398119E+03  0.76542398119E+03  0.00000000000E+00 0.  1.
         21   -1    0    0  501  503 -0.00000000000E+00 -0.00000000000E+00 -0.93244726503E+02  0.93244726503E+02  0.00000000000E+00 0.  1.
          6    2    1    2  501    0 -0.92178462903E+02  0.12577880692E+03  0.12320397311E+03  0.26215890835E+03  0.17097045634E+03 0.  0.
         24    2    3    3    0    0 -0.65710502673E+02  0.11668081402E+03  0.22704201417E+02  0.15772892940E+03  0.80191345439E+02 0.  0.
         -6    2    1    2    0  502  0.92178462903E+02 -0.12577880692E+03  0.54897528157E+03  0.59650979934E+03  0.17358831653E+03 0.  0.
        -24    2    5    5    0    0  0.15987006667E+02 -0.70306537313E+02  0.13155975720E+03  0.16856106329E+03  0.76852252876E+02 0.  0.
          5    1    3    3  501    0 -0.26467960230E+02  0.90979928973E+01  0.10049977169E+03  0.10442997895E+03  0.47000000000E+01 0. -1.
        -11    1    4    4    0    0 -0.82734224593E+02  0.10916098460E+03  0.24063356427E+02  0.13906875134E+03  0.00000000000E+00 0.  1.
         12    1    4    4    0    0  0.17023721920E+02  0.75198294261E+01 -0.13591550103E+01  0.18660178053E+02  0.00000000000E+00 0. -1.
         -5    1    5    5    0  502  0.76191456236E+02 -0.55472269609E+02  0.41741552437E+03  0.42794873605E+03  0.47000000000E+01 0.  1.
         13    1    6    6    0    0 -0.10892740280E+02 -0.21159893866E+01  0.75427481216E+02  0.76239321380E+02  0.00000000000E+00 0. -1.
        -14    1    6    6    0    0  0.26879746948E+02 -0.68190547927E+02  0.56132275988E+02  0.92321741914E+02  0.00000000000E+00 0.  1.
</event>
<event>
12    1  0.8562501E-002  0.1769493E+03  0.7818608E-02  0.1171048E+00
         21   -1    0    0  503  502  0.00000000000E+00  0.00000000000E+00  0.17767206575E+03  0.17767206575E+03  0.00000000000E+00 0.  1.
         21   -1    0    0  501  503 -0.00000000000E+00 -0.00000000000E+00 -0.23271213567E+03  0.23271213567E+03  0.00000000000E+00 0.  1.
          6    2    1    2  501    0 -0.30907471553E+02 -0.80094602603E+01 -0.12947352825E+03  0.21841703676E+03  0.17298319045E+03 0.  0.
         24    2    3    3    0    0 -0.31211644921E+02 -0.10677807361E+02 -0.16366758629E+03  0.18379715514E+03  0.76851370099E+02 0.  0.
         -6    2    1    2    0  502  0.30907471553E+02  0.80094602603E+01  0.74433458322E+02  0.19196716467E+03  0.17404490611E+03 0.  0.
        -24    2    5    5    0    0  0.26196238295E+02 -0.17738990441E+02  0.11687638946E+03  0.14188053136E+03  0.73953229014E+02 0.  0.
          5    1    3    3  501    0  0.30417336805E+00  0.26683471005E+01  0.34194058045E+02  0.34619881618E+02  0.47000000000E+01 0. -1.
        -11    1    4    4    0    0 -0.13931190802E+02  0.13467860397E+02 -0.20616983052E+01  0.19486198725E+02  0.00000000000E+00 0.  1.
         12    1    4    4    0    0 -0.17280454118E+02 -0.24145667758E+02 -0.16160588798E+03  0.16431095641E+03  0.00000000000E+00 0. -1.
         -5    1    5    5    0  502  0.47112332582E+01  0.25748450701E+02 -0.42442931143E+02  0.50086633310E+02  0.47000000000E+01 0.  1.
         13    1    6    6    0    0  0.24920329661E+01  0.20982191003E+02  0.58413746860E+01  0.21922231314E+02  0.00000000000E+00 0. -1.
        -14    1    6    6    0    0  0.23704205329E+02 -0.38721181443E+02  0.11103501478E+03  0.11995830004E+03  0.00000000000E+00 0.  1.
</event>
<event>
12    1  0.8562501E-002  0.1899041E+03  0.7818608E-02  0.1158592E+00
         21   -1    0    0  503  502  0.00000000000E+00  0.00000000000E+00  0.30083211899E+03  0.30083211899E+03  0.00000000000E+00 0.  1.
         21   -1    0    0  501  503 -0.00000000000E+00 -0.00000000000E+00 -0.49755881241E+03  0.49755881241E+03  0.00000000000E+00 0.  1.
          6    2    1    2  501    0 -0.47403882633E+02  0.66152383389E+02 -0.44620481475E+03  0.48485801540E+03  0.17136304290E+03 0.  0.
         24    2    3    3    0    0  0.25147639569E+02 -0.77389436627E+01 -0.20236073299E+03  0.21989447489E+03  0.81923249486E+02 0.  0.
         -6    2    1    2    0  502  0.47403882633E+02 -0.66152383389E+02  0.24947812133E+03  0.31353291601E+03  0.17158173119E+03 0.  0.
        -24    2    5    5    0    0  0.16296455014E+01 -0.97891455604E+02  0.12946218687E+03  0.18113743265E+03  0.80404719084E+02 0.  0.
          5    1    3    3  501    0 -0.72551522202E+02  0.73891327052E+02 -0.24384408176E+03  0.26496354051E+03  0.47000000000E+01 0. -1.
        -11    1    4    4    0    0  0.18569362317E+02 -0.35064280406E+02 -0.17900832901E+03  0.18335295698E+03  0.00000000000E+00 0.  1.
         12    1    4    4    0    0  0.65782772524E+01  0.27325336744E+02 -0.23352403978E+02  0.36541517912E+02  0.00000000000E+00 0. -1.
         -5    1    5    5    0  502  0.45774237131E+02  0.31739072215E+02  0.12001593446E+03  0.13239548336E+03  0.47000000000E+01 0.  1.
         11    1    6    6    0    0 -0.18523791766E+02 -0.59340333711E+02  0.23263643119E+02  0.66374717759E+02  0.00000000000E+00 0. -1.
        -12    1    6    6    0    0  0.20153437268E+02 -0.38551121893E+02  0.10619854375E+03  0.11476271489E+03  0.00000000000E+00 0.  1.
</event>
<event>
12    1  0.8562501E-002  0.2531531E+03  0.7818608E-02  0.1111436E+00
         21   -1    0    0  503  502  0.00000000000E+00  0.00000000000E+00  0.90307352630E+03  0.90307352630E+03  0.00000000000E+00 0.  1.
         21   -1    0    0  501  503 -0.00000000000E+00 -0.00000000000E+00 -0.10868581881E+03  0.10868581881E+03  0.00000000000E+00 0.  1.
          6    2    1    2  501    0  0.13883867283E+03  0.12201634019E+03  0.98046943428E+02  0.27082954617E+03  0.17196300654E+03 0.  0.
         24    2    3    3    0    0  0.61513982453E+02 -0.22203447461E+00 -0.89339319698E+01  0.90861977751E+02  0.66272652910E+02 0.  0.
         -6    2    1    2    0  502 -0.13883867283E+03 -0.12201634019E+03  0.69634076406E+03  0.74092979894E+03  0.17298075881E+03 0.  0.
        -24    2    5    5    0    0 -0.71527611029E+02 -0.25389342696E+02  0.17949520662E+03  0.21081756938E+03  0.80403361231E+02 0.  0.
          5    1    3    3  501    0  0.77324690378E+02  0.12223837466E+03  0.10698087540E+03  0.17996756842E+03  0.47000000000E+01 0. -1.
        -13    1    4    4    0    0  0.31920315679E+02  0.25716647886E+02 -0.25379320058E+02  0.48211641936E+02  0.00000000000E+00 0.  1.
         14    1    4    4    0    0  0.29593666773E+02 -0.25938682361E+02  0.16445388088E+02  0.42650335814E+02  0.00000000000E+00 0. -1.
         -5    1    5    5    0  502 -0.67311061802E+02 -0.96626997492E+02  0.51684555744E+03  0.53011222956E+03  0.47000000000E+01 0.  1.
         13    1    6    6    0    0 -0.39181526885E+02 -0.33912800672E+02  0.16741734510E+03  0.17525363773E+03  0.00000000000E+00 0. -1.
        -14    1    6    6    0    0 -0.32346084144E+02  0.85234579755E+01  0.12077861522E+02  0.35563931648E+02  0.00000000000E+00 0.  1.
</event>
<event>
12    1  0.8562501E-002  0.2060492E+03  0.7818608E-02  0.1145008E+00
         21   -1    0    0  503  502  0.00000000000E+00  0.00000000000E+00  0.38238124415E+03  0.38238124415E+03  0.00000000000E+00 0.  1.
         21   -1    0    0  501  503 -0.00000000000E+00 -0.00000000000E+00 -0.13541976754E+03  0.13541976754E+03  0.00000000000E+00 0.  1.
          6    2    1    2  501    0 -0.11656131056E+02 -0.11227634278E+03  0.11660064820E+02  0.20503429811E+03  0.17076669392E+03 0.  0.
         24    2    3    3    0    0  0.20823425235E+02 -0.10562457506E+03  0.58146105655E+02  0.14774372661E+03  0.82807446856E+02 0.  0.
         -6    2    1    2    0  502  0.11656131056E+02  0.11227634278E+03  0.23530141180E+03  0.31276671358E+03  0.17237871153E+03 0.  0.
        -24    2    5    5    0    0  0.33938488308E+02  0.13744351513E+03  0.21357992959E+03  0.27247027703E+03  0.92634360267E+02 0.  0.
          5    1    3    3  501    0 -0.32479556291E+02 -0.66517677158E+01 -0.46486040835E+02  0.57290571503E+02  0.47000000000E+01 0. -1.
        -11    1    4    4    0    0  0.38057647763E+02 -0.12503518290E+02  0.90379323833E+01  0.41065882977E+02  0.00000000000E+00 0.  1.
         12    1    4    4    0    0 -0.17234222529E+02 -0.93121056772E+02  0.49108173272E+02  0.10667784364E+03  0.00000000000E+00 0. -1.
         -5    1    5    5    0  502 -0.22282357252E+02 -0.25167172352E+02  0.21721482209E+02  0.40296436545E+02  0.47000000000E+01 0.  1.
         13    1    6    6    0    0 -0.17752870971E+02 -0.35785207957E+00  0.46698703816E+02  0.49960598714E+02  0.00000000000E+00 0. -1.
        -14    1    6    6    0    0  0.51691359279E+02  0.13780136721E+03  0.16688122577E+03  0.22250967832E+03  0.00000000000E+00 0.  1.
</event>
<event>
12    1  0.8562501E-002  0.1890943E+03  0.7818608E-02  0.1159697E+00
         21   -1    0    0  503  502  0.00000000000E+00  0.00000000000E+00  0.62904418018E+02  0.62904418018E+02  0.00000000000E+00 0.  1.
         21   -1    0    0  501  503 -0.00000000000E+00 -0.00000000000E+00 -0.56589074690E+03  0.56589074690E+03  0.00000000000E+00 0. -1.
          6    2    1    2  501    0 -0.37340595453E+02  0.65666527377E+02 -0.23004613745E+03  0.29778833983E+03  0.17335009978E+03 0.  0.
         24    2    3    3    0    0 -0.39622278885E+02  0.79180383033E+02 -0.69158006981E+02  0.13624914675E+03  0.77081398657E+02 0.  0.
         -6    2    1    2    0  502  0.37340595453E+02 -0.65666527377E+02 -0.27294019143E+03  0.33100682509E+03  0.17135564558E+03 0.  0.
        -24    2    5    5    0    0 -0.32563020327E+01 -0.94824915163E+02 -0.24219876698E+03  0.27213879607E+03  0.79980707431E+02 0.  0.
          5    1    3    3  501    0  0.22816834327E+01 -0.13513855656E+02 -0.16088813047E+03  0.16153919308E+03  0.47000000000E+01 0. -1.
        -13    1    4    4    0    0  0.22735641172E+02  0.14444491426E+02 -0.10458736817E+02  0.28895291794E+02  0.00000000000E+00 0.  1.
         14    1    4    4    0    0 -0.62357920057E+02  0.64735891606E+02 -0.58699270164E+02  0.10735385496E+03  0.00000000000E+00 0. -1.
         -5    1    5    5    0  502  0.40596897485E+02  0.29158387786E+02 -0.30741424453E+02  0.58868029023E+02  0.47000000000E+01 0.  1.
         11    1    6    6    0    0  0.35113188835E+02 -0.43467999505E+02 -0.14797958035E+03  0.15817825139E+03  0.00000000000E+00 0. -1.
        -12    1    6    6    0    0 -0.38369490867E+02 -0.51356915658E+02 -0.94219186628E+02  0.11396054468E+03  0.00000000000E+00 0.  1.
</event>
<event>
12    1  0.8562501E-002  0.1737003E+03  0.7818608E-02  0.1174185E+00
         21   -1    0    0  501  502  0.00000000000E+00  0.00000000000E+00  0.43655761742E+02  0.43655761742E+02  0.00000000000E+00 0. -1.
         21   -1    0    0  502  503 -0.00000000000E+00 -0.00000000000E+00 -0.10515643656E+04  0.10515643656E+04  0.00000000000E+00 0. -1.
         -6    2    1    2    0  503 -0.22784408367E+02  0.60670310471E+01 -0.82607411412E+03  0.84413874737E+03  0.17209254680E+03 0.  0.
        -24    2    3    3    0    0  0.26424055517E+02  0.59028147701E+02 -0.54375624102E+03  0.55267378504E+03  0.74799131627E+02 0.  0.
          6    2    1    2  501    0  0.22784408367E+02 -0.60670310471E+01 -0.18183448976E+03  0.25108137999E+03  0.17152883018E+03 0.  0.
         24    2    5    5    0    0 -0.32002215145E+02 -0.40524984663E+02 -0.15318596796E+03  0.18014653323E+03  0.79501047164E+02 0.  0.
          5    1    5    5  501    0  0.54786623512E+02  0.34457953616E+02 -0.28648521798E+02  0.70934846757E+02  0.47000000000E+01 0. -1.
        -13    1    6    6    0    0  0.11580443628E+02 -0.48106894053E+02 -0.67241229066E+02  0.83485105356E+02  0.00000000000E+00 0.  1.
         14    1    6    6    0    0 -0.43582658773E+02  0.75819093900E+01 -0.85944738894E+02  0.96661427877E+02  0.00000000000E+00 0. -1.
         -5    1    3    3    0  503 -0.49208463883E+02 -0.52961116654E+02 -0.28231787311E+03  0.29146496234E+03  0.47000000000E+01 0.  1.
         13    1    4    4    0    0 -0.19034567185E+01  0.47292502300E+02 -0.47546269446E+03  0.47781270154E+03  0.00000000000E+00 0. -1.
        -14    1    4    4    0    0  0.28327512235E+02  0.11735645401E+02 -0.68293546552E+02  0.74861083501E+02  0.00000000000E+00 0.  1.
</event>
<event>
12    1  0.8562501E-002  0.1808476E+03  0.7818608E-02  0.1167026E+00
         21   -1    0    0  503  502  0.00000000000E+00  0.00000000000E+00  0.68931041510E+02  0.68931041510E+02  0.00000000000E+00 0.  1.
         21   -1    0    0  501  503 -0.00000000000E+00 -0.00000000000E+00 -0.99074170549E+03  0.99074170549E+03  0.00000000000E+00 0.  1.
          6    2    1    2  501    0 -0.51241579187E+02 -0.20640817143E+02 -0.84364684990E+03  0.86281275301E+03  0.17220364874E+03 0.  0.
         24    2    3    3    0    0  0.24591034965E+01  0.46323955978E+02 -0.46887904407E+03  0.47831172252E+03  0.82356480294E+02 0.  0.
         -6    2    1    2    0  502  0.51241579187E+02  0.20640817143E+02 -0.78163814073E+02  0.19685999398E+03  0.17202480237E+03 0.  0.
        -24    2    5    5    0    0  0.11108358546E+02  0.76464692715E+02 -0.49736932507E+02  0.12231364546E+03  0.80725587939E+02 0.  0.
          5    1    3    3  501    0 -0.53700682683E+02 -0.66964773121E+02 -0.37476780584E+03  0.38450103050E+03  0.47000000000E+01 0. -1.
        -11    1    4    4    0    0 -0.26669704446E+01  0.26571188033E+02 -0.35352191737E+02  0.44304832980E+02  0.00000000000E+00 0.  1.
         12    1    4    4    0    0  0.51260739411E+01  0.19752767946E+02 -0.43352685233E+03  0.43400688954E+03  0.00000000000E+00 0. -1.
         -5    1    5    5    0  502  0.40133220641E+02 -0.55823875573E+02 -0.28426881566E+02  0.74546348526E+02  0.47000000000E+01 0.  1.
         13    1    6    6    0    0  0.14791602552E+02  0.64209996735E+02 -0.71397193007E+02  0.97155928054E+02  0.00000000000E+00 0. -1.
        -14    1    6    6    0    0 -0.36832440067E+01  0.12254695980E+02  0.21660260500E+02  0.25157717403E+02  0.00000000000E+00 0.  1.
</event>
<event>
12    1  0.8562501E-002  0.1800613E+03  0.7818608E-02  0.1168120E+00
         21   -1    0    0  503  502  0.00000000000E+00  0.00000000000E+00  0.20715454436E+03  0.20715454436E+03  0.00000000000E+00 0.  1.
         21   -1    0    0  501  503 -0.00000000000E+00 -0.00000000000E+00 -0.34485033078E+03  0.34485033078E+03  0.00000000000E+00 0. -1.
          6    2    1    2  501    0  0.51047318757E+02  0.83960454743E+01 -0.27367843260E+03  0.32760032166E+03  0.17246960298E+03 0.  0.
         24    2    3    3    0    0  0.62752033078E+02 -0.49817553818E+02 -0.90992018899E+02  0.13544871685E+03  0.60392061317E+02 0.  0.
         -6    2    1    2    0  502 -0.51047318757E+02 -0.83960454743E+01  0.13598264618E+03  0.22440455347E+03  0.17085023039E+03 0.  0.
        -24    2    5    5    0    0 -0.35383417695E+02 -0.70560309855E+02  0.89531079713E+02  0.14509760806E+03  0.82503079073E+02 0.  0.
          5    1    3    3  501    0 -0.11704714321E+02  0.58213599292E+02 -0.18268641370E+03  0.19215160481E+03  0.47000000000E+01 0. -1.
        -11    1    4    4    0    0  0.20850831806E+02 -0.20156106200E+02  0.21665725379E+01  0.29081262708E+02  0.00000000000E+00 0.  1.
         12    1    4    4    0    0  0.41901201273E+02 -0.29661447617E+02 -0.93158591437E+02  0.10636745414E+03  0.00000000000E+00 0. -1.
         -5    1    5    5    0  502 -0.15663901063E+02  0.62164264380E+02  0.46451566470E+02  0.79306945408E+02  0.47000000000E+01 0.  1.
         13    1    6    6    0    0 -0.50744372066E+02 -0.28447972424E+02  0.18390878095E+02  0.61012317023E+02  0.00000000000E+00 0. -1.
        -14    1    6    6    0    0  0.15360954371E+02 -0.42112337430E+02  0.71140201618E+02  0.84085291040E+02  0.00000000000E+00 0.  1.
</event>
<event>
12    1  0.8562501E-002  0.2242685E+03  0.7818608E-02  0.1130749E+00
         21   -1    0    0  503  502  0.00000000000E+00  0.00000000000E+00  0.60869247604E+03  0.60869247604E+03  0.00000000000E+00 0. -1.
         21   -1    0    0  501  503 -0.00000000000E+00 -0.00000000000E+00 -0.25640730435E+03  0.25640730435E+03  0.00000000000E+00 0. -1.
          6    2    1    2  501    0  0.46084162921E+02 -0.14152062366E+03 -0.17997931531E+03  0.28751700698E+03  0.16769507557E+03 0.  0.
         24    2    3    3    0    0 -0.35117754908E+02 -0.65182145300E+02 -0.59865526557E+02  0.12359407696E+03  0.78801305923E+02 0.  0.
         -6    2    1    2    0  502 -0.46084162921E+02  0.14152062366E+03  0.53226448700E+03  0.57758277341E+03  0.16776334232E+03 0.  0.
        -24    2    5    5    0    0 -0.95096601644E+02  0.11373765693E+03  0.40738412694E+03  0.44050138620E+03  0.78102663959E+02 0.  0.
          5    1    3    3  501    0  0.81201917829E+02 -0.76338478358E+02 -0.12011378875E+03  0.16392293002E+03  0.47000000000E+01 0. -1.
        -13    1    4    4    0    0 -0.21705003219E+02 -0.39093550578E+02  0.11725126929E+02  0.46226523372E+02  0.00000000000E+00 0.  1.
         14    1    4    4    0    0 -0.13412751689E+02 -0.26088594723E+02 -0.71590653486E+02  0.77367553593E+02  0.00000000000E+00 0. -1.
         -5    1    5    5    0  502  0.49012438723E+02  0.27782966726E+02  0.12488036006E+03  0.13708138721E+03  0.47000000000E+01 0.  1.
         11    1    6    6    0    0  0.30045566533E+00  0.29819611583E+02  0.15609716734E+03  0.15892018488E+03  0.00000000000E+00 0. -1.
        -12    1    6    6    0    0 -0.95397057309E+02  0.83918045349E+02  0.25128695960E+03  0.28158120133E+03  0.00000000000E+00 0.  1.
</event>
<event>
12    1  0.8562501E-002  0.2422531E+03  0.7818608E-02  0.1118556E+00
         21   -1    0    0  503  502  0.00000000000E+00  0.00000000000E+00  0.51224054582E+03  0.51224054582E+03  0.00000000000E+00 0. -1.
         21   -1    0    0  501  503 -0.00000000000E+00 -0.00000000000E+00 -0.11455245420E+03  0.11455245420E+03  0.00000000000E+00 0. -1.
          6    2    1    2  501    0  0.33745932198E+01 -0.16841076627E+03  0.17348067454E+03  0.29670887278E+03  0.17195068093E+03 0.  0.
         24    2    3    3    0    0  0.31162617613E+02 -0.19178388145E+02  0.79812851586E+02  0.11827617388E+03  0.79247982439E+02 0.  0.
         -6    2    1    2    0  502 -0.33745932198E+01  0.16841076627E+03  0.22420741708E+03  0.33008412724E+03  0.17410626383E+03 0.  0.
        -24    2    5    5    0    0  0.46954569455E+00  0.13642942100E+03  0.72548051346E+02  0.17497050094E+03  0.82086838510E+02 0.  0.
          5    1    3    3  501    0 -0.27788024393E+02 -0.14923237813E+03  0.93667822951E+02  0.17843269890E+03  0.47000000000E+01 0. -1.
        -13    1    4    4    0    0 -0.26844119893E+01  0.23678564695E+02  0.29847418492E+01  0.24016435573E+02  0.00000000000E+00 0.  1.
         14    1    4    4    0    0  0.33847029602E+02 -0.42856952840E+02  0.76828109737E+02  0.94259738305E+02  0.00000000000E+00 0. -1.
         -5    1    5    5    0  502 -0.38441389144E+01  0.31981345271E+02  0.15165936573E+03  0.15511362630E+03  0.47000000000E+01 0.  1.
         13    1    6    6    0    0 -0.17230668050E+02  0.10234065356E+03  0.85469316868E+02  0.13444519113E+03  0.00000000000E+00 0. -1.
        -14    1    6    6    0    0  0.17700213745E+02  0.34088767437E+02 -0.12921265522E+02  0.40525309803E+02  0.00000000000E+00 0.  1.
</event>
<event>
12    1  0.8562501E-002  0.2247350E+03  0.7818608E-02  0.1130889E+00
         21   -1    0    0  503  502  0.00000000000E+00  0.00000000000E+00  0.20927479124E+04  0.20927479124E+04  0.00000000000E+00 0. -1.
         21   -1    0    0  501  503 -0.00000000000E+00 -0.00000000000E+00 -0.75093745103E+02  0.75093745103E+02  0.00000000000E+00 0. -1.
          6    2    1    2  501    0  0.85898245532E+01  0.14335139411E+03  0.11150134471E+03  0.24848644821E+03  0.16937992145E+03 0.  0.
         24    2    3    3    0    0 -0.58717640124E+02  0.87919317512E+02  0.51435509448E+02  0.14250057894E+03  0.80518542670E+02 0.  0.
         -6    2    1    2    0  502 -0.85898245532E+01 -0.14335139411E+03  0.19061528226E+04  0.19193552093E+04  0.17286534966E+03 0.  0.
        -24    2    5    5    0    0 -0.10445414053E+02 -0.48382020879E+02  0.40372467412E+03  0.41392003754E+03  0.76721954884E+02 0.  0.
          5    1    3    3  501    0  0.67307464677E+02  0.55432076601E+02  0.60065835261E+02  0.10598586926E+03  0.47000000000E+01 0. -1.
        -13    1    4    4    0    0 -0.66386720236E+02  0.94800772032E+02  0.58820193453E+02  0.12982371956E+03  0.00000000000E+00 0.  1.
         14    1    4    4    0    0  0.76690801129E+01 -0.68814545198E+01 -0.73846840048E+01  0.12676859388E+02  0.00000000000E+00 0. -1.
         -5    1    5    5    0  502  0.18555894994E+01 -0.94969373234E+02  0.15024281485E+04  0.15054351718E+04  0.47000000000E+01 0.  1.
         11    1    6    6    0    0  0.26248523323E+02 -0.44646785367E+02  0.28250911804E+03  0.28721720387E+03  0.00000000000E+00 0. -1.
        -12    1    6    6    0    0 -0.36693937376E+02 -0.37352355124E+01  0.12121555608E+03  0.12670283367E+03  0.00000000000E+00 0.  1.
</event>
<event>
12    1  0.8562501E-002  0.2313831E+03  0.7818608E-02  0.1126259E+00
         21   -1    0    0  501  502  0.00000000000E+00  0.00000000000E+00  0.15000764313E+03  0.15000764313E+03  0.00000000000E+00 0.  1.
         21   -1    0    0  502  503 -0.00000000000E+00 -0.00000000000E+00 -0.35898400612E+03  0.35898400612E+03  0.00000000000E+00 0.  1.
         -6    2    1    2    0  503  0.89677496058E+02  0.11940052453E+03 -0.14133089298E+03  0.27113200857E+03  0.17674729476E+03 0.  0.
        -24    2    3    3    0    0  0.91610147321E+01  0.99340899488E+02 -0.28601496336E+02  0.13107737927E+03  0.80066817475E+02 0.  0.
          6    2    1    2  501    0 -0.89677496058E+02 -0.11940052453E+03 -0.67645470006E+02  0.23785964067E+03  0.17234488821E+03 0.  0.
         24    2    5    5    0    0 -0.10087038056E+03 -0.85648350159E+02 -0.10364875315E+03  0.18703822457E+03  0.82035113588E+02 0.  0.
          5    1    5    5  501    0  0.11192884503E+02 -0.33752174368E+02  0.36003283140E+02  0.50821416105E+02  0.47000000000E+01 0. -1.
        -11    1    6    6    0    0 -0.35869761275E+02 -0.46973325289E+02 -0.46844045379E+00  0.59104589493E+02  0.00000000000E+00 0.  1.
         12    1    6    6    0    0 -0.65000619286E+02 -0.38675024870E+02 -0.10318031269E+03  0.12793363508E+03  0.00000000000E+00 0. -1.
         -5    1    3    3    0  503  0.80516481326E+02  0.20059625039E+02 -0.11272939665E+03  0.14005462931E+03  0.47000000000E+01 0.  1.
         13    1    4    4    0    0  0.12155695018E+02  0.34580101503E+02  0.27116107294E+02  0.45594162084E+02  0.00000000000E+00 0. -1.
        -14    1    4    4    0    0 -0.29946802859E+01  0.64760797984E+02 -0.55717603630E+02  0.85483217182E+02  0.00000000000E+00 0.  1.
</event>
<event>
12    1  0.8562501E-002  0.2150752E+03  0.7818608E-02  0.1137751E+00
         21   -1    0    0  501  502  0.00000000000E+00  0.00000000000E+00  0.29145287124E+03  0.29145287124E+03  0.00000000000E+00 0.  1.
         21   -1    0    0  502  503 -0.00000000000E+00 -0.00000000000E+00 -0.32651367256E+03  0.32651367256E+03  0.00000000000E+00 0.  1.
         -6    2    1    2    0  503 -0.12197567353E+03 -0.38620210164E+02 -0.23940921663E+03  0.32182934877E+03  0.17288080043E+03 0.  0.
        -24    2    3    3    0    0  0.12896342573E+02 -0.34669114831E+02 -0.91430243424E+02  0.12151475022E+03  0.70979447257E+02 0.  0.
          6    2    1    2  501    0  0.12197567353E+03  0.38620210164E+02  0.20434841532E+03  0.29613719503E+03  0.17195748856E+03 0.  0.
         24    2    5    5    0    0  0.13006905011E+02 -0.93924428465E+01  0.14133810873E+03  0.16133439054E+03  0.76124418101E+02 0.  0.
          5    1    5    5  501    0  0.10896876852E+03  0.48012653011E+02  0.63010306586E+02  0.13480280449E+03  0.47000000000E+01 0. -1.
        -13    1    6    6    0    0  0.23383526738E+02 -0.24760810737E+02  0.13843779350E+03  0.14256545774E+03  0.00000000000E+00 0.  1.
         14    1    6    6    0    0 -0.10376621726E+02  0.15368367890E+02  0.29003152289E+01  0.18768932801E+02  0.00000000000E+00 0. -1.
         -5    1    3    3    0  503 -0.13487201610E+03 -0.39510953330E+01 -0.14797897321E+03  0.20031459856E+03  0.47000000000E+01 0.  1.
         11    1    4    4    0    0 -0.54632897197E+01  0.33469464921E+00  0.10691112156E+02  0.12010804894E+02  0.00000000000E+00 0. -1.
        -12    1    4    4    0    0  0.18359632292E+02 -0.35003809480E+02 -0.10212135558E+03  0.10950394532E+03  0.00000000000E+00 0.  1.
</event>
<event>
12    1  0.8562501E-002  0.1946116E+03  0.7818608E-02  0.1154694E+00
         21   -1    0    0  501  502  0.00000000000E+00  0.00000000000E+00  0.23508567714E+02  0.23508567714E+02  0.00000000000E+00 0.  1.
         21   -1    0    0  502  503 -0.00000000000E+00 -0.00000000000E+00 -0.18879727236E+04  0.18879727236E+04  0.00000000000E+00 0.  1.
         -6    2    1    2    0  503  0.40835353629E+02  0.79860480263E+02 -0.13093663902E+04  0.13237499775E+04  0.17270910981E+03 0.  0.
        -24    2    3    3    0    0  0.86908088627E+02  0.86036122503E+02 -0.91630647350E+03  0.92792296526E+03  0.80425405403E+02 0.  0.
          6    2    1    2  501    0 -0.40835353629E+02 -0.79860480263E+02 -0.55509776565E+03  0.58773131382E+03  0.17102440003E+03 0.  0.
         24    2    5    5    0    0 -0.61885049993E+02  0.95826796171E+01 -0.31285670669E+03  0.32860588240E+03  0.78618826390E+02 0.  0.
          5    1    5    5  501    0  0.21049696364E+02 -0.89443159880E+02 -0.24224105895E+03  0.25912543142E+03  0.47000000000E+01 0. -1.
        -11    1    6    6    0    0 -0.72023160099E+02 -0.35617363301E+01 -0.16828527141E+03  0.18308455459E+03  0.00000000000E+00 0.  1.
         12    1    6    6    0    0  0.10138110106E+02  0.13144415947E+02 -0.14457143528E+03  0.14552132781E+03  0.00000000000E+00 0. -1.
         -5    1    3    3    0  503 -0.46072734997E+02 -0.61756422405E+01 -0.39305991673E+03  0.39582701223E+03  0.47000000000E+01 0.  1.
         11    1    4    4    0    0  0.94834554166E+01 -0.95725001755E+01 -0.27301393362E+02  0.30445603390E+02  0.00000000000E+00 0. -1.
        -12    1    4    4    0    0  0.77424633210E+02  0.95608622679E+02 -0.88900508014E+03  0.89747736187E+03  0.00000000000E+00 0.  1.
</event>
<event>
12    1  0.8562501E-002  0.1861037E+03  0.7818608E-02  0.1162660E+00
         21   -1    0    0  503  502  0.00000000000E+00  0.00000000000E+00  0.19044968960E+03  0.19044968960E+03  0.00000000000E+00 0. -1.
         21   -1    0    0  501  503 -0.00000000000E+00 -0.00000000000E+00 -0.20111029964E+03  0.20111029964E+03  0.00000000000E+00 0.  1.
          6    2    1    2  501    0 -0.10844765437E+02  0.65882563436E+02  0.59252040019E+02  0.19530849309E+03  0.17371379371E+03 0.  0.
         24    2    3    3    0    0 -0.64966595235E+02  0.38641324231E+01  0.40244410583E+02  0.11069857510E+03  0.79993574306E+02 0.  0.
         -6    2    1    2    0  502  0.10844765437E+02 -0.65882563436E+02 -0.69912650059E+02  0.19625149614E+03  0.17078861202E+03 0.  0.
        -24    2    5    5    0    0 -0.36498029906E+02  0.19136509006E+01 -0.71629199142E+02  0.11341006031E+03  0.79970815701E+02 0.  0.
          5    1    3    3  501    0  0.54121829798E+02  0.62018431013E+02  0.19007629437E+02  0.84609917993E+02  0.47000000000E+01 0. -1.
        -11    1    4    4    0    0 -0.58801438067E+02  0.13173231731E+02 -0.83528567893E+01  0.60835132691E+02  0.00000000000E+00 0.  1.
         12    1    4    4    0    0 -0.61651571674E+01 -0.93090993081E+01  0.48597267372E+02  0.49863442409E+02  0.00000000000E+00 0. -1.
         -5    1    5    5    0  502  0.47342795342E+02 -0.67796214337E+02  0.17165490822E+01  0.82841435828E+02  0.47000000000E+01 0.  1.
         13    1    6    6    0    0 -0.18200250376E+02  0.36734340229E+02 -0.13381888977E+02  0.43124654414E+02  0.00000000000E+00 0. -1.
        -14    1    6    6    0    0 -0.18297779530E+02 -0.34820689328E+02 -0.58247310165E+02  0.70285405899E+02  0.00000000000E+00 0.  1.
</event>
<event>
12    1  0.8562501E-002  0.1934377E+03  0.7818608E-02  0.1156659E+00
         21   -1    0    0  503  502  0.00000000000E+00  0.00000000000E+00  0.50117785221E+03  0.50117785221E+03  0.00000000000E+00 0. -1.
         21   -1    0    0  501  503 -0.00000000000E+00 -0.00000000000E+00 -0.11597220552E+03  0.11597220552E+03  0.00000000000E+00 0. -1.
          6    2    1    2  501    0 -0.12204151976E+02 -0.76049023080E+02  0.54715066351E+01  0.19351506312E+03  0.17744223576E+03 0.  0.
         24    2    3    3    0    0  0.54458882435E+02 -0.29044602492E+02  0.32982515763E+02  0.10730415119E+03  0.81344795204E+02 0.  0.
         -6    2    1    2    0  502  0.12204151976E+02  0.76049023080E+02  0.37973414005E+03  0.42363499462E+03  0.17127812559E+03 0.  0.
        -24    2    5    5    0    0 -0.52206057087E+02  0.45087178635E+02  0.14493829902E+03  0.17815895137E+03  0.77299258446E+02 0.  0.
          5    1    3    3  501    0 -0.66663034411E+02 -0.47004420588E+02 -0.27511009127E+02  0.86210911925E+02  0.47000000000E+01 0. -1.
        -13    1    4    4    0    0  0.37891501897E+02  0.23173181010E+02  0.22115306025E+01  0.44470811796E+02  0.00000000000E+00 0.  1.
         14    1    4    4    0    0  0.16567380538E+02 -0.52217783503E+02  0.30770985160E+02  0.62833339395E+02  0.00000000000E+00 0. -1.
         -5    1    5    5    0  502  0.64410209063E+02  0.30961844445E+02  0.23479584103E+03  0.24547604325E+03  0.47000000000E+01 0.  1.
         13    1    6    6    0    0 -0.71853413321E+01  0.55184707082E+02  0.62484399313E+02  0.83673658838E+02  0.00000000000E+00 0. -1.
        -14    1    6    6    0    0 -0.45020715755E+02 -0.10097528447E+02  0.82453899706E+02  0.94485292531E+02  0.00000000000E+00 0.  1.
</event>
<event>
12    1  0.8562501E-002  0.1946791E+03  0.7818608E-02  0.1154448E+00
         21   -1    0    0  501  502  0.00000000000E+00  0.00000000000E+00  0.16111940579E+03  0.16111940579E+03  0.00000000000E+00 0.  1.
         21   -1    0    0  502  503 -0.00000000000E+00 -0.00000000000E+00 -0.23575309540E+03  0.23575309540E+03  0.00000000000E+00 0.  1.
         -6    2    1    2    0  503 -0.86411217030E+02 -0.27813929749E+02 -0.52094605966E+02  0.20152864828E+03  0.17221914815E+03 0.  0.
        -24    2    3    3    0    0  0.63664608536E+01 -0.51589143364E+02 -0.47719977337E+02  0.10553809837E+03  0.78480076671E+02 0.  0.
          6    2    1    2  501    0  0.86411217030E+02  0.27813929749E+02 -0.22539083643E+02  0.19534385291E+03  0.17149547359E+03 0.  0.
         24    2    5    5    0    0  0.95716055215E+02 -0.33852032203E+02 -0.30122907860E+02  0.13234484286E+03  0.79374079797E+02 0.  0.
          5    1    5    5  501    0 -0.93048381851E+01  0.61665961952E+02  0.75838242171E+01  0.62999010047E+02  0.47000000000E+01 0. -1.
        -13    1    6    6    0    0  0.33063957108E+02 -0.32330013754E+02  0.21644803987E+02  0.51058325361E+02  0.00000000000E+00 0.  1.
         14    1    6    6    0    0  0.62652098107E+02 -0.15220184488E+01 -0.51767711847E+02  0.81286517500E+02  0.00000000000E+00 0. -1.
         -5    1    3    3    0  503 -0.92777677884E+02  0.23775213615E+02 -0.43746286299E+01  0.95990549908E+02  0.47000000000E+01 0.  1.
         11    1    4    4    0    0  0.34734661960E+02 -0.12306351591E+02  0.94678327691E+00  0.36862439278E+02  0.00000000000E+00 0. -1.
        -12    1    4    4    0    0 -0.28368201106E+02 -0.39282791772E+02 -0.48666760613E+02  0.68675659094E+02  0.00000000000E+00 0.  1.
</event>
<event>
12    1  0.8562501E-002  0.1922176E+03  0.7818608E-02  0.1156653E+00
         21   -1    0    0  503  502  0.00000000000E+00  0.00000000000E+00  0.10652343693E+03  0.10652343693E+03  0.00000000000E+00 0. -1.
         21   -1    0    0  501  503 -0.00000000000E+00 -0.00000000000E+00 -0.38165579106E+03  0.38165579106E+03  0.00000000000E+00 0.  1.
          6    2    1    2  501    0 -0.54273456348E+01 -0.83830997919E+02 -0.21303412366E+03  0.28693405850E+03  0.17288876132E+03 0.  0.
         24    2    3    3    0    0 -0.26332786537E+02 -0.11966335516E+03 -0.14294034880E+03  0.20534838231E+03  0.81995613235E+02 0.  0.
         -6    2    1    2    0  502  0.54273456348E+01  0.83830997919E+02 -0.62098230466E+02  0.20124516949E+03  0.17200678976E+03 0.  0.
        -24    2    5    5    0    0  0.72694942409E+02  0.47254714926E+02 -0.63440589722E+01  0.10641178037E+03  0.61364950768E+02 0.  0.
          5    1    3    3  501    0  0.20905440902E+02  0.35832357238E+02 -0.70093774862E+02  0.81585676188E+02  0.47000000000E+01 0. -1.
        -11    1    4    4    0    0 -0.33974777116E+02 -0.79331494967E+02 -0.41183167128E+02  0.95623348762E+02  0.00000000000E+00 0.  1.
         12    1    4    4    0    0  0.76419905786E+01 -0.40331860191E+02 -0.10175718167E+03  0.10972503355E+03  0.00000000000E+00 0. -1.
         -5    1    5    5    0  502 -0.67267596774E+02  0.36576282994E+02 -0.55754171494E+02  0.94833389122E+02  0.47000000000E+01 0.  1.
         11    1    6    6    0    0  0.35957249080E+02  0.57421644942E+02 -0.82168700956E+01  0.68247241874E+02  0.00000000000E+00 0. -1.
        -12    1    6    6    0    0  0.36737693329E+02 -0.10166930016E+02  0.18728111234E+01  0.38164538496E+02  0.00000000000E+00 0.  1.
</event>
<event>
12    1  0.8562501E-002  0.2097854E+03  0.7818608E-02  0.1142082E+00
         21   -1    0    0  503  502  0.00000000000E+00  0.00000000000E+00  0.10897017926E+03  0.10897017926E+03  0.00000000000E+00 0. -1.
         21   -1    0    0  501  503 -0.00000000000E+00 -0.00000000000E+00 -0.42037545228E+03  0.42037545228E+03  0.00000000000E+00 0. -1.
          6    2    1    2  501    0  0.96032475954E+02 -0.71759339509E+02 -0.98818083667E+02  0.23189419011E+03  0.17215766756E+03 0.  0.
         24    2    3    3    0    0  0.29277670148E+02 -0.10191996333E+03 -0.85016396548E+02  0.15720520903E+03  0.78998918777E+02 0.  0.
         -6    2    1    2    0  502 -0.96032475954E+02  0.71759339509E+02 -0.21258718936E+03  0.29745144144E+03  0.17003648929E+03 0.  0.
        -24    2    5    5    0    0 -0.31065091804E+01 -0.13541985115E+02 -0.95653876517E+02  0.12538447501E+03  0.79865929663E+02 0.  0.
          5    1    3    3  501    0  0.66754805806E+02  0.30160623823E+02 -0.13801687120E+02  0.74688981081E+02  0.47000000000E+01 0. -1.
        -11    1    4    4    0    0 -0.63940619114E+01 -0.21731195335E+02  0.12612136356E+02  0.25926721002E+02  0.00000000000E+00 0.  1.
         12    1    4    4    0    0  0.35671732059E+02 -0.80188767997E+02 -0.97628532904E+02  0.13127848802E+03  0.00000000000E+00 0. -1.
         -5    1    5    5    0  502 -0.92925966774E+02  0.85301324624E+02 -0.11693331284E+03  0.17206696643E+03  0.47000000000E+01 0.  1.
         11    1    6    6    0    0 -0.19484193186E+02  0.29289743120E+02 -0.43243754589E+02  0.55745359871E+02  0.00000000000E+00 0. -1.
        -12    1    6    6    0    0  0.16377684006E+02 -0.42831728235E+02 -0.52410121928E+02  0.69639115140E+02  0.00000000000E+00 0.  1.
</event>
<event>
12    1  0.8562501E-002  0.2076341E+03  0.7818608E-02  0.1143458E+00
         21   -1    0    0  501  502  0.00000000000E+00  0.00000000000E+00  0.40894003246E+03  0.40894003246E+03  0.00000000000E+00 0. -1.
         21   -1    0    0  502  503 -0.00000000000E+00 -0.00000000000E+00 -0.14997181965E+03  0.14997181965E+03  0.00000000000E+00 0. -1.
         -6    2    1    2    0  503  0.10993203213E+03 -0.37112115236E+02 -0.22850985328E+02  0.20886329955E+03  0.17216082476E+03 0.  0.
        -24    2    3    3    0    0  0.13497248380E+03 -0.17066079984E+02  0.16213187912E+02  0.15809946025E+03  0.78890743444E+02 0.  0.
          6    2    1    2  501    0 -0.10993203213E+03  0.37112115236E+02  0.28181919813E+03  0.35004855256E+03  0.17219049895E+03 0.  0.
         24    2    5    5    0    0 -0.11126877445E+03 -0.17302272629E+02  0.25299615844E+03  0.28827825141E+03  0.80107335790E+02 0.  0.
          5    1    5    5  501    0  0.13367423224E+01  0.54414387865E+02  0.28823039695E+02  0.61770301149E+02  0.47000000000E+01 0. -1.
        -11    1    6    6    0    0 -0.11746591033E+02  0.15727636218E+01 -0.36206930361E+01  0.12392150918E+02  0.00000000000E+00 0.  1.
         12    1    6    6    0    0 -0.99522183415E+02 -0.18875036251E+02  0.25661685147E+03  0.27588610049E+03  0.00000000000E+00 0. -1.
         -5    1    3    3    0  503 -0.25040451670E+02 -0.20046035252E+02 -0.39064173240E+02  0.50763839296E+02  0.47000000000E+01 0.  1.
         11    1    4    4    0    0  0.76199282047E+02 -0.18342579444E+02 -0.29382632749E+02  0.83702568135E+02  0.00000000000E+00 0. -1.
        -12    1    4    4    0    0  0.58773201748E+02  0.12764994603E+01  0.45595820661E+02  0.74396892115E+02  0.00000000000E+00 0.  1.
</event>
<event>
12    1  0.8562501E-002  0.2373950E+03  0.7818608E-02  0.1121725E+00
         21   -1    0    0  501  502  0.00000000000E+00  0.00000000000E+00  0.48883937741E+03  0.48883937741E+03  0.00000000000E+00 0.  1.
         21   -1    0    0  502  503 -0.00000000000E+00 -0.00000000000E+00 -0.18505440599E+03  0.18505440599E+03  0.00000000000E+00 0.  1.
         -6    2    1    2    0  503  0.14665214475E+03 -0.61803835103E+02 -0.55995154111E+02  0.24285073426E+03  0.17468387519E+03 0.  0.
        -24    2    3    3    0    0  0.29970386967E+02 -0.71161248187E+02  0.88567673787E+01  0.10894757708E+03  0.76347789003E+02 0.  0.
          6    2    1    2  501    0 -0.14665214475E+03  0.61803835103E+02  0.35978012553E+03  0.43104304914E+03  0.17615279133E+03 0.  0.
         24    2    5    5    0    0 -0.80155305867E+02  0.67856824043E+02  0.33381715801E+03  0.35924726974E+03  0.81211355173E+02 0.  0.
          5    1    5    5  501    0 -0.66496838887E+02 -0.60529889391E+01  0.25962967524E+02  0.71795779400E+02  0.47000000000E+01 0. -1.
        -13    1    6    6    0    0 -0.96922198506E+02  0.59616018584E+02  0.29444810186E+03  0.31567018694E+03  0.00000000000E+00 0.  1.
         14    1    6    6    0    0  0.16766892639E+02  0.82408054587E+01  0.39369056146E+02  0.43577082799E+02  0.00000000000E+00 0. -1.
         -5    1    3    3    0  503  0.11668175779E+03  0.93574130838E+01 -0.64851921490E+02  0.13390315717E+03  0.47000000000E+01 0.  1.
         13    1    4    4    0    0 -0.41517289067E+00  0.15456630252E+02  0.74032417291E+01  0.17143155350E+02  0.00000000000E+00 0. -1.
        -14    1    4    4    0    0  0.30385559858E+02 -0.86617878439E+02  0.14535256496E+01  0.91804421734E+02  0.00000000000E+00 0.  1.
</event>
<event>
12    1  0.8562501E-002  0.2151171E+03  0.7818608E-02  0.1137863E+00
         21   -1    0    0  503  502  0.00000000000E+00  0.00000000000E+00  0.99656444417E+02  0.99656444417E+02  0.00000000000E+00 0. -1.
         21   -1    0    0  501  503 -0.00000000000E+00 -0.00000000000E+00 -0.46214931798E+03  0.46214931798E+03  0.00000000000E+00 0.  1.
          6    2    1    2  501    0  0.10500683788E+03  0.72319063026E+02 -0.16753879536E+03  0.27149134750E+03  0.17141126258E+03 0.  0.
         24    2    3    3    0    0  0.21482793780E+02  0.71246233693E+02 -0.33828498610E+02  0.11376389154E+03  0.79122180564E+02 0.  0.
         -6    2    1    2    0  502 -0.10500683788E+03 -0.72319063026E+02 -0.19495407820E+03  0.29031441490E+03  0.17325958562E+03 0.  0.
        -24    2    5    5    0    0 -0.11019603693E+02 -0.74140890749E+02 -0.14939898763E+03  0.18574732866E+03  0.81016722061E+02 0.  0.
          5    1    3    3  501    0  0.83524044099E+02  0.10728293331E+01 -0.13371029675E+03  0.15772745595E+03  0.47000000000E+01 0. -1.
        -11    1    4    4    0    0 -0.17129656409E+02 -0.56365652958E+01  0.59354777681E+01  0.18984885919E+02  0.00000000000E+00 0.  1.
         12    1    4    4    0    0  0.38612450189E+02  0.76882798989E+02 -0.39763976378E+02  0.94779005626E+02  0.00000000000E+00 0. -1.
         -5    1    5    5    0  502 -0.93987234185E+02  0.18218277229E+01 -0.45555090570E+02  0.10456708623E+03  0.47000000000E+01 0.  1.
         11    1    6    6    0    0 -0.16056340566E+02 -0.87862209917E+02 -0.99297907122E+02  0.13355765932E+03  0.00000000000E+00 0. -1.
        -12    1    6    6    0    0  0.50367368729E+01  0.13721319168E+02 -0.50101080512E+02  0.52189669346E+02  0.00000000000E+00 0.  1.
</event>
<event>
12    1  0.8562501E-002  0.1748152E+03  0.7818608E-02  0.1173471E+00
         21   -1    0    0  503  502  0.00000000000E+00  0.00000000000E+00  0.36701187288E+03  0.36701187288E+03  0.00000000000E+00 0.  1.
         21   -1    0    0  501  503 -0.00000000000E+00 -0.00000000000E+00 -0.98898324029E+02  0.98898324029E+02  0.00000000000E+00 0.  1.
          6    2    1    2  501    0 -0.15240447965E+02  0.18556268907E+02  0.37720983975E+02  0.17670250327E+03  0.17095114993E+03 0.  0.
         24    2    3    3    0    0 -0.67769919253E+02 -0.82608611249E+01 -0.35887049866E+01  0.10454237426E+03  0.79089983123E+02 0.  0.
         -6    2    1    2    0  502  0.15240447965E+02 -0.18556268907E+02  0.23039256487E+03  0.28920769363E+03  0.17315816394E+03 0.  0.
        -24    2    5    5    0    0 -0.16063206818E+02 -0.51405932737E+02  0.22221698805E+03  0.24286171999E+03  0.81858589806E+02 0.  0.
          5    1    3    3  501    0  0.52529471288E+02  0.26817130032E+02  0.41309688962E+02  0.72160129012E+02  0.47000000000E+01 0. -1.
        -13    1    4    4    0    0 -0.43544303956E+02  0.18975347873E+02  0.28995964755E+02  0.55650123144E+02  0.00000000000E+00 0.  1.
         14    1    4    4    0    0 -0.24225615297E+02 -0.27236208997E+02 -0.32584669741E+02  0.48892251116E+02  0.00000000000E+00 0. -1.
         -5    1    5    5    0  502  0.31303654783E+02  0.32849663830E+02  0.81755768223E+01  0.46345973643E+02  0.47000000000E+01 0.  1.
         11    1    6    6    0    0 -0.23200075884E+02 -0.49250319816E+01  0.17363751303E+03  0.17524978001E+03  0.00000000000E+00 0. -1.
        -12    1    6    6    0    0  0.71368690656E+01 -0.46480900755E+02  0.48579475016E+02  0.67611939980E+02  0.00000000000E+00 0.  1.
</event>
<event>
12    1  0.8562501E-002  0.1930602E+03  0.7818608E-02  0.1158996E+00
         21   -1    0    0  503  502  0.00000000000E+00  0.00000000000E+00  0.15300489774E+04  0.15300489774E+04  0.00000000000E+00 0.  1.
         21   -1    0    0  501  503 -0.00000000000E+00 -0.00000000000E+00 -0.16941015035E+03  0.16941015035E+03  0.00000000000E+00 0.  1.
          6    2    1    2  501    0  0.73265334840E+02  0.45303898578E+02 -0.10715727496E+03  0.22080519492E+03  0.17277731336E+03 0.  0.
         24    2    3    3    0    0  0.10585876408E+03  0.56951268488E+01 -0.45416886187E+02  0.14039902579E+03  0.80066725234E+02 0.  0.
         -6    2    1    2    0  502 -0.73265334840E+02 -0.45303898578E+02  0.14677961020E+04  0.14786539328E+04  0.15675395842E+03 0.  0.
        -24    2    5    5    0    0  0.50648818425E+01 -0.57537725238E+02  0.76200857030E+03  0.76841212944E+03  0.80398361992E+02 0.  0.
          5    1    3    3  501    0 -0.32593429245E+02  0.39608771729E+02 -0.61740388776E+02  0.80406169129E+02  0.47000000000E+01 0. -1.
        -13    1    4    4    0    0  0.46333173488E+02  0.32952971168E+02 -0.48678310453E+02  0.74848107410E+02  0.00000000000E+00 0.  1.
         14    1    4    4    0    0  0.59525590597E+02 -0.27257844319E+02  0.32614242660E+01  0.65550918385E+02  0.00000000000E+00 0. -1.
         -5    1    5    5    0  502 -0.78330216682E+02  0.12233826660E+02  0.70578753167E+03  0.71024180335E+03  0.47000000000E+01 0.  1.
         11    1    6    6    0    0 -0.29796567342E+02  0.71027627172E+00  0.17894341226E+03  0.18140861256E+03  0.00000000000E+00 0. -1.
        -12    1    6    6    0    0  0.34861449185E+02 -0.58248001510E+02  0.58306515804E+03  0.58700351688E+03  0.00000000000E+00 0.  1.
</event>
<event>
12    1  0.8562501E-002  0.1803190E+03  0.7818608E-02  0.1167685E+00
         21   -1    0    0  501  502  0.00000000000E+00  0.00000000000E+00  0.17378164327E+03  0.17378164327E+03  0.00000000000E+00 0. -1.
         21   -1    0    0  502  503 -0.00000000000E+00 -0.00000000000E+00 -0.24712141989E+03  0.24712141989E+03  0.00000000000E+00 0. -1.
         -6    2    1    2    0  503 -0.51613087936E+02  0.20815729415E+00 -0.14102478034E+03  0.22829931834E+03  0.17195533115E+03 0.  0.
        -24    2    3    3    0    0 -0.96462864193E+01  0.61445187023E+02 -0.10433099686E+03  0.14535530116E+03  0.79841372867E+02 0.  0.
          6    2    1    2  501    0  0.51613087936E+02 -0.20815729415E+00  0.67685003726E+02  0.19260374482E+03  0.17277438645E+03 0.  0.
         24    2    5    5    0    0  0.82298494428E+01  0.38714523712E+01  0.10660089200E+03  0.13399244081E+03  0.80669110907E+02 0.  0.
          5    1    5    5  501    0  0.43383238493E+02 -0.40796096654E+01 -0.38915888274E+02  0.58611304006E+02  0.47000000000E+01 0. -1.
        -13    1    6    6    0    0 -0.30449408559E+02 -0.24671843087E+01  0.14332687274E+02  0.33744324034E+02  0.00000000000E+00 0.  1.
         14    1    6    6    0    0  0.38679258001E+02  0.63386366799E+01  0.92268204726E+02  0.10024811678E+03  0.00000000000E+00 0. -1.
         -5    1    3    3    0  503 -0.41966801516E+02 -0.61237029729E+02 -0.36693783479E+02  0.82944017178E+02  0.47000000000E+01 0.  1.
         11    1    4    4    0    0  0.15113587124E+01  0.36883902493E+02  0.69360831009E+00  0.36921369974E+02  0.00000000000E+00 0. -1.
        -12    1    4    4    0    0 -0.11157645132E+02  0.24561284530E+02 -0.10502460517E+03  0.10843393119E+03  0.00000000000E+00 0.  1.
</event>
<event>
12    1  0.8562501E-002  0.1841520E+03  0.7818608E-02  0.1163994E+00
         21   -1    0    0  503  502  0.00000000000E+00  0.00000000000E+00  0.39716264031E+03  0.39716264031E+03  0.00000000000E+00 0. -1.
         21   -1    0    0  501  503 -0.00000000000E+00 -0.00000000000E+00 -0.11412972687E+03  0.11412972687E+03  0.00000000000E+00 0. -1.
          6    2    1    2  501    0 -0.49030726873E+01 -0.65225090007E+02  0.27065006917E+03  0.32735823824E+03  0.17214413645E+03 0.  0.
         24    2    3    3    0    0  0.40359766401E+02 -0.89086849057E+02  0.14438891191E+03  0.19104214241E+03  0.77997210706E+02 0.  0.
         -6    2    1    2    0  502  0.49030726873E+01  0.65225090007E+02  0.12382844272E+02  0.18393412893E+03  0.17146450498E+03 0.  0.
        -24    2    5    5    0    0  0.61451501671E+01  0.45787914826E-01  0.65285170795E+02  0.99847088736E+02  0.75296232550E+02 0.  0.
          5    1    3    3  501    0 -0.45262839088E+02  0.23861759050E+02  0.12626115726E+03  0.13631609582E+03  0.47000000000E+01 0. -1.
        -11    1    4    4    0    0  0.17697476471E+02 -0.20677571925E+02 -0.25968036166E+01  0.27340556746E+02  0.00000000000E+00 0.  1.
         12    1    4    4    0    0  0.22662289930E+02 -0.68409277133E+02  0.14698571552E+03  0.16370158567E+03  0.00000000000E+00 0. -1.
         -5    1    5    5    0  502 -0.12420774798E+01  0.65179302092E+02 -0.52902326524E+02  0.84087040198E+02  0.47000000000E+01 0.  1.
         11    1    6    6    0    0  0.33001415108E+02 -0.36325070105E+01  0.47745201779E+01  0.33542280025E+02  0.00000000000E+00 0. -1.
        -12    1    6    6    0    0 -0.26856264941E+02  0.36782949253E+01  0.60510650617E+02  0.66304808712E+02  0.00000000000E+00 0.  1.
</event>
<event>
12    1  0.8562501E-002  0.2181217E+03  0.7818608E-02  0.1135429E+00
         21   -1    0    0  501  502  0.00000000000E+00  0.00000000000E+00  0.36513254433E+02  0.36513254433E+02  0.00000000000E+00 0. -1.
         21   -1    0    0  502  503 -0.00000000000E+00 -0.00000000000E+00 -0.13396090949E+04  0.13396090949E+04  0.00000000000E+00 0. -1.
         -6    2    1    2    0  503  0.50497141857E+02 -0.12348747182E+03 -0.77290126166E+03  0.80308992053E+03  0.17256286725E+03 0.  0.
        -24    2    3    3    0    0  0.74389728072E+02 -0.13919153150E+03 -0.73368862152E+03  0.75433344083E+03  0.76235375748E+02 0.  0.
          6    2    1    2  501    0 -0.50497141857E+02  0.12348747182E+03 -0.53019457881E+03  0.57303242880E+03  0.17164135873E+03 0.  0.
         24    2    5    5    0    0 -0.70670521319E+02  0.12613605694E+03 -0.52636364906E+03  0.55180164302E+03  0.80757258159E+02 0.  0.
          5    1    5    5  501    0  0.20173379462E+02 -0.26485851137E+01 -0.38309297454E+01  0.21230785777E+02  0.47000000000E+01 0. -1.
        -11    1    6    6    0    0 -0.89795983522E+01 -0.62044938628E+01 -0.11072957284E+03  0.11126619987E+03  0.00000000000E+00 0.  1.
         12    1    6    6    0    0 -0.61690922966E+02  0.13234055080E+03 -0.41563407622E+03  0.44053544316E+03  0.00000000000E+00 0. -1.
         -5    1    3    3    0  503 -0.23892586216E+02  0.15704059682E+02 -0.39212640136E+02  0.48756479703E+02  0.47000000000E+01 0.  1.
         11    1    4    4    0    0  0.11509962832E+02 -0.87839028716E+02 -0.28822717001E+03  0.30153453491E+03  0.00000000000E+00 0. -1.
        -12    1    4    4    0    0  0.62879765241E+02 -0.51352502789E+02 -0.44546145151E+03  0.45279890592E+03  0.00000000000E+00 0.  1.
</event>
<event>
12    1  0.8562501E-002  0.2762787E+03  0.7818608E-02  0.1098341E+00
         21   -1    0    0  503  502  0.00000000000E+00  0.00000000000E+00  0.22312843314E+03  0.22312843314E+03  0.00000000000E+00 0.  1.
         21   -1    0    0  501  503 -0.00000000000E+00 -0.00000000000E+00 -0.58851340234E+03  0.58851340234E+03  0.00000000000E+00 0.  1.
          6    2    1    2  501    0  0.20825539971E+03 -0.39033961913E+02 -0.44892105453E+03  0.52712429013E+03  0.17730183966E+03 0.  0.
         24    2    3    3    0    0  0.15161060241E+03 -0.61682170315E+02 -0.19684686908E+03  0.26773065224E+03  0.78361644853E+02 0.  0.
         -6    2    1    2    0  502 -0.20825539971E+03  0.39033961913E+02  0.83536085329E+02  0.28451754536E+03  0.17052270925E+03 0.  0.
        -24    2    5    5    0    0 -0.63228949099E+02 -0.11540260591E+02 -0.21840433115E+02  0.98193301096E+02  0.70949575353E+02 0.  0.
          5    1    3    3  501    0  0.56644797304E+02  0.22648208402E+02 -0.25207418545E+03  0.25939363789E+03  0.47000000000E+01 0. -1.
        -11    1    4    4    0    0  0.69177437273E+02 -0.41182759683E+01 -0.12900495186E+03  0.14644028008E+03  0.00000000000E+00 0.  1.
         12    1    4    4    0    0  0.82433165135E+02 -0.57563894347E+02 -0.67841917213E+02  0.12129037216E+03  0.00000000000E+00 0. -1.
         -5    1    5    5    0  502 -0.14502645061E+03  0.50574222505E+02  0.10537651844E+03  0.18632424426E+03  0.47000000000E+01 0.  1.
         13    1    6    6    0    0 -0.64729489074E+02  0.85249925455E+01 -0.35071107865E+02  0.74111840218E+02  0.00000000000E+00 0. -1.
        -14    1    6    6    0    0  0.15005399750E+01 -0.20065253137E+02  0.13230674750E+02  0.24081460878E+02  0.00000000000E+00 0.  1.
</event>
<event>
12    1  0.8562501E-002  0.2049353E+03  0.7818608E-02  0.1145797E+00
         21   -1    0    0  503  502  0.00000000000E+00  0.00000000000E+00  0.84138468033E+03  0.84138468033E+03  0.00000000000E+00 0. -1.
         21   -1    0    0  501  503 -0.00000000000E+00 -0.00000000000E+00 -0.12259295909E+03  0.12259295909E+03  0.00000000000E+00 0. -1.
          6    2    1    2  501    0 -0.75876248028E+02  0.79525995532E+02 -0.12462504287E+02  0.20454943218E+03  0.17205687203E+03 0.  0.
         24    2    3    3    0    0 -0.40877945546E+02  0.77385400051E+02  0.56722355623E+02  0.12684423180E+03  0.72197831959E+02 0.  0.
         -6    2    1    2    0  502  0.75876248028E+02 -0.79525995532E+02  0.73125422553E+03  0.75942820724E+03  0.17296494041E+03 0.  0.
        -24    2    5    5    0    0 -0.14293128219E+02 -0.78692523335E+01  0.20522220977E+03  0.22091453344E+03  0.80130250572E+02 0.  0.
          5    1    3    3  501    0 -0.34998302482E+02  0.21405954801E+01 -0.69184859910E+02  0.77705200382E+02  0.47000000000E+01 0. -1.
        -11    1    4    4    0    0 -0.36648941381E+02  0.16696214696E+02  0.52074550851E+02  0.65830595743E+02  0.00000000000E+00 0.  1.
         12    1    4    4    0    0 -0.42290041654E+01  0.60689185355E+02  0.46478047720E+01  0.61013636054E+02  0.00000000000E+00 0. -1.
         -5    1    5    5    0  502  0.90169376248E+02 -0.71656743198E+02  0.52603201576E+03  0.53851367379E+03  0.47000000000E+01 0.  1.
         11    1    6    6    0    0 -0.12317516944E+02 -0.13999045359E+02  0.21126315166E+03  0.21208444956E+03  0.00000000000E+00 0. -1.
        -12    1    6    6    0    0 -0.19756112752E+01  0.61297930252E+01 -0.60409418922E+01  0.88300838834E+01  0.00000000000E+00 0.  1.
</event>
<event>
12    1  0.8562501E-002  0.2779599E+03  0.7818608E-02  0.1096876E+00
         21   -1    0    0  501  502  0.00000000000E+00  0.00000000000E+00  0.10170924249E+03  0.10170924249E+03  0.00000000000E+00 0.  1.
         21   -1    0    0  502  503 -0.00000000000E+00 -0.00000000000E+00 -0.13426219450E+04  0.13426219450E+04  0.00000000000E+00 0.  1.
         -6    2    1    2    0  503  0.11184721790E+03 -0.18676336060E+03 -0.10971870652E+04  0.11318485628E+04  0.17283333077E+03 0.  0.
        -24    2    3    3    0    0  0.89899330511E+01 -0.91215080867E+02 -0.31364552965E+03  0.33581557189E+03  0.77443980918E+02 0.  0.
          6    2    1    2  501    0 -0.11184721790E+03  0.18676336060E+03 -0.14372563730E+03  0.31248262460E+03  0.17204063138E+03 0.  0.
         24    2    5    5    0    0 -0.18692391981E+02  0.85408816091E+02 -0.78333274641E+01  0.11899005328E+03  0.80331814217E+02 0.  0.
          5    1    5    5  501    0 -0.93154825923E+02  0.10135454451E+03 -0.13589230984E+03  0.19349257133E+03  0.47000000000E+01 0. -1.
        -11    1    6    6    0    0 -0.33719889486E+02  0.83687655781E+02  0.15137368686E+02  0.91486581573E+02  0.00000000000E+00 0.  1.
         12    1    6    6    0    0  0.15027497505E+02  0.17211603095E+01 -0.22970696150E+02  0.27503471703E+02  0.00000000000E+00 0. -1.
         -5    1    3    3    0  503  0.10285728485E+03 -0.95548279736E+02 -0.78354153551E+03  0.79603299094E+03  0.47000000000E+01 0.  1.
         11    1    4    4    0    0 -0.62566690303E+01  0.79475886579E+01 -0.91592579453E+02  0.92149393290E+02  0.00000000000E+00 0. -1.
        -12    1    4    4    0    0  0.15246602081E+02 -0.99162669525E+02 -0.22205295020E+03  0.24366617860E+03  0.00000000000E+00 0.  1.
</event>
<event>
12    1  0.8562501E-002  0.3003125E+03  0.7818608E-02  0.1085114E+00
         21   -1    0    0  503  502  0.00000000000E+00  0.00000000000E+00  0.11594194143E+03  0.11594194143E+03  0.00000000000E+00 0. -1.
         21   -1    0    0  501  503 -0.00000000000E+00 -0.00000000000E+00 -0.78014002262E+03  0.78014002262E+03  0.00000000000E+00 0. -1.
          6    2    1    2  501    0  0.14351077754E+03  0.20073772522E+03 -0.35942369282E+03  0.46837273067E+03  0.17116263106E+03 0.  0.
         24    2    3    3    0    0  0.69031641253E+02  0.18806403580E+03 -0.21037773429E+03  0.30120649035E+03  0.79580837456E+02 0.  0.
         -6    2    1    2    0  502 -0.14351077754E+03 -0.20073772522E+03 -0.30477438837E+03  0.42770923338E+03  0.17075357367E+03 0.  0.
        -24    2    5    5    0    0 -0.13188582263E+03 -0.97899613412E+02 -0.12884754017E+03  0.22354468521E+03  0.79952067887E+02 0.  0.
          5    1    3    3  501    0  0.74479136283E+02  0.12673689426E+02 -0.14904595854E+03  0.16716624031E+03  0.47000000000E+01 0. -1.
        -11    1    4    4    0    0  0.27616763032E+02  0.86268067367E+02 -0.41301554705E+02  0.99552415684E+02  0.00000000000E+00 0.  1.
         12    1    4    4    0    0  0.41414878221E+02  0.10179596843E+03 -0.16907617958E+03  0.20165407467E+03  0.00000000000E+00 0. -1.
         -5    1    5    5    0  502 -0.11624954911E+02 -0.10283811181E+03 -0.17592684819E+03  0.20416454818E+03  0.47000000000E+01 0.  1.
         11    1    6    6    0    0 -0.87941238730E+02 -0.15508565897E+02 -0.63022844528E+02  0.10929801470E+03  0.00000000000E+00 0. -1.
        -12    1    6    6    0    0 -0.43944583896E+02 -0.82391047515E+02 -0.65824695646E+02  0.11424667050E+03  0.00000000000E+00 0.  1.
</event>
<event>
12    1  0.8562501E-002  0.1844013E+03  0.7818608E-02  0.1165748E+00
         21   -1    0    0  501  502  0.00000000000E+00  0.00000000000E+00  0.10446608575E+04  0.10446608575E+04  0.00000000000E+00 0.  1.
         21   -1    0    0  502  503 -0.00000000000E+00 -0.00000000000E+00 -0.65978263853E+02  0.65978263853E+02  0.00000000000E+00 0.  1.
         -6    2    1    2    0  503 -0.28797190692E+02 -0.14424428651E+02  0.79397586819E+02  0.19264272992E+03  0.17253956724E+03 0.  0.
        -24    2    3    3    0    0 -0.23078026769E+02  0.55790064699E+02  0.21129080860E+02  0.10109988367E+03  0.78291901127E+02 0.  0.
          6    2    1    2  501    0  0.28797190692E+02  0.14424428651E+02  0.89928500682E+03  0.91799639143E+03  0.18156681647E+03 0.  0.
         24    2    5    5    0    0 -0.51891169868E+02  0.33374492345E+02  0.45853515775E+03  0.46949640715E+03  0.79786184139E+02 0.  0.
          5    1    5    5  501    0  0.80688360560E+02 -0.18950063694E+02  0.44074984907E+03  0.44849998428E+03  0.47000000000E+01 0. -1.
        -11    1    6    6    0    0 -0.51970655078E+02  0.10818592915E+02  0.42930794824E+03  0.43257751371E+03  0.00000000000E+00 0.  1.
         12    1    6    6    0    0  0.79485209898E-01  0.22555899430E+02  0.29227209508E+02  0.36918893437E+02  0.00000000000E+00 0. -1.
         -5    1    3    3    0  503 -0.57191639229E+01 -0.70214493350E+02  0.58268505958E+02  0.91542846247E+02  0.47000000000E+01 0.  1.
         13    1    4    4    0    0 -0.19921897142E+02  0.61463554396E+02  0.43444440747E+02  0.77859295762E+02  0.00000000000E+00 0. -1.
        -14    1    4    4    0    0 -0.31561296275E+01 -0.56734896970E+01 -0.22315359887E+02  0.23240587911E+02  0.00000000000E+00 0.  1.
</event>
<event>
12    1  0.8562501E-002  0.2183543E+03  0.7818608E-02  0.1135291E+00
         21   -1    0    0  501  502  0.00000000000E+00  0.00000000000E+00  0.58898095627E+03  0.58898095627E+03  0.00000000000E+00 0.  1.
         21   -1    0    0  502  503 -0.00000000000E+00 -0.00000000000E+00 -0.83706040455E+02  0.83706040455E+02  0.00000000000E+00 0.  1.
         -6    2    1    2    0  503  0.10845102652E+03  0.74683516240E+02  0.31787846132E+03  0.38564920910E+03  0.17418192661E+03 0.  0.
        -24    2    3    3    0    0  0.13643528705E+03  0.37861525223E+02  0.22605375371E+03  0.28272766234E+03  0.93736592873E+02 0.  0.
          6    2    1    2  501    0 -0.10845102652E+03 -0.74683516240E+02  0.18739645449E+03  0.28703778762E+03  0.17301447227E+03 0.  0.
         24    2    5    5    0    0 -0.10757761027E+03 -0.42502496976E+02  0.55137689949E+02  0.15083627641E+03  0.79573946410E+02 0.  0.
          5    1    5    5  501    0 -0.87341625031E+00 -0.32181019265E+02  0.13225876455E+03  0.13620151121E+03  0.47000000000E+01 0. -1.
        -13    1    6    6    0    0 -0.57019869477E+02 -0.15773285084E+02  0.70094611982E+02  0.91724133500E+02  0.00000000000E+00 0.  1.
         14    1    6    6    0    0 -0.50557740796E+02 -0.26729211892E+02 -0.14956922033E+02  0.59112142910E+02  0.00000000000E+00 0. -1.
         -5    1    3    3    0  503 -0.27984260527E+02  0.36821991017E+02  0.91824707612E+02  0.10292154676E+03  0.47000000000E+01 0.  1.
         11    1    4    4    0    0  0.70920867742E+02 -0.12490287760E+02  0.48307392787E+02  0.86714364251E+02  0.00000000000E+00 0. -1.
        -12    1    4    4    0    0  0.65514419308E+02  0.50351812983E+02  0.17774636092E+03  0.19601329809E+03  0.00000000000E+00 0.  1.
</event>
<event>
12    1  0.8562501E-002  0.2304742E+03  0.7818608E-02  0.1126469E+00
         21   -1    0    0  503  502  0.00000000000E+00  0.00000000000E+00  0.59356373084E+03  0.59356373084E+03  0.00000000000E+00 0.  1.
         21   -1    0    0  501  503 -0.00000000000E+00 -0.00000000000E+00 -0.93997506591E+02  0.93997506591E+02  0.00000000000E+00 0.  1.
          6    2    1    2  501    0  0.15263712604E+03 -0.83235605870E+01  0.17108279011E+03  0.28628859312E+03  0.17124387163E+03 0.  0.
         24    2    3    3    0    0  0.94606084217E+02 -0.14086577212E+02  0.18778547300E+03  0.22544548512E+03  0.80084580674E+02 0.  0.
         -6    2    1    2    0  502 -0.15263712604E+03  0.83235605870E+01  0.32848343413E+03  0.40127264431E+03  0.17248476647E+03 0.  0.
        -24    2    5    5    0    0 -0.46290255939E+02 -0.52034725298E+02  0.17856039130E+03  0.20774799929E+03  0.80156206493E+02 0.  0.
          5    1    3    3  501    0  0.58031041821E+02  0.57630166249E+01 -0.16702682888E+02  0.60843108000E+02  0.47000000000E+01 0. -1.
        -13    1    4    4    0    0  0.92112652520E+02 -0.17337138893E+01  0.96959260727E+02  0.13374918601E+03  0.00000000000E+00 0.  1.
         14    1    4    4    0    0  0.24934316975E+01 -0.12352863323E+02  0.90826212272E+02  0.91696299105E+02  0.00000000000E+00 0. -1.
         -5    1    5    5    0  502 -0.10634687010E+03  0.60358285885E+02  0.14992304284E+03  0.19352464502E+03  0.47000000000E+01 0.  1.
         13    1    6    6    0    0  0.24874027788E+00  0.79934329323E+01  0.92975634058E+02  0.93318944327E+02  0.00000000000E+00 0. -1.
        -14    1    6    6    0    0 -0.46538996216E+02 -0.60028158230E+02  0.85584757238E+02  0.11442905497E+03  0.00000000000E+00 0.  1.
</event>
<event>
12    1  0.8562501E-002  0.1909588E+03  0.7818608E-02  0.1158026E+00
         21   -1    0    0  503  502  0.00000000000E+00  0.00000000000E+00  0.13100334009E+03  0.13100334009E+03  0.00000000000E+00 0. -1.
         21   -1    0    0  501  503 -0.00000000000E+00 -0.00000000000E+00 -0.34065584652E+03  0.34065584652E+03  0.00000000000E+00 0. -1.
          6    2    1    2  501    0  0.13456288486E+02 -0.83854370794E+02 -0.20746305370E+03  0.28068788061E+03  0.16891459520E+03 0.  0.
         24    2    3    3    0    0 -0.46100689411E+02 -0.78253462450E+02 -0.90396701083E+02  0.14913931656E+03  0.76302648887E+02 0.  0.
         -6    2    1    2    0  502 -0.13456288486E+02  0.83854370794E+02 -0.21894527320E+01  0.19097130599E+03  0.17103396975E+03 0.  0.
        -24    2    5    5    0    0 -0.37412655867E+02  0.11271645874E+03  0.23143669468E+02  0.14546543012E+03  0.80745619297E+02 0.  0.
          5    1    3    3  501    0  0.59556977897E+02 -0.56009083445E+01 -0.11706635261E+03  0.13154856405E+03  0.47000000000E+01 0. -1.
        -13    1    4    4    0    0 -0.40440950556E+02 -0.19152745999E+01 -0.20059519628E+02  0.45183216866E+02  0.00000000000E+00 0.  1.
         14    1    4    4    0    0 -0.56597388549E+01 -0.76338187850E+02 -0.70337181455E+02  0.10395609969E+03  0.00000000000E+00 0. -1.
         -5    1    5    5    0  502  0.23956367381E+02 -0.28862087941E+02 -0.25333122200E+02  0.45505875871E+02  0.47000000000E+01 0.  1.
         13    1    6    6    0    0 -0.51755262449E+02  0.10527777737E+03  0.87422869121E-01  0.11731165860E+03  0.00000000000E+00 0. -1.
        -14    1    6    6    0    0  0.14342606582E+02  0.74386813624E+01  0.23056246599E+02  0.28153771527E+02  0.00000000000E+00 0.  1.
</event>
<event>
12    1  0.8562501E-002  0.1802264E+03  0.7818608E-02  0.1167844E+00
         21   -1    0    0  503  502  0.00000000000E+00  0.00000000000E+00  0.38307907738E+02  0.38307907738E+02  0.00000000000E+00 0. -1.
         21   -1    0    0  501  503 -0.00000000000E+00 -0.00000000000E+00 -0.12224517257E+04  0.12224517257E+04  0.00000000000E+00 0.  1.
          6    2    1    2  501    0  0.42661231124E+02  0.25966128626E+02 -0.94456337346E+03  0.96160362348E+03  0.17316853565E+03 0.  0.
         24    2    3    3    0    0 -0.31928459765E+02  0.41031193964E+02 -0.67171750252E+03  0.67830601059E+03  0.78687072598E+02 0.  0.
         -6    2    1    2    0  502 -0.42661231124E+02 -0.25966128626E+02 -0.23958044453E+03  0.29915600998E+03  0.17205030785E+03 0.  0.
        -24    2    5    5    0    0  0.15634126378E+02 -0.71427261995E+01 -0.21970086483E+03  0.23458080674E+03  0.80400500232E+02 0.  0.
          5    1    3    3  501    0  0.74589690890E+02 -0.15065065338E+02 -0.27284587094E+03  0.28329761289E+03  0.47000000000E+01 0. -1.
        -13    1    4    4    0    0  0.20882984950E+02  0.30454483432E+02 -0.36816889610E+03  0.37001609516E+03  0.00000000000E+00 0.  1.
         14    1    4    4    0    0 -0.52811444716E+02  0.10576710532E+02 -0.30354860642E+03  0.30828991543E+03  0.00000000000E+00 0. -1.
         -5    1    5    5    0  502 -0.58295357502E+02 -0.18823402427E+02 -0.19879579702E+02  0.64575203246E+02  0.47000000000E+01 0.  1.
         13    1    6    6    0    0 -0.32765068462E+01  0.14254850527E+02 -0.17085149614E+01  0.14726007063E+02  0.00000000000E+00 0. -1.
        -14    1    6    6    0    0  0.18910633224E+02 -0.21397576726E+02 -0.21799234987E+03  0.21985479967E+03  0.00000000000E+00 0.  1.
</event>
<event>
12    1  0.8562501E-002  0.1806247E+03  0.7818608E-02  0.1167729E+00
         21   -1    0    0  501  502  0.00000000000E+00  0.00000000000E+00  0.38802788727E+03  0.38802788727E+03  0.00000000000E+00 0.  1.
         21   -1    0    0  502  503 -0.00000000000E+00 -0.00000000000E+00 -0.90592786495E+02  0.90592786495E+02  0.00000000000E+00 0. -1.
         -6    2    1    2    0  503 -0.57455188320E+02 -0.21421608270E+01  0.80573022229E+02  0.19778091411E+03  0.17122964275E+03 0.  0.
        -24    2    3    3    0    0 -0.68110984875E+02  0.58739552529E+02  0.45590988887E+02  0.12660534472E+03  0.76556735505E+02 0.  0.
          6    2    1    2  501    0  0.57455188320E+02  0.21421608270E+01  0.21686207854E+03  0.28083975965E+03  0.16892638034E+03 0.  0.
         24    2    5    5    0    0 -0.26512102896E+02 -0.23017449990E+02  0.80020912422E+02  0.11826329532E+03  0.79687928764E+02 0.  0.
          5    1    5    5  501    0  0.83967291215E+02  0.25159610817E+02  0.13684116612E+03  0.16257646433E+03  0.47000000000E+01 0. -1.
        -11    1    6    6    0    0  0.76022902884E-01 -0.75780893993E+01  0.86509081054E+02  0.86840395688E+02  0.00000000000E+00 0.  1.
         12    1    6    6    0    0 -0.26588125799E+02 -0.15439360591E+02 -0.64881686325E+01  0.31422899630E+02  0.00000000000E+00 0. -1.
         -5    1    3    3    0  503  0.10655796556E+02 -0.60881713356E+02  0.34982033342E+02  0.71175569391E+02  0.47000000000E+01 0.  1.
         13    1    4    4    0    0  0.51986570378E+01  0.21639545739E+02  0.38071619660E+02  0.44099253943E+02  0.00000000000E+00 0. -1.
        -14    1    4    4    0    0 -0.73309641913E+02  0.37100006790E+02  0.75193692270E+01  0.82506090774E+02  0.00000000000E+00 0.  1.
</event>
<event>
12    1  0.8562501E-002  0.2915112E+03  0.7818608E-02  0.1089654E+00
         21   -1    0    0  503  502  0.00000000000E+00  0.00000000000E+00  0.17994301508E+03  0.17994301508E+03  0.00000000000E+00 0. -1.
         21   -1    0    0  501  503 -0.00000000000E+00 -0.00000000000E+00 -0.68951221172E+03  0.68951221172E+03  0.00000000000E+00 0. -1.
          6    2    1    2  501    0  0.19033832708E+03 -0.13895343965E+03 -0.49965737895E+03  0.57847755518E+03  0.17158685369E+03 0.  0.
         24    2    3    3    0    0  0.20581370218E+03 -0.14831661271E+03 -0.48985343801E+03  0.55737391800E+03  0.79700665761E+02 0.  0.
         -6    2    1    2    0  502 -0.19033832708E+03  0.13895343965E+03 -0.99118176878E+01  0.29097767162E+03  0.17039079818E+03 0.  0.
        -24    2    5    5    0    0 -0.11977524022E+03  0.90636181868E+02  0.59990378756E+02  0.18042400278E+03  0.79955922871E+02 0.  0.
          5    1    3    3  501    0 -0.15475375103E+02  0.93631730584E+01 -0.98039409420E+01  0.21103637182E+02  0.47000000000E+01 0. -1.
        -11    1    4    4    0    0  0.93975746978E+02 -0.87528172028E+02 -0.32236748826E+03  0.34700636796E+03  0.00000000000E+00 0.  1.
         12    1    4    4    0    0  0.11183795520E+03 -0.60788440681E+02 -0.16748594975E+03  0.21036755004E+03  0.00000000000E+00 0. -1.
         -5    1    5    5    0  502 -0.70563086860E+02  0.48317257782E+02 -0.69902196444E+02  0.11055366884E+03  0.47000000000E+01 0.  1.
         11    1    6    6    0    0 -0.33357220542E+02  0.52833405298E+02 -0.95875605450E+01  0.63213876601E+02  0.00000000000E+00 0. -1.
        -12    1    6    6    0    0 -0.86418019677E+02  0.37802776570E+02  0.69577939301E+02  0.11721012618E+03  0.00000000000E+00 0.  1.
</event>
<event>
12    1  0.8562501E-002  0.2182012E+03  0.7818608E-02  0.1135380E+00
         21   -1    0    0  501  502  0.00000000000E+00  0.00000000000E+00  0.33906332689E+03  0.33906332689E+03  0.00000000000E+00 0.  1.
         21   -1    0    0  502  503 -0.00000000000E+00 -0.00000000000E+00 -0.40486578953E+03  0.40486578953E+03  0.00000000000E+00 0. -1.
         -6    2    1    2    0  503  0.13027547145E+03  0.33509193764E+02 -0.33378474034E+03  0.39834805463E+03  0.17080502105E+03 0.  0.
        -24    2    3    3    0    0  0.14007410674E+03 -0.10667693313E+02 -0.20448528704E+03  0.26127854953E+03  0.81961532244E+02 0.  0.
          6    2    1    2  501    0 -0.13027547145E+03 -0.33509193764E+02  0.26798227769E+03  0.34558106179E+03  0.17180571755E+03 0.  0.
         24    2    5    5    0    0 -0.85879663283E+02 -0.16687361660E+02  0.61801620536E+02  0.13395281414E+03  0.80437127682E+02 0.  0.
          5    1    5    5  501    0 -0.44395808162E+02 -0.16821832103E+02  0.20618065716E+03  0.21162824765E+03  0.47000000000E+01 0. -1.
        -11    1    6    6    0    0 -0.31079503095E+02 -0.45033356039E+02  0.42574179239E+02  0.69328921862E+02  0.00000000000E+00 0.  1.
         12    1    6    6    0    0 -0.54800160188E+02  0.28345994378E+02  0.19227441297E+02  0.64623892275E+02  0.00000000000E+00 0. -1.
         -5    1    3    3    0  503 -0.97986352930E+01  0.44176887076E+02 -0.12929945330E+03  0.13706950511E+03  0.47000000000E+01 0.  1.
         11    1    4    4    0    0  0.10264761287E+03  0.24473224299E+02 -0.16763736740E+03  0.19808522934E+03  0.00000000000E+00 0. -1.
        -12    1    4    4    0    0  0.37426493871E+02 -0.35140917611E+02 -0.36847919639E+02  0.63193320183E+02  0.00000000000E+00 0.  1.
</event>
<event>
12    1  0.8562501E-002  0.2242734E+03  0.7818608E-02  0.1130940E+00
         21   -1    0    0  501  502  0.00000000000E+00  0.00000000000E+00  0.78410899264E+03  0.78410899264E+03  0.00000000000E+00 0.  1.
         21   -1    0    0  502  503 -0.00000000000E+00 -0.00000000000E+00 -0.88095081312E+02  0.88095081312E+02  0.00000000000E+00 0. -1.
         -6    2    1    2    0  503  0.11157343236E+02 -0.14136297672E+03  0.11975194937E+03  0.25424216909E+03  0.17375434863E+03 0.  0.
        -24    2    3    3    0    0 -0.51715960711E+02 -0.12820417365E+03  0.92053480559E+02  0.18413153065E+03  0.79496707864E+02 0.  0.
          6    2    1    2  501    0 -0.11157343236E+02  0.14136297672E+03  0.57626196196E+03  0.61796190487E+03  0.17231102569E+03 0.  0.
         24    2    5    5    0    0  0.30046485675E+02  0.30118402888E+02  0.37306507411E+03  0.38262347631E+03  0.73574897959E+02 0.  0.
          5    1    5    5  501    0 -0.41203828912E+02  0.11124457384E+03  0.20319688785E+03  0.23533842856E+03  0.47000000000E+01 0. -1.
        -13    1    6    6    0    0 -0.21499217486E+02  0.84491076329E-01  0.55805394667E+02  0.59803558131E+02  0.00000000000E+00 0.  1.
         14    1    6    6    0    0  0.51545703161E+02  0.30033911812E+02  0.31725967944E+03  0.32281991818E+03  0.00000000000E+00 0. -1.
         -5    1    3    3    0  503  0.62873303948E+02 -0.13158803071E+02  0.27698468813E+02  0.70110638438E+02  0.47000000000E+01 0.  1.
         11    1    4    4    0    0 -0.43204636925E+02 -0.23147126548E+02  0.51776640763E+02  0.71296918923E+02  0.00000000000E+00 0. -1.
        -12    1    4    4    0    0 -0.85113237864E+01 -0.10505704711E+03  0.40276839797E+02  0.11283461173E+03  0.00000000000E+00 0.  1.
</event>
<event>
12    1  0.8562501E-002  0.1757287E+03  0.7818608E-02  0.1172077E+00
         21   -1    0    0  503  502  0.00000000000E+00  0.00000000000E+00  0.11006775335E+03  0.11006775335E+03  0.00000000000E+00 0. -1.
         21   -1    0    0  501  503 -0.00000000000E+00 -0.00000000000E+00 -0.12521982578E+04  0.12521982578E+04  0.00000000000E+00 0. -1.
          6    2    1    2  501    0 -0.34410410335E+02 -0.10339033772E+01 -0.11710988757E+04  0.11841656239E+04  0.17201890222E+03 0.  0.
         24    2    3    3    0    0  0.39891351999E+02  0.18278676915E+02 -0.79371388748E+03  0.79902247256E+03  0.80806846761E+02 0.  0.
         -6    2    1    2    0  502  0.34410410335E+02  0.10339033772E+01  0.28968371327E+02  0.17810038724E+03  0.17232363768E+03 0.  0.
        -24    2    5    5    0    0 -0.25018249111E+02 -0.26838558148E+02  0.60267846479E+02  0.10522798630E+03  0.78067245299E+02 0.  0.
          5    1    3    3  501    0 -0.74301762333E+02 -0.19312580292E+02 -0.37738498827E+03  0.38514315133E+03  0.47000000000E+01 0. -1.
        -11    1    4    4    0    0  0.61093400929E+02 -0.32674598858E+01 -0.48883935541E+03  0.49265301718E+03  0.00000000000E+00 0.  1.
         12    1    4    4    0    0 -0.21202048930E+02  0.21546136801E+02 -0.30487453207E+03  0.30636945538E+03  0.00000000000E+00 0. -1.
         -5    1    5    5    0  502  0.59428659445E+02  0.27872461525E+02 -0.31299475151E+02  0.72872400946E+02  0.47000000000E+01 0.  1.
         13    1    6    6    0    0 -0.33696011290E+02 -0.33558590410E+02  0.38049677491E+01  0.47708258684E+02  0.00000000000E+00 0. -1.
        -14    1    6    6    0    0  0.86777621792E+01  0.67200322615E+01  0.56462878729E+02  0.57519727611E+02  0.00000000000E+00 0.  1.
</event>
<event>
12    1  0.8562501E-002  0.2413973E+03  0.7818608E-02  0.1118905E+00
         21   -1    0    0  503  502  0.00000000000E+00  0.00000000000E+00  0.39949249311E+03  0.39949249311E+03  0.00000000000E+00 0. -1.
         21   -1    0    0  501  503 -0.00000000000E+00 -0.00000000000E+00 -0.27614111151E+03  0.27614111151E+03  0.00000000000E+00 0. -1.
          6    2    1    2  501    0  0.16776291867E+03 -0.24797691229E+02 -0.17046826368E+03  0.29552005758E+03  0.17179450846E+03 0.  0.
         24    2    3    3    0    0  0.44726326265E+02  0.44766554880E+02 -0.86485129404E+02  0.13104378497E+03  0.75420867638E+02 0.  0.
         -6    2    1    2    0  502 -0.16776291867E+03  0.24797691229E+02  0.29381964529E+03  0.38011354704E+03  0.17145554036E+03 0.  0.
        -24    2    5    5    0    0 -0.18700831326E+03  0.38209344711E+02  0.28953054157E+03  0.35580831977E+03  0.79621370686E+02 0.  0.
          5    1    3    3  501    0  0.12303659240E+03 -0.69564246109E+02 -0.83983134281E+02  0.16447627261E+03  0.47000000000E+01 0. -1.
        -13    1    4    4    0    0 -0.13032161787E+02  0.45077708609E+01  0.58077236762E+01  0.14962850440E+02  0.00000000000E+00 0.  1.
         14    1    4    4    0    0  0.57758488052E+02  0.40258784019E+02 -0.92292853080E+02  0.11608093453E+03  0.00000000000E+00 0. -1.
         -5    1    5    5    0  502  0.19245394587E+02 -0.13411653482E+02  0.42891037211E+01  0.24305227270E+02  0.47000000000E+01 0.  1.
         13    1    6    6    0    0 -0.12315489264E+03 -0.84319507871E+01  0.13994526798E+03  0.18660895853E+03  0.00000000000E+00 0. -1.
        -14    1    6    6    0    0 -0.63853420620E+02  0.46641295499E+02  0.14958527359E+03  0.16919936124E+03  0.00000000000E+00 0.  1.
</event>
<event>
12    1  0.8562501E-002  0.2005507E+03  0.7818608E-02  0.1149473E+00
         21   -1    0    0  503  502  0.00000000000E+00  0.00000000000E+00  0.36121325351E+03  0.36121325351E+03  0.00000000000E+00 0.  1.
         21   -1    0    0  501  503 -0.00000000000E+00 -0.00000000000E+00 -0.16524257976E+03  0.16524257976E+03  0.00000000000E+00 0.  1.
          6    2    1    2  501    0  0.29214002723E+02  0.97600940570E+02 -0.53219465079E+02  0.20658663603E+03  0.17165758115E+03 0.  0.
         24    2    3    3    0    0  0.65113586648E+02  0.10339364961E+03 -0.19804896111E+01  0.14357982520E+03  0.75373854350E+02 0.  0.
         -6    2    1    2    0  502 -0.29214002723E+02 -0.97600940570E+02  0.24919013884E+03  0.31986919724E+03  0.17274598836E+03 0.  0.
        -24    2    5    5    0    0 -0.25790029436E+01 -0.11469494874E+02  0.20260418403E+03  0.21827987528E+03  0.80370691161E+02 0.  0.
          5    1    3    3  501    0 -0.35899583925E+02 -0.57927090369E+01 -0.51238975467E+02  0.63006810830E+02  0.47000000000E+01 0. -1.
        -13    1    4    4    0    0 -0.13842928394E+01  0.51121774219E+02 -0.23531027221E+02  0.56294416313E+02  0.00000000000E+00 0.  1.
         14    1    4    4    0    0  0.66497879487E+02  0.52271875388E+02  0.21550537610E+02  0.87285408885E+02  0.00000000000E+00 0. -1.
         -5    1    5    5    0  502 -0.26634999780E+02 -0.86131445696E+02  0.46585954805E+02  0.10158932196E+03  0.47000000000E+01 0.  1.
         11    1    6    6    0    0 -0.30771439367E+02  0.17811768284E+02  0.57630558439E+02  0.67715742897E+02  0.00000000000E+00 0. -1.
        -12    1    6    6    0    0  0.28192436423E+02 -0.29281263158E+02  0.14497362559E+03  0.15056413239E+03  0.00000000000E+00 0.  1.
</event>
<event>
12    1  0.8562501E-002  0.2087651E+03  0.7818608E-02  0.1142840E+00
         21   -1    0    0  503  502  0.00000000000E+00  0.00000000000E+00  0.44907866511E+02  0.44907866511E+02  0.00000000000E+00 0. -1.
         21   -1    0    0  501  503 -0.00000000000E+00 -0.00000000000E+00 -0.21998746936E+04  0.21998746936E+04  0.00000000000E+00 0. -1.
          6    2    1    2  501    0  0.59729864966E+02  0.10043825313E+03 -0.19205033249E+04  0.19318167316E+04  0.17299527173E+03 0.  0.
         24    2    3    3    0    0  0.37187473590E+02  0.13645670438E+03 -0.16482165695E+04  0.16561944259E+04  0.79741933599E+02 0.  0.
         -6    2    1    2    0  502 -0.59729864966E+02 -0.10043825313E+03 -0.23446350223E+03  0.31296582856E+03  0.17122784969E+03 0.  0.
        -24    2    5    5    0    0 -0.87761293142E+02 -0.47528270659E+02 -0.21532895763E+03  0.24993053680E+03  0.78343679692E+02 0.  0.
          5    1    3    3  501    0  0.22542391376E+02 -0.36018451255E+02 -0.27228675535E+03  0.27562230566E+03  0.47000000000E+01 0. -1.
        -11    1    4    4    0    0 -0.17132376394E+02  0.98112108973E+01 -0.10519183510E+03  0.10702850252E+03  0.00000000000E+00 0.  1.
         12    1    4    4    0    0  0.54319849984E+02  0.12664549348E+03 -0.15430247344E+04  0.15491659234E+04  0.00000000000E+00 0. -1.
         -5    1    5    5    0  502  0.28031428176E+02 -0.52909982467E+02 -0.19134544606E+02  0.63035291762E+02  0.47000000000E+01 0.  1.
         11    1    6    6    0    0 -0.19835370747E+01 -0.28292386167E+02 -0.17186566984E+02  0.33162804753E+02  0.00000000000E+00 0. -1.
        -12    1    6    6    0    0 -0.85777756067E+02 -0.19235884491E+02 -0.19814239064E+03  0.21676773205E+03  0.00000000000E+00 0.  1.
</event>
<event>
12    1  0.8562501E-002  0.1824102E+03  0.7818608E-02  0.1166126E+00
         21   -1    0    0  503  502  0.00000000000E+00  0.00000000000E+00  0.12096718863E+03  0.12096718863E+03  0.00000000000E+00 0.  1.
         21   -1    0    0  501  503 -0.00000000000E+00 -0.00000000000E+00 -0.27461335591E+03  0.27461335591E+03  0.00000000000E+00 0.  1.
          6    2    1    2  501    0 -0.37061525819E+01 -0.48439508492E+02 -0.99812910861E+02  0.20793287573E+03  0.17582190445E+03 0.  0.
         24    2    3    3    0    0 -0.22873282294E+02 -0.80408174490E+02 -0.21276969795E+02  0.12087336443E+03  0.84669942828E+02 0.  0.
         -6    2    1    2    0  502  0.37061525819E+01  0.48439508492E+02 -0.53833256416E+02  0.18764766881E+03  0.17307081373E+03 0.  0.
        -24    2    5    5    0    0 -0.26629119644E+02 -0.13895785533E+02  0.17802211345E+02  0.87849633446E+02  0.80612880480E+02 0.  0.
          5    1    3    3  501    0  0.19167129712E+02  0.31968665998E+02 -0.78535941066E+02  0.87059511291E+02  0.47000000000E+01 0. -1.
        -13    1    4    4    0    0 -0.45203124033E+02 -0.50474600956E+02  0.14350331101E+02  0.69259943450E+02  0.00000000000E+00 0.  1.
         14    1    4    4    0    0  0.22329841739E+02 -0.29933573534E+02 -0.35627300896E+02  0.51613420985E+02  0.00000000000E+00 0. -1.
         -5    1    5    5    0  502  0.30335272226E+02  0.62335294025E+02 -0.71635467761E+02  0.99798035369E+02  0.47000000000E+01 0.  1.
         11    1    6    6    0    0 -0.15739610386E+02 -0.18146924711E+02 -0.30117795632E+02  0.38524379622E+02  0.00000000000E+00 0. -1.
        -12    1    6    6    0    0 -0.10889509258E+02  0.42511391776E+01  0.47920006976E+02  0.49325253824E+02  0.00000000000E+00 0.  1.
</event>
<event>
12    1  0.8562501E-002  0.2405394E+03  0.7818608E-02  0.1119517E+00
         21   -1    0    0  503  502  0.00000000000E+00  0.00000000000E+00  0.15516536343E+04  0.15516536343E+04  0.00000000000E+00 0. -1.
         21   -1    0    0  501  503 -0.00000000000E+00 -0.00000000000E+00 -0.37333951465E+02  0.37333951465E+02  0.00000000000E+00 0. -1.
          6    2    1    2  501    0 -0.14284201173E+03  0.89595935196E+02  0.71239076624E+03  0.75190413488E+03  0.17154577321E+03 0.  0.
         24    2    3    3    0    0 -0.36388303916E+02  0.16565867027E+02  0.20238259245E+03  0.22578987913E+03  0.91781366198E+02 0.  0.
         -6    2    1    2    0  502  0.14284201173E+03 -0.89595935196E+02  0.80192891662E+03  0.83708345091E+03  0.17084333337E+03 0.  0.
        -24    2    5    5    0    0  0.11768154122E+03 -0.10451620294E+03  0.44552021699E+03  0.47944548475E+03  0.81284237589E+02 0.  0.
          5    1    3    3  501    0 -0.10645370781E+03  0.73030068169E+02  0.51000817379E+03  0.52611425575E+03  0.47000000000E+01 0. -1.
        -11    1    4    4    0    0  0.28651009757E+02 -0.38863349070E+01  0.37387639544E+02  0.47263300242E+02  0.00000000000E+00 0.  1.
         12    1    4    4    0    0 -0.65039313673E+02  0.20452201934E+02  0.16499495290E+03  0.17852657889E+03  0.00000000000E+00 0. -1.
         -5    1    5    5    0  502  0.25160470512E+02  0.14920267746E+02  0.35640869962E+03  0.35763796615E+03  0.47000000000E+01 0.  1.
         11    1    6    6    0    0 -0.77404609101E+00 -0.36362499754E+02  0.14188583928E+03  0.14647328058E+03  0.00000000000E+00 0. -1.
        -12    1    6    6    0    0  0.11845558731E+03 -0.68153703188E+02  0.30363437771E+03  0.33297220417E+03  0.00000000000E+00 0.  1.
</event>
<event>
12    1  0.8562501E-002  0.2125295E+03  0.7818608E-02  0.1139923E+00
         21   -1    0    0  503  502  0.00000000000E+00  0.00000000000E+00  0.68941691921E+03  0.68941691921E+03  0.00000000000E+00 0.  1.
         21   -1    0    0  501  503 -0.00000000000E+00 -0.00000000000E+00 -0.96163218534E+02  0.96163218534E+02  0.00000000000E+00 0.  1.
          6    2    1    2  501    0  0.12170328342E+03  0.27481818582E+02  0.72109311743E+02  0.22276553124E+03  0.16987580617E+03 0.  0.
         24    2    3    3    0    0  0.30538511339E+02  0.15217725160E+02 -0.23335660969E+02  0.90125957689E+02  0.80087173397E+02 0.  0.
         -6    2    1    2    0  502 -0.12170328342E+03 -0.27481818582E+02  0.52114438893E+03  0.56281460650E+03  0.17205193294E+03 0.  0.
        -24    2    5    5    0    0 -0.95909344946E+01 -0.47575727036E+02  0.21047805432E+03  0.23189376189E+03  0.84369838363E+02 0.  0.
          5    1    3    3  501    0  0.91164772080E+02  0.12264093422E+02  0.95444972712E+02  0.13263957355E+03  0.47000000000E+01 0. -1.
        -11    1    4    4    0    0  0.34334433304E+02 -0.16705672215E+01  0.22531515462E+02  0.41101256600E+02  0.00000000000E+00 0.  1.
         12    1    4    4    0    0 -0.37959219646E+01  0.16888292381E+02 -0.45867176431E+02  0.49024701089E+02  0.00000000000E+00 0. -1.
         -5    1    5    5    0  502 -0.11211234892E+03  0.20093908454E+02  0.31066633461E+03  0.33092084461E+03  0.47000000000E+01 0.  1.
         13    1    6    6    0    0  0.29611470955E+02 -0.35028057792E+02  0.57928263522E+02  0.73888346575E+02  0.00000000000E+00 0. -1.
        -14    1    6    6    0    0 -0.39202405449E+02 -0.12547669244E+02  0.15254979080E+03  0.15800541532E+03  0.00000000000E+00 0.  1.
</event>
<event>
12    1  0.8562501E-002  0.1982590E+03  0.7818608E-02  0.1151365E+00
         21   -1    0    0  501  502  0.00000000000E+00  0.00000000000E+00  0.24462794456E+03  0.24462794456E+03  0.00000000000E+00 0.  1.
         21   -1    0    0  502  503 -0.00000000000E+00 -0.00000000000E+00 -0.17417061695E+03  0.17417061695E+03  0.00000000000E+00 0.  1.
         -6    2    1    2    0  503 -0.41694638150E+02  0.89534858794E+02  0.94772704922E+02  0.21974642050E+03  0.17190604973E+03 0.  0.
        -24    2    3    3    0    0  0.44488234507E+02  0.18374632934E+02  0.22660044168E+02  0.86654004766E+02  0.68400356690E+02 0.  0.
          6    2    1    2  501    0  0.41694638150E+02 -0.89534858794E+02 -0.24315377311E+02  0.19905214102E+03  0.17110109141E+03 0.  0.
         24    2    5    5    0    0  0.27620470469E+02 -0.13160754006E+03 -0.19132300928E+02  0.15413948150E+03  0.72866314780E+02 0.  0.
          5    1    5    5  501    0  0.14074167681E+02  0.42072681261E+02 -0.51830763837E+01  0.44912659521E+02  0.47000000000E+01 0. -1.
        -11    1    6    6    0    0  0.46156151893E+02 -0.67726872343E+02  0.79034838197E+01  0.82339447723E+02  0.00000000000E+00 0.  1.
         12    1    6    6    0    0 -0.18535681424E+02 -0.63880667712E+02 -0.27035784747E+02  0.71800033775E+02  0.00000000000E+00 0. -1.
         -5    1    3    3    0  503 -0.86182872657E+02  0.71160225860E+02  0.72112660754E+02  0.13309241573E+03  0.47000000000E+01 0.  1.
         11    1    4    4    0    0  0.52487332931E+02  0.32883870699E+02  0.45438745901E+01  0.62104072867E+02  0.00000000000E+00 0. -1.
        -12    1    4    4    0    0 -0.79990984240E+01 -0.14509237765E+02  0.18116169577E+02  0.24549931900E+02  0.00000000000E+00 0.  1.
</event>
<event>
12    1  0.8562501E-002  0.2086052E+03  0.7818608E-02  0.1142718E+00
         21   -1    0    0  501  502  0.00000000000E+00  0.00000000000E+00  0.31576863671E+03  0.31576863671E+03  0.00000000000E+00 0.  1.
         21   -1    0    0  502  503 -0.00000000000E+00 -0.00000000000E+00 -0.13766911688E+03  0.13766911688E+03  0.00000000000E+00 0.  1.
         -6    2    1    2    0  503 -0.81345053433E+02 -0.85584947561E+02  0.89553979798E+02  0.22701555656E+03  0.17197193567E+03 0.  0.
        -24    2    3    3    0    0 -0.31710747170E+02 -0.11911400108E+03  0.93223397912E+02  0.16682156669E+03  0.62810162030E+02 0.  0.
          6    2    1    2  501    0  0.81345053433E+02  0.85584947561E+02  0.88545540038E+02  0.22642219703E+03  0.17171167019E+03 0.  0.
         24    2    5    5    0    0  0.39931113204E+02  0.88979541379E+02 -0.43478191808E+01  0.12455019941E+03  0.77343364651E+02 0.  0.
          5    1    5    5  501    0  0.41413940229E+02 -0.33945938172E+01  0.92893359219E+02  0.10187199762E+03  0.47000000000E+01 0. -1.
        -13    1    6    6    0    0  0.62839000133E+02  0.59741420553E+02  0.26853986542E+01  0.86746692348E+02  0.00000000000E+00 0.  1.
         14    1    6    6    0    0 -0.22907886929E+02  0.29238120826E+02 -0.70332178350E+01  0.37803507061E+02  0.00000000000E+00 0. -1.
         -5    1    3    3    0  503 -0.49634306262E+02  0.33529053518E+02 -0.36694181140E+01  0.60193989876E+02  0.47000000000E+01 0.  1.
         13    1    4    4    0    0  0.16104520608E+02 -0.10022281478E+02  0.93801384758E+01  0.21161018592E+02  0.00000000000E+00 0. -1.
        -14    1    4    4    0    0 -0.47815267778E+02 -0.10909171960E+03  0.83843259436E+02  0.14566054809E+03  0.00000000000E+00 0.  1.
</event>
<event>
12    1  0.8562501E-002  0.1881923E+03  0.7818608E-02  0.1161100E+00
         21   -1    0    0  503  502  0.00000000000E+00  0.00000000000E+00  0.35944705568E+03  0.35944705568E+03  0.00000000000E+00 0.  1.
         21   -1    0    0  501  503 -0.00000000000E+00 -0.00000000000E+00 -0.11562867159E+03  0.11562867159E+03  0.00000000000E+00 0.  1.
          6    2    1    2  501    0 -0.42105105948E+02  0.48444817350E+02  0.22024529942E+03  0.28969698099E+03  0.17690847521E+03 0.  0.
         24    2    3    3    0    0 -0.15157512225E+02 -0.40763611825E+02  0.13816350958E+03  0.16542378651E+03  0.79902763012E+02 0.  0.
         -6    2    1    2    0  502  0.42105105948E+02 -0.48444817350E+02  0.23573084668E+02  0.18537874628E+03  0.17230742577E+03 0.  0.
        -24    2    5    5    0    0 -0.45017255155E+02 -0.28484548495E+02 -0.24948711082E+00  0.92759509273E+02  0.75936430994E+02 0.  0.
          5    1    3    3  501    0 -0.26947593723E+02  0.89208429175E+02  0.82081789845E+02  0.12427319449E+03  0.47000000000E+01 0. -1.
        -13    1    4    4    0    0 -0.19783654220E+02 -0.51219692078E+01  0.12575012185E+03  0.12739984572E+03  0.00000000000E+00 0.  1.
         14    1    4    4    0    0  0.46261419949E+01 -0.35641642617E+02  0.12413387725E+02  0.38023940788E+02  0.00000000000E+00 0. -1.
         -5    1    5    5    0  502  0.87122361102E+02 -0.19960268855E+02  0.23822571779E+02  0.92619237003E+02  0.47000000000E+01 0.  1.
         11    1    6    6    0    0  0.46580838681E+01 -0.38667205911E+02  0.11692496411E+02  0.40664050839E+02  0.00000000000E+00 0. -1.
        -12    1    6    6    0    0 -0.49675339023E+02  0.10182657416E+02 -0.11941983522E+02  0.52095458435E+02  0.00000000000E+00 0.  1.
</event>
<event>
12    1  0.8562501E-002  0.2975850E+03  0.7818608E-02  0.1086541E+00
         21   -1    0    0  503  502  0.00000000000E+00  0.00000000000E+00  0.13584822598E+04  0.13584822598E+04  0.00000000000E+00 0.  1.
         21   -1    0    0  501  503 -0.00000000000E+00 -0.00000000000E+00 -0.68218908180E+02  0.68218908180E+02  0.00000000000E+00 0.  1.
          6    2    1    2  501    0 -0.52298146264E+02 -0.23710273673E+03  0.79988233846E+03  0.85344513715E+03  0.17205825431E+03 0.  0.
         24    2    3    3    0    0  0.17849134238E+02 -0.11705749461E+03  0.54067232142E+03  0.55926249992E+03  0.80168173369E+02 0.  0.
         -6    2    1    2    0  502  0.52298146264E+02  0.23710273673E+03  0.49038101318E+03  0.57325603085E+03  0.17086876528E+03 0.  0.
        -24    2    5    5    0    0  0.91638835595E+02  0.15853643642E+03  0.39547545064E+03  0.44383613600E+03  0.84013128126E+02 0.  0.
          5    1    3    3  501    0 -0.70147280502E+02 -0.12004524212E+03  0.25921001704E+03  0.29418263724E+03  0.47000000000E+01 0. -1.
        -13    1    4    4    0    0 -0.25679961182E+02 -0.85384545126E+02  0.33606449152E+03  0.34769141981E+03  0.00000000000E+00 0.  1.
         14    1    4    4    0    0  0.43529095420E+02 -0.31672949486E+02  0.20460782991E+03  0.21157108011E+03  0.00000000000E+00 0. -1.
         -5    1    5    5    0  502 -0.39340689330E+02  0.78566300314E+02  0.94905562543E+02  0.12941989485E+03  0.47000000000E+01 0.  1.
         13    1    6    6    0    0  0.84458901430E+02  0.82784600891E+02  0.18051867516E+03  0.21580914776E+03  0.00000000000E+00 0. -1.
        -14    1    6    6    0    0  0.71799341644E+01  0.75751835530E+02  0.21495677547E+03  0.22802698823E+03  0.00000000000E+00 0.  1.
</event>
<event>
12    1  0.8562501E-002  0.2298259E+03  0.7818608E-02  0.1127173E+00
         21   -1    0    0  503  502  0.00000000000E+00  0.00000000000E+00  0.60321890926E+02  0.60321890926E+02  0.00000000000E+00 0. -1.
         21   -1    0    0  501  503 -0.00000000000E+00 -0.00000000000E+00 -0.93208288689E+03  0.93208288689E+03  0.00000000000E+00 0.  1.
          6    2    1    2  501    0  0.40047007343E+02  0.14768551271E+03 -0.56511413309E+03  0.60919173846E+03  0.16836216121E+03 0.  0.
         24    2    3    3    0    0 -0.24483509041E+02  0.13873882098E+03 -0.38516119759E+03  0.41775146101E+03  0.79493599617E+02 0.  0.
         -6    2    1    2    0  502 -0.40047007343E+02 -0.14768551271E+03 -0.30664686288E+03  0.38321303936E+03  0.17147933275E+03 0.  0.
        -24    2    5    5    0    0 -0.17754833810E+02  0.42247520592E+00 -0.13172791188E+03  0.15288360897E+03  0.75536365515E+02 0.  0.
          5    1    3    3  501    0  0.64530516384E+02  0.89466917341E+01 -0.17995293549E+03  0.19144027745E+03  0.47000000000E+01 0. -1.
        -11    1    4    4    0    0  0.17342287408E+02  0.92274527783E+02 -0.28098579951E+03  0.29625725803E+03  0.00000000000E+00 0.  1.
         12    1    4    4    0    0 -0.41825796449E+02  0.46464293193E+02 -0.10417539808E+03  0.12149420297E+03  0.00000000000E+00 0. -1.
         -5    1    5    5    0  502 -0.22292173533E+02 -0.14810798792E+03 -0.17491895100E+03  0.23032943039E+03  0.47000000000E+01 0.  1.
         13    1    6    6    0    0 -0.45545068331E+02  0.37740670886E+01 -0.56832256017E+02  0.72928061510E+02  0.00000000000E+00 0. -1.
        -14    1    6    6    0    0  0.27790234521E+02 -0.33515918827E+01 -0.74895655859E+02  0.79955547458E+02  0.00000000000E+00 0.  1.
</event>
<event>
12    1  0.8562501E-002  0.1992621E+03  0.7818608E-02  0.1150458E+00
         21   -1    0    0  503  502  0.00000000000E+00  0.00000000000E+00  0.16185852358E+04  0.16185852358E+04  0.00000000000E+00 0. -1.
         21   -1    0    0  501  503 -0.00000000000E+00 -0.00000000000E+00 -0.34244287169E+02  0.34244287169E+02  0.00000000000E+00 0.  1.
          6    2    1    2  501    0 -0.23180503584E+02 -0.10053708053E+03  0.35142247177E+03  0.40398410365E+03  0.17047100053E+03 0.  0.
         24    2    3    3    0    0  0.48258950474E+02 -0.73061680860E+02  0.20339180357E+03  0.23726979138E+03  0.85216152423E+02 0.  0.
         -6    2    1    2    0  502  0.23180503584E+02  0.10053708053E+03  0.12329184769E+04  0.12488454193E+04  0.16994666953E+03 0.  0.
        -24    2    5    5    0    0 -0.13365299994E+02  0.44029992806E+02  0.31616121273E+03  0.32960953118E+03  0.81038627206E+02 0.  0.
          5    1    3    3  501    0 -0.71439454059E+02 -0.27475399672E+02  0.14803066821E+03  0.16671431226E+03  0.47000000000E+01 0. -1.
        -11    1    4    4    0    0  0.62362996869E+01 -0.95939311939E+01 -0.70803316365E+01  0.13456078389E+02  0.00000000000E+00 0.  1.
         12    1    4    4    0    0  0.42022650787E+02 -0.63467749666E+02  0.21047213521E+03  0.22381371300E+03  0.00000000000E+00 0. -1.
         -5    1    5    5    0  502  0.36545803578E+02  0.56507087725E+02  0.91675726413E+03  0.91923588815E+03  0.47000000000E+01 0.  1.
         13    1    6    6    0    0  0.24158372099E+02  0.42407462565E+02  0.23722259107E+03  0.24219120037E+03  0.00000000000E+00 0. -1.
        -14    1    6    6    0    0 -0.37523672093E+02  0.16225302415E+01  0.78938621665E+02  0.87418330813E+02  0.00000000000E+00 0.  1.
</event>
<event>
12    1  0.8562501E-002  0.1833810E+03  0.7818608E-02  0.1165102E+00
         21   -1    0    0  503  502  0.00000000000E+00  0.00000000000E+00  0.48036192234E+03  0.48036192234E+03  0.00000000000E+00 0. -1.
         21   -1    0    0  501  503 -0.00000000000E+00 -0.00000000000E+00 -0.12479872072E+03  0.12479872072E+03  0.00000000000E+00 0. -1.
          6    2    1    2  501    0 -0.29050884301E+02 -0.56746311886E+02 -0.23654051718E+02  0.18490020900E+03  0.17194323289E+03 0.  0.
         24    2    3    3    0    0 -0.76120778160E+01 -0.66601682456E+02  0.45290452603E+02  0.11187839426E+03  0.77277565762E+02 0.  0.
         -6    2    1    2    0  502  0.29050884301E+02  0.56746311886E+02  0.37921725333E+03  0.42026043406E+03  0.16955532849E+03 0.  0.
        -24    2    5    5    0    0 -0.43165620572E+02  0.43204364702E+01  0.16172640372E+03  0.18512631136E+03  0.78958118828E+02 0.  0.
          5    1    3    3  501    0 -0.21438806485E+02  0.98553705705E+01 -0.68944504321E+02  0.73021814745E+02  0.47000000000E+01 0. -1.
        -11    1    4    4    0    0  0.21117774412E+02 -0.19958623861E+02  0.49004472116E+02  0.56971443285E+02  0.00000000000E+00 0.  1.
         12    1    4    4    0    0 -0.28729852228E+02 -0.46643058595E+02 -0.37140195136E+01  0.54906950973E+02  0.00000000000E+00 0. -1.
         -5    1    5    5    0  502  0.72216504873E+02  0.52425875416E+02  0.21749084961E+03  0.23513412269E+03  0.47000000000E+01 0.  1.
         13    1    6    6    0    0 -0.11239444058E+02 -0.81739312256E+01  0.14726145135E+03  0.14791576423E+03  0.00000000000E+00 0. -1.
        -14    1    6    6    0    0 -0.31926176514E+02  0.12494367696E+02  0.14464952369E+02  0.37210547134E+02  0.00000000000E+00 0.  1.
</event>
<event>
12    1  0.8562501E-002  0.2574656E+03  0.7818608E-02  0.1109799E+00
         21   -1    0    0  501  502  0.00000000000E+00  0.00000000000E+00  0.28348318971E+03  0.28348318971E+03  0.00000000000E+00 0.  1.
         21   -1    0    0  502  503 -0.00000000000E+00 -0.00000000000E+00 -0.23958070510E+03  0.23958070510E+03  0.00000000000E+00 0. -1.
         -6    2    1    2    0  503 -0.12436604803E+03 -0.13680288332E+03 -0.37013008108E+02  0.26011244496E+03  0.17918308644E+03 0.  0.
        -24    2    3    3    0    0 -0.84437359463E+02 -0.75352282074E+02 -0.93234254283E+02  0.16762787822E+03  0.81233277027E+02 0.  0.
          6    2    1    2  501    0  0.12436604803E+03  0.13680288332E+03  0.80915492716E+02  0.26295144985E+03  0.16856513645E+03 0.  0.
         24    2    5    5    0    0  0.38553792024E+02  0.80556403455E+02  0.10335535791E+03  0.15781797598E+03  0.79047166389E+02 0.  0.
          5    1    5    5  501    0  0.85812256009E+02  0.56246479865E+02 -0.22439865199E+02  0.10513347387E+03  0.47000000000E+01 0. -1.
        -11    1    6    6    0    0  0.60127676722E+02  0.38089014829E+02  0.68594275442E+02  0.98849811239E+02  0.00000000000E+00 0.  1.
         12    1    6    6    0    0 -0.21573884697E+02  0.42467388626E+02  0.34761082473E+02  0.58968164736E+02  0.00000000000E+00 0. -1.
         -5    1    3    3    0  503 -0.39928688570E+02 -0.61450601246E+02  0.56221246175E+02  0.92484566744E+02  0.47000000000E+01 0.  1.
         13    1    4    4    0    0  0.51078347669E+01 -0.44030542357E+02 -0.26529755471E+02  0.51658557487E+02  0.00000000000E+00 0. -1.
        -14    1    4    4    0    0 -0.89545194230E+02 -0.31321739717E+02 -0.66704498812E+02  0.11596932073E+03  0.00000000000E+00 0.  1.
</event>
<event>
12    1  0.8562501E-002  0.1749636E+03  0.7818608E-02  0.1174128E+00
         21   -1    0    0  501  502  0.00000000000E+00  0.00000000000E+00  0.46362447451E+03  0.46362447451E+03  0.00000000000E+00 0. -1.
         21   -1    0    0  502  503 -0.00000000000E+00 -0.00000000000E+00 -0.73428170214E+02  0.73428170214E+02  0.00000000000E+00 0. -1.
         -6    2    1    2    0  503 -0.21977897703E+02 -0.20116229425E+02  0.96425293969E+02  0.19512622567E+03  0.16699914956E+03 0.  0.
        -24    2    3    3    0    0 -0.37378598067E+02 -0.37984618597E+02 -0.71954827031E+00  0.95047899962E+02  0.78699394496E+02 0.  0.
          6    2    1    2  501    0  0.21977897703E+02  0.20116229425E+02  0.29377101032E+03  0.34192641905E+03  0.17240817516E+03 0.  0.
         24    2    5    5    0    0 -0.23032407965E+02 -0.42061233526E+02  0.20075333361E+03  0.22123531459E+03  0.79646244616E+02 0.  0.
          5    1    5    5  501    0  0.45010305668E+02  0.62177462951E+02  0.93017676710E+02  0.12069110446E+03  0.47000000000E+01 0. -1.
        -11    1    6    6    0    0  0.27155682829E+02 -0.13495105993E+02  0.10617504461E+03  0.11042051029E+03  0.00000000000E+00 0.  1.
         12    1    6    6    0    0 -0.50188090795E+02 -0.28566127533E+02  0.94578289004E+02  0.11081480429E+03  0.00000000000E+00 0. -1.
         -5    1    3    3    0  503  0.15400700364E+02  0.17868389172E+02  0.97144842240E+02  0.10007832571E+03  0.47000000000E+01 0.  1.
         11    1    4    4    0    0 -0.58823748447E+02 -0.24969902665E+02  0.14739209471E+02  0.65581809340E+02  0.00000000000E+00 0. -1.
        -12    1    4    4    0    0  0.21445150380E+02 -0.13014715931E+02 -0.15458757742E+02  0.29466090622E+02  0.00000000000E+00 0.  1.
</event>
<event>
12    1  0.8562501E-002  0.1886436E+03  0.7818608E-02  0.1159806E+00
         21   -1    0    0  501  502  0.00000000000E+00  0.00000000000E+00  0.16056656438E+03  0.16056656438E+03  0.00000000000E+00 0. -1.
         21   -1    0    0  502  503 -0.00000000000E+00 -0.00000000000E+00 -0.28236804935E+03  0.28236804935E+03  0.00000000000E+00 0. -1.
         -6    2    1    2    0  503 -0.23674601560E+02 -0.74244414230E+02 -0.16418144856E+03  0.25008391005E+03  0.17179550114E+03 0.  0.
        -24    2    3    3    0    0 -0.56169303808E+02  0.10468555741E+02 -0.72472402637E+02  0.12099157078E+03  0.78244039422E+02 0.  0.
          6    2    1    2  501    0  0.23674601560E+02  0.74244414230E+02  0.42379963589E+02  0.19285070368E+03  0.17123846762E+03 0.  0.
         24    2    5    5    0    0 -0.51878868132E+02  0.42884765483E+02  0.70039120440E+01  0.10360212176E+03  0.78446317819E+02 0.  0.
          5    1    5    5  501    0  0.75553469691E+02  0.31359648746E+02  0.35376051545E+02  0.89248581920E+02  0.47000000000E+01 0. -1.
        -11    1    6    6    0    0  0.42340974730E+01  0.25861711145E+02 -0.25493755617E+02  0.36560733858E+02  0.00000000000E+00 0.  1.
         12    1    6    6    0    0 -0.56112965605E+02  0.17023054339E+02  0.32497667661E+02  0.67041387899E+02  0.00000000000E+00 0. -1.
         -5    1    3    3    0  503  0.32494702248E+02 -0.84712969971E+02 -0.91709045923E+02  0.12909233928E+03  0.47000000000E+01 0.  1.
         13    1    4    4    0    0  0.14239093235E+02  0.39036189261E+01 -0.41024180404E+02  0.43600153608E+02  0.00000000000E+00 0. -1.
        -14    1    4    4    0    0 -0.70408397042E+02  0.65649368151E+01 -0.31448222234E+02  0.77391417167E+02  0.00000000000E+00 0.  1.
</event>
<event>
12    1  0.8562501E-002  0.1811858E+03  0.7818608E-02  0.1166840E+00
         21   -1    0    0  501  502  0.00000000000E+00  0.00000000000E+00  0.81646104170E+02  0.81646104170E+02  0.00000000000E+00 0. -1.
         21   -1    0    0  502  503 -0.00000000000E+00 -0.00000000000E+00 -0.40282978774E+03  0.40282978774E+03  0.00000000000E+00 0.  1.
         -6    2    1    2    0  503 -0.44650672433E+02 -0.31335568059E+02 -0.14154695922E+03  0.22933345943E+03  0.17199620221E+03 0.  0.
        -24    2    3    3    0    0 -0.87999334261E+02 -0.56039544047E+02 -0.10698578281E+03  0.16845688079E+03  0.77765349832E+02 0.  0.
          6    2    1    2  501    0  0.44650672433E+02  0.31335568059E+02 -0.17963672435E+03  0.25514243249E+03  0.17277936145E+03 0.  0.
         24    2    5    5    0    0 -0.58433443313E+01  0.21684214889E+02 -0.18766381624E+03  0.20289955210E+03  0.73798173870E+02 0.  0.
          5    1    5    5  501    0  0.50494016764E+02  0.96513531707E+01  0.80270918896E+01  0.52242880388E+02  0.47000000000E+01 0. -1.
        -11    1    6    6    0    0 -0.16468785471E+02  0.46790438124E+02 -0.12908042644E+03  0.13828348595E+03  0.00000000000E+00 0.  1.
         12    1    6    6    0    0  0.10625441140E+02 -0.25106223235E+02 -0.58583389797E+02  0.64616066150E+02  0.00000000000E+00 0. -1.
         -5    1    3    3    0  503  0.43348661828E+02  0.24703975987E+02 -0.34561176407E+02  0.60876578637E+02  0.47000000000E+01 0.  1.
         13    1    4    4    0    0 -0.91978932858E+00 -0.35707159090E+02 -0.11236400377E+02  0.37444678075E+02  0.00000000000E+00 0. -1.
        -14    1    4    4    0    0 -0.87079544932E+02 -0.20332384957E+02 -0.95749382437E+02  0.13101220272E+03  0.00000000000E+00 0.  1.
</event>
<event>
12    1  0.8562501E-002  0.1910136E+03  0.7818608E-02  0.1159610E+00
         21   -1    0    0  503  502  0.00000000000E+00  0.00000000000E+00  0.15768135354E+03  0.15768135354E+03  0.00000000000E+00 0.  1.
         21   -1    0    0  501  503 -0.00000000000E+00 -0.00000000000E+00 -0.35664245642E+03  0.35664245642E+03  0.00000000000E+00 0.  1.
          6    2    1    2  501    0 -0.26669000459E+02  0.46963253052E+02 -0.25972271575E+03  0.32240053183E+03  0.18321962538E+03 0.  0.
         24    2    3    3    0    0  0.96983587397E+01 -0.44008802338E+02 -0.13696107227E+03  0.16526679648E+03  0.80770946845E+02 0.  0.
         -6    2    1    2    0  502  0.26669000459E+02 -0.46963253052E+02  0.60761612876E+02  0.19192327812E+03  0.17385565381E+03 0.  0.
        -24    2    5    5    0    0 -0.64506085168E+01  0.38629568007E+02  0.45004267348E+02  0.98684748245E+02  0.78609424257E+02 0.  0.
          5    1    3    3  501    0 -0.36367359199E+02  0.90972055390E+02 -0.12276164348E+03  0.15713373536E+03  0.47000000000E+01 0. -1.
        -11    1    4    4    0    0 -0.56439023650E+01 -0.42215883989E+02 -0.14259871803E+03  0.14882348228E+03  0.00000000000E+00 0.  1.
         12    1    4    4    0    0  0.15342261105E+02 -0.17929183484E+01  0.56376457576E+01  0.16443314194E+02  0.00000000000E+00 0. -1.
         -5    1    5    5    0  502  0.33119608976E+02 -0.85592821059E+02  0.15757345528E+02  0.93238529877E+02  0.47000000000E+01 0.  1.
         13    1    6    6    0    0  0.13677708082E+02  0.97046963605E+01 -0.19170765313E+02  0.25471141955E+02  0.00000000000E+00 0. -1.
        -14    1    6    6    0    0 -0.20128316599E+02  0.28924871646E+02  0.64175032661E+02  0.73213606289E+02  0.00000000000E+00 0.  1.
</event>
<event>
12    1  0.8562501E-002  0.1950278E+03  0.7818608E-02  0.1154614E+00
         21   -1    0    0  503  502  0.00000000000E+00  0.00000000000E+00  0.92967962456E+02  0.92967962456E+02  0.00000000000E+00 0.  1.
         21   -1    0    0  501  503 -0.00000000000E+00 -0.00000000000E+00 -0.70450896168E+03  0.70450896168E+03  0.00000000000E+00 0. -1.
          6    2    1    2  501    0 -0.89441689072E+01 -0.90008863344E+02 -0.56522624990E+03  0.59702515392E+03  0.16963704551E+03 0.  0.
         24    2    3    3    0    0  0.48314750240E+02 -0.92805893685E+02 -0.42459955188E+03  0.44508975517E+03  0.82902724345E+02 0.  0.
         -6    2    1    2    0  502  0.89441689072E+01  0.90008863344E+02 -0.46314749332E+02  0.20045177022E+03  0.17278386076E+03 0.  0.
        -24    2    5    5    0    0 -0.34376331419E+02  0.96576825213E+02 -0.75556876711E+02  0.14756513783E+03  0.74550740803E+02 0.  0.
          5    1    3    3  501    0 -0.57258919148E+02  0.27970303409E+01 -0.14062669801E+03  0.15193539875E+03  0.47000000000E+01 0. -1.
        -13    1    4    4    0    0  0.43978096126E+02 -0.10735009467E+03 -0.39687873729E+03  0.41348621244E+03  0.00000000000E+00 0.  1.
         14    1    4    4    0    0  0.43366541143E+01  0.14544200989E+02 -0.27720814593E+02  0.31603542729E+02  0.00000000000E+00 0. -1.
         -5    1    5    5    0  502  0.43320500326E+02 -0.65679618688E+01  0.29242127379E+02  0.52886632387E+02  0.47000000000E+01 0.  1.
         13    1    6    6    0    0 -0.11476327113E+01 -0.12100897988E+02 -0.13173492004E+02  0.17924555351E+02  0.00000000000E+00 0. -1.
        -14    1    6    6    0    0 -0.33228698707E+02  0.10867772320E+03 -0.62383384707E+02  0.12964058248E+03  0.00000000000E+00 0.  1.
</event>
<event>
12    1  0.8562501E-002  0.2465309E+03  0.7818608E-02  0.1115713E+00
         21   -1    0    0  503  502  0.00000000000E+00  0.00000000000E+00  0.29179228405E+03  0.29179228405E+03  0.00000000000E+00 0.  1.
         21   -1    0    0  501  503 -0.00000000000E+00 -0.00000000000E+00 -0.20726687880E+03  0.20726687880E+03  0.00000000000E+00 0.  1.
          6    2    1    2  501    0  0.11426749815E+03 -0.13503038182E+03  0.41728101470E+02  0.24884111767E+03  0.16997176896E+03 0.  0.
         24    2    3    3    0    0  0.12028916554E+03 -0.16119735667E+03  0.28537496075E+02  0.21855823271E+03  0.80617871835E+02 0.  0.
         -6    2    1    2    0  502 -0.11426749815E+03  0.13503038182E+03  0.42797303781E+02  0.25021804519E+03  0.17171836180E+03 0.  0.
        -24    2    5    5    0    0 -0.43239916758E+02  0.18533164446E+02  0.59806200718E+02  0.11263929847E+03  0.83052160297E+02 0.  0.
          5    1    3    3  501    0 -0.60216673820E+01  0.26166974851E+02  0.13190605395E+02  0.30282884962E+02  0.47000000000E+01 0. -1.
        -13    1    4    4    0    0  0.51555127049E+02 -0.98120462878E+02  0.51896681775E+02  0.12238799753E+03  0.00000000000E+00 0.  1.
         14    1    4    4    0    0  0.68734038487E+02 -0.63076893790E+02 -0.23359185700E+02  0.96170235174E+02  0.00000000000E+00 0. -1.
         -5    1    5    5    0  502 -0.71027581396E+02  0.11649721737E+03 -0.17008896937E+02  0.13757874672E+03  0.47000000000E+01 0.  1.
         11    1    6    6    0    0 -0.25222934888E+01  0.46155334678E+02  0.27715055514E+02  0.53896207527E+02  0.00000000000E+00 0. -1.
        -12    1    6    6    0    0 -0.40717623269E+02 -0.27622170232E+02  0.32091145204E+02  0.58743090943E+02  0.00000000000E+00 0.  1.
</event>
<event>
12    1  0.8562501E-002  0.1742922E+03  0.7818608E-02  0.1173521E+00
         21   -1    0    0  501  502  0.00000000000E+00  0.00000000000E+00  0.27627822903E+03  0.27627822903E+03  0.00000000000E+00 0.  1.
         21   -1    0    0  502  503 -0.00000000000E+00 -0.00000000000E+00 -0.13424509228E+03  0.13424509228E+03  0.00000000000E+00 0.  1.
         -6    2    1    2    0  503  0.24497656697E+02 -0.36109538886E+01  0.15872727075E+03  0.23573739213E+03  0.17252419366E+03 0.  0.
        -24    2    3    3    0    0 -0.34862958499E-01  0.38039100574E+02  0.24363701768E+02  0.92866015616E+02  0.81138970320E+02 0.  0.
          6    2    1    2  501    0 -0.24497656697E+02  0.36109538886E+01 -0.16694133996E+02  0.17478592918E+03  0.17221571577E+03 0.  0.
         24    2    5    5    0    0 -0.36354207400E+02  0.64765816528E+02  0.11434337277E+01  0.10981852319E+03  0.80886100224E+02 0.  0.
          5    1    5    5  501    0  0.11856550703E+02 -0.61154862639E+02 -0.17837567724E+02  0.64967405992E+02  0.47000000000E+01 0. -1.
        -11    1    6    6    0    0 -0.60145396979E+02  0.42848578600E+02  0.13720927257E+02  0.75111472563E+02  0.00000000000E+00 0.  1.
         12    1    6    6    0    0  0.23791189579E+02  0.21917237928E+02 -0.12577493529E+02  0.34707050630E+02  0.00000000000E+00 0. -1.
         -5    1    3    3    0  503  0.24532519655E+02 -0.41650054463E+02  0.13436356898E+03  0.14287137651E+03  0.47000000000E+01 0.  1.
         13    1    4    4    0    0 -0.20361111392E+02  0.18005173043E+02  0.48428613854E+02  0.55534599605E+02  0.00000000000E+00 0. -1.
        -14    1    4    4    0    0  0.20326248434E+02  0.20033927531E+02 -0.24064912086E+02  0.37331416011E+02  0.00000000000E+00 0.  1.
</event>
<event>
12    1  0.8562501E-002  0.1918743E+03  0.7818608E-02  0.1157591E+00
         21   -1    0    0  501  502  0.00000000000E+00  0.00000000000E+00  0.60255644912E+03  0.60255644912E+03  0.00000000000E+00 0.  1.
         21   -1    0    0  502  503 -0.00000000000E+00 -0.00000000000E+00 -0.62193853392E+02  0.62193853392E+02  0.00000000000E+00 0.  1.
         -6    2    1    2    0  503 -0.78734551792E+02 -0.15349404542E+01  0.33072952552E+03  0.38056417411E+03  0.17101340848E+03 0.  0.
        -24    2    3    3    0    0 -0.27431945219E+02  0.42087337167E+02  0.28317790440E+03  0.29799234346E+03  0.78011894299E+02 0.  0.
          6    2    1    2  501    0  0.78734551792E+02  0.15349404542E+01  0.20963307021E+03  0.28418612840E+03  0.17496927091E+03 0.  0.
         24    2    5    5    0    0  0.33112528929E+02 -0.66527663252E+02  0.13019073848E+03  0.16996239591E+03  0.80095056575E+02 0.  0.
          5    1    5    5  501    0  0.45622022863E+02  0.68062603706E+02  0.79442331730E+02  0.11422373249E+03  0.47000000000E+01 0. -1.
        -11    1    6    6    0    0  0.41813338237E+02  0.25609154836E+00  0.46415187197E+02  0.62472317389E+02  0.00000000000E+00 0.  1.
         12    1    6    6    0    0 -0.87008093074E+01 -0.66783754800E+02  0.83775551284E+02  0.10749007852E+03  0.00000000000E+00 0. -1.
         -5    1    3    3    0  503 -0.51302606573E+02 -0.43622277622E+02  0.47551621116E+02  0.82571830650E+02  0.47000000000E+01 0.  1.
         11    1    4    4    0    0 -0.13206785511E+02 -0.22766914237E+02  0.75177811777E+02  0.79652086922E+02  0.00000000000E+00 0. -1.
        -12    1    4    4    0    0 -0.14225159709E+02  0.64854251405E+02  0.20800009262E+03  0.21834025654E+03  0.00000000000E+00 0.  1.
</event>
<event>
12    1  0.8562501E-002  0.4710977E+03  0.7818608E-02  0.1021719E+00
         21   -1    0    0  501  502  0.00000000000E+00  0.00000000000E+00  0.30126132562E+03  0.30126132562E+03  0.00000000000E+00 0.  1.
         21   -1    0    0  502  503 -0.00000000000E+00 -0.00000000000E+00 -0.12348086636E+04  0.12348086636E+04  0.00000000000E+00 0. -1.
         -6    2    1    2    0  503  0.27187186416E+03 -0.34431235219E+03 -0.95620337446E+03  0.10659540015E+04  0.17166168372E+03 0.  0.
        -24    2    3    3    0    0  0.20524565367E+03 -0.16280217892E+03 -0.61529292900E+03  0.67400117688E+03  0.84034934112E+02 0.  0.
          6    2    1    2  501    0 -0.27187186416E+03  0.34431235219E+03  0.22656036434E+02  0.47011598774E+03  0.16742293614E+03 0.  0.
         24    2    5    5    0    0 -0.19585181979E+03  0.32913556544E+03  0.26316087956E+02  0.39236723868E+03  0.81063911535E+02 0.  0.
          5    1    5    5  501    0 -0.76020044374E+02  0.15176786749E+02 -0.36600515226E+01  0.77748749056E+02  0.47000000000E+01 0. -1.
        -11    1    6    6    0    0 -0.37995323957E+02  0.79116209291E+02  0.39816791554E+02  0.96376325437E+02  0.00000000000E+00 0.  1.
         12    1    6    6    0    0 -0.15785649583E+03  0.25001935615E+03 -0.13500703598E+02  0.29599091324E+03  0.00000000000E+00 0. -1.
         -5    1    3    3    0  503  0.66626210491E+02 -0.18151017327E+03 -0.34091044546E+03  0.39195282465E+03  0.47000000000E+01 0.  1.
         13    1    4    4    0    0  0.10216927258E+03 -0.29133577194E+02 -0.22958661729E+03  0.25297695630E+03  0.00000000000E+00 0. -1.
        -14    1    4    4    0    0  0.10307638109E+03 -0.13366860172E+03 -0.38570631171E+03  0.42102422058E+03  0.00000000000E+00 0.  1.
</event>
<event>
12    1  0.8562501E-002  0.4135460E+03  0.7818608E-02  0.1039193E+00
         21   -1    0    0  501  502  0.00000000000E+00  0.00000000000E+00  0.19978753350E+03  0.19978753350E+03  0.00000000000E+00 0.  1.
         21   -1    0    0  502  503 -0.00000000000E+00 -0.00000000000E+00 -0.85877355835E+03  0.85877355835E+03  0.00000000000E+00 0. -1.
         -6    2    1    2    0  503  0.37337186870E+03 -0.44125004359E+02 -0.36018515592E+03  0.54836281134E+03  0.17208968002E+03 0.  0.
        -24    2    3    3    0    0  0.23268254224E+03  0.37809193172E+02 -0.23906939032E+03  0.34539035513E+03  0.81053213844E+02 0.  0.
          6    2    1    2  501    0 -0.37337186870E+03  0.44125004359E+02 -0.29880086893E+03  0.51019828051E+03  0.17224040704E+03 0.  0.
         24    2    5    5    0    0 -0.14382588643E+03  0.72046844892E+02 -0.10463892420E+03  0.20821825148E+03  0.80801623271E+02 0.  0.
          5    1    5    5  501    0 -0.22954598227E+03 -0.27921840533E+02 -0.19416194473E+03  0.30198002903E+03  0.47000000000E+01 0. -1.
        -11    1    6    6    0    0 -0.62552987945E+02  0.11261171141E+02 -0.15829037869E+01  0.63578265632E+02  0.00000000000E+00 0.  1.
         12    1    6    6    0    0 -0.81272898487E+02  0.60785673751E+02 -0.10305602041E+03  0.14463998584E+03  0.00000000000E+00 0. -1.
         -5    1    3    3    0  503  0.14068932646E+03 -0.81934197532E+02 -0.12111576560E+03  0.20297245621E+03  0.47000000000E+01 0.  1.
         13    1    4    4    0    0  0.44965524720E+02 -0.67760940932E+01 -0.92567262729E+02  0.10313346689E+03  0.00000000000E+00 0. -1.
        -14    1    4    4    0    0  0.18771701752E+03  0.44585287266E+02 -0.14650212759E+03  0.24225688823E+03  0.00000000000E+00 0.  1.
</event>
<event>
12    1  0.8562501E-002  0.1976719E+03  0.7818608E-02  0.1152185E+00
         21   -1    0    0  501  502  0.00000000000E+00  0.00000000000E+00  0.76056285338E+03  0.76056285338E+03  0.00000000000E+00 0. -1.
         21   -1    0    0  502  503 -0.00000000000E+00 -0.00000000000E+00 -0.82144042121E+02  0.82144042121E+02  0.00000000000E+00 0. -1.
         -6    2    1    2    0  503 -0.93412082268E+02 -0.23245994325E+02  0.77838665061E+02  0.21043268019E+03  0.17016715826E+03 0.  0.
        -24    2    3    3    0    0  0.13311852645E+02 -0.54317987547E+01  0.84168225347E+01  0.81790439592E+02  0.80075734455E+02 0.  0.
          6    2    1    2  501    0  0.93412082268E+02  0.23245994325E+02  0.60058014620E+03  0.63227421531E+03  0.17264987104E+03 0.  0.
         24    2    5    5    0    0  0.24228155988E+02 -0.40703416791E+01  0.50022160584E+03  0.50726811750E+03  0.80596010154E+02 0.  0.
          5    1    5    5  501    0  0.69183926279E+02  0.27316336005E+02  0.10035854036E+03  0.12500609782E+03  0.47000000000E+01 0. -1.
        -11    1    6    6    0    0 -0.26385860527E+02 -0.92400694698E+01  0.10030572934E+03  0.10412891942E+03  0.00000000000E+00 0.  1.
         12    1    6    6    0    0  0.50614016515E+02  0.51697277906E+01  0.39991587650E+03  0.40313919808E+03  0.00000000000E+00 0. -1.
         -5    1    3    3    0  503 -0.10672393491E+03 -0.17814195571E+02  0.69421842527E+02  0.12864224060E+03  0.47000000000E+01 0.  1.
         13    1    4    4    0    0  0.30459530927E+01 -0.42115624714E+02  0.10920928362E+02  0.43615024379E+02  0.00000000000E+00 0. -1.
        -14    1    4    4    0    0  0.10265899552E+02  0.36683825959E+02 -0.25041058278E+01  0.38175415212E+02  0.00000000000E+00 0.  1.
</event>
<event>
12    1  0.8562501E-002  0.2227412E+03  0.7818608E-02  0.1132603E+00
         21   -1    0    0  501  502  0.00000000000E+00  0.00000000000E+00  0.10893620072E+03  0.10893620072E+03  0.00000000000E+00 0. -1.
         21   -1    0    0  502  503 -0.00000000000E+00 -0.00000000000E+00 -0.44742028636E+03  0.44742028636E+03  0.00000000000E+00 0.  1.
         -6    2    1    2    0  503  0.13451642910E+03  0.28033615124E+02 -0.16503850484E+03  0.27722078882E+03  0.17530859761E+03 0.  0.
        -24    2    3    3    0    0  0.97108754170E+02  0.31511779310E+02 -0.23433933951E+02  0.13064188083E+03  0.78070797321E+02 0.  0.
          6    2    1    2  501    0 -0.13451642910E+03 -0.28033615124E+02 -0.17344558080E+03  0.27913569826E+03  0.17015526811E+03 0.  0.
         24    2    5    5    0    0 -0.24409760161E+02 -0.44796686940E+02 -0.12845861215E+03  0.15892589637E+03  0.78442628394E+02 0.  0.
          5    1    5    5  501    0 -0.11010666894E+03  0.16763071816E+02 -0.44986968657E+02  0.12020980189E+03  0.47000000000E+01 0. -1.
        -13    1    6    6    0    0 -0.41383481237E+02 -0.56833886557E+02 -0.81950274636E+02  0.10797467617E+03  0.00000000000E+00 0.  1.
         14    1    6    6    0    0  0.16973721076E+02  0.12037199617E+02 -0.46508337510E+02  0.50951220199E+02  0.00000000000E+00 0. -1.
         -5    1    3    3    0  503  0.37407674933E+02 -0.34781641862E+01 -0.14160457089E+03  0.14657890799E+03  0.47000000000E+01 0.  1.
         13    1    4    4    0    0  0.87272414331E+02  0.26722267535E+02 -0.48452815893E+02  0.10333551787E+03  0.00000000000E+00 0. -1.
        -14    1    4    4    0    0  0.98363398397E+01  0.47895117752E+01  0.25018881942E+02  0.27306362960E+02  0.00000000000E+00 0.  1.
</event>
<event>
12    1  0.8562501E-002  0.2610854E+03  0.7818608E-02  0.1106536E+00
         21   -1    0    0  501  502  0.00000000000E+00  0.00000000000E+00  0.52045393345E+03  0.52045393345E+03  0.00000000000E+00 0. -1.
         21   -1    0    0  502  503 -0.00000000000E+00 -0.00000000000E+00 -0.13125898989E+03  0.13125898989E+03  0.00000000000E+00 0. -1.
         -6    2    1    2    0  503  0.13038454602E+02  0.19521909681E+03  0.17585045223E+03  0.31454614081E+03  0.17243954330E+03 0.  0.
        -24    2    3    3    0    0  0.59872045833E+02  0.12177057362E+03  0.16326288126E+03  0.22640643484E+03  0.78691618783E+02 0.  0.
          6    2    1    2  501    0 -0.13038454602E+02 -0.19521909681E+03  0.21334449132E+03  0.33716678253E+03  0.17287298866E+03 0.  0.
         24    2    5    5    0    0 -0.17045194449E+02 -0.33586324280E+02  0.12806090843E+03  0.15431004454E+03  0.77417141163E+02 0.  0.
          5    1    5    5  501    0  0.40067398464E+01 -0.16163277253E+03  0.85283582898E+02  0.18285673800E+03  0.47000000000E+01 0. -1.
        -13    1    6    6    0    0 -0.24352366733E+02  0.63245648764E+01  0.62578472277E+01  0.25926791902E+02  0.00000000000E+00 0.  1.
         14    1    6    6    0    0  0.73071722844E+01 -0.39910889156E+02  0.12180306120E+03  0.12838325264E+03  0.00000000000E+00 0. -1.
         -5    1    3    3    0  503 -0.46833591231E+02  0.73448523186E+02  0.12587570971E+02  0.88139705971E+02  0.47000000000E+01 0.  1.
         13    1    4    4    0    0 -0.33800115920E+01  0.12754224068E+02  0.65723321603E+02  0.67034690366E+02  0.00000000000E+00 0. -1.
        -14    1    4    4    0    0  0.63252057425E+02  0.10901634955E+03  0.97539559660E+02  0.15937174447E+03  0.00000000000E+00 0.  1.
</event>
<event>
12    1  0.8562501E-002  0.1955006E+03  0.7818608E-02  0.1154931E+00
         21   -1    0    0  503  502  0.00000000000E+00  0.00000000000E+00  0.20034020470E+03  0.20034020470E+03  0.00000000000E+00 0. -1.
         21   -1    0    0  501  503 -0.00000000000E+00 -0.00000000000E+00 -0.32299972785E+03  0.32299972785E+03  0.00000000000E+00 0. -1.
          6    2    1    2  501    0 -0.52535823418E+02  0.60087717185E+02 -0.23185852059E+03  0.29940931906E+03  0.17180518114E+03 0.  0.
         24    2    3    3    0    0 -0.44187967746E+02  0.85505618613E+02 -0.85423721877E+02  0.15047645941E+03  0.77988238016E+02 0.  0.
         -6    2    1    2    0  502  0.52535823418E+02 -0.60087717185E+02  0.10919899745E+03  0.22393061349E+03  0.17846554882E+03 0.  0.
        -24    2    5    5    0    0  0.37183886856E+02 -0.82600006000E+02  0.13830072730E+03  0.18378729792E+03  0.80282484230E+02 0.  0.
          5    1    3    3  501    0 -0.83478556722E+01 -0.25417901429E+02 -0.14643479872E+03  0.14893285965E+03  0.47000000000E+01 0. -1.
        -13    1    4    4    0    0 -0.99227146827E+00 -0.69168404224E+01 -0.36809859980E+02  0.37467226690E+02  0.00000000000E+00 0.  1.
         14    1    4    4    0    0 -0.43195696278E+02  0.92422459036E+02 -0.48613861897E+02  0.11300923272E+03  0.00000000000E+00 0. -1.
         -5    1    5    5    0  502  0.15351936563E+02  0.22512288815E+02 -0.29101729853E+02  0.40143315563E+02  0.47000000000E+01 0.  1.
         11    1    6    6    0    0  0.56002770710E+02 -0.32354207925E+02  0.56055139283E+02  0.85587871440E+02  0.00000000000E+00 0. -1.
        -12    1    6    6    0    0 -0.18818883855E+02 -0.50245798075E+02  0.82245588016E+02  0.98199426484E+02  0.00000000000E+00 0.  1.
</event>
<event>
12    1  0.8562501E-002  0.2377425E+03  0.7818608E-02  0.1121375E+00
         21   -1    0    0  501  502  0.00000000000E+00  0.00000000000E+00  0.63117836714E+02  0.63117836714E+02  0.00000000000E+00 0.  1.
         21   -1    0    0  502  503 -0.00000000000E+00 -0.00000000000E+00 -0.94081891758E+03  0.94081891758E+03  0.00000000000E+00 0.  1.
         -6    2    1    2    0  503 -0.21825537329E+02 -0.16282673688E+03 -0.55053287160E+03  0.59951056062E+03  0.17128213349E+03 0.  0.
        -24    2    3    3    0    0  0.10276101194E+01 -0.68313102292E+01 -0.21125499840E+03  0.22536031709E+03  0.78172088302E+02 0.  0.
          6    2    1    2  501    0  0.21825537329E+02  0.16282673688E+03 -0.32716820926E+03  0.40442619368E+03  0.17185054163E+03 0.  0.
         24    2    5    5    0    0  0.75157487525E+02  0.14096320364E+03 -0.22711012268E+03  0.28885793814E+03  0.79628059692E+02 0.  0.
          5    1    5    5  501    0 -0.53331950196E+02  0.21863533232E+02 -0.10005808658E+03  0.11556825554E+03  0.47000000000E+01 0. -1.
        -13    1    6    6    0    0  0.12930567847E+02  0.68842810879E+02 -0.15264866807E+03  0.16795281497E+03  0.00000000000E+00 0.  1.
         14    1    6    6    0    0  0.62226919678E+02  0.72120392766E+02 -0.74461454613E+02  0.12090512317E+03  0.00000000000E+00 0. -1.
         -5    1    3    3    0  503 -0.22853147448E+02 -0.15599542665E+03 -0.33927787321E+03  0.37415024353E+03  0.47000000000E+01 0.  1.
         11    1    4    4    0    0  0.63604223143E+01  0.13629228002E+02 -0.21548954363E+01  0.15193893586E+02  0.00000000000E+00 0. -1.
        -12    1    4    4    0    0 -0.53328121949E+01 -0.20460538231E+02 -0.20910010296E+03  0.21016642351E+03  0.00000000000E+00 0.  1.
</event>
<event>
12    1  0.8562501E-002  0.1888379E+03  0.7818608E-02  0.1159668E+00
         21   -1    0    0  503  502  0.00000000000E+00  0.00000000000E+00  0.63511869685E+03  0.63511869685E+03  0.00000000000E+00 0. -1.
         21   -1    0    0  501  503 -0.00000000000E+00 -0.00000000000E+00 -0.15050356276E+03  0.15050356276E+03  0.00000000000E+00 0. -1.
          6    2    1    2  501    0  0.74586068268E+02  0.18557007069E+02 -0.68888439483E+02  0.20101088893E+03  0.17248859754E+03 0.  0.
         24    2    3    3    0    0  0.48345177187E+02 -0.48592177517E+02 -0.51129964628E+01  0.10464183535E+03  0.78900666021E+02 0.  0.
         -6    2    1    2    0  502 -0.74586068268E+02 -0.18557007069E+02  0.55350357357E+03  0.58461137068E+03  0.17174633818E+03 0.  0.
        -24    2    5    5    0    0  0.11250815380E+02 -0.42931244062E+02  0.36426379073E+03  0.37533676774E+03  0.78866389671E+02 0.  0.
          5    1    3    3  501    0  0.26240891082E+02  0.67149184587E+02 -0.63775443020E+02  0.96369053579E+02  0.47000000000E+01 0. -1.
        -11    1    4    4    0    0  0.39721997198E+02  0.61133565772E+01  0.18737959561E+02  0.44343221788E+02  0.00000000000E+00 0.  1.
         12    1    4    4    0    0  0.86231799884E+01 -0.54705534095E+02 -0.23850956024E+02  0.60298613557E+02  0.00000000000E+00 0. -1.
         -5    1    5    5    0  502 -0.85836883648E+02  0.24374236993E+02  0.18923978284E+03  0.20927460294E+03  0.47000000000E+01 0.  1.
         11    1    6    6    0    0 -0.16797519769E+02 -0.33279943570E+02  0.31930917743E+03  0.32147793408E+03  0.00000000000E+00 0. -1.
        -12    1    6    6    0    0  0.28048335149E+02 -0.96513004921E+01  0.44954613301E+02  0.53858833657E+02  0.00000000000E+00 0.  1.
</event>
<event>
12    1  0.8562501E-002  0.2041929E+03  0.7818608E-02  0.1147229E+00
         21   -1    0    0  501  502  0.00000000000E+00  0.00000000000E+00  0.28480202686E+02  0.28480202686E+02  0.00000000000E+00 0. -1.
         21   -1    0    0  502  503 -0.00000000000E+00 -0.00000000000E+00 -0.17745292017E+04  0.17745292017E+04  0.00000000000E+00 0.  1.
         -6    2    1    2    0  503  0.91475715758E+01 -0.10479416221E+03 -0.12782291312E+04  0.12944359632E+04  0.17501216093E+03 0.  0.
        -24    2    3    3    0    0  0.71434333954E+02 -0.52808635147E+02 -0.65650358522E+03  0.66742170474E+03  0.81013323171E+02 0.  0.
          6    2    1    2  501    0 -0.91475715758E+01  0.10479416221E+03 -0.46781986777E+03  0.50857344114E+03  0.16948752715E+03 0.  0.
         24    2    5    5    0    0 -0.47061545499E+02  0.14934851870E+02 -0.26578855628E+03  0.28418336584E+03  0.87628704797E+02 0.  0.
          5    1    5    5  501    0  0.37913973923E+02  0.89859310342E+02 -0.20203131149E+03  0.22439007530E+03  0.47000000000E+01 0. -1.
        -11    1    6    6    0    0 -0.35250905310E+02  0.37243081317E+02 -0.24814079032E+03  0.25338414562E+03  0.00000000000E+00 0.  1.
         12    1    6    6    0    0 -0.11810640189E+02 -0.22308229447E+02 -0.17647765964E+02  0.30799220222E+02  0.00000000000E+00 0. -1.
         -5    1    3    3    0  503 -0.62286762378E+02 -0.51985527065E+02 -0.62172554598E+03  0.62701425846E+03  0.47000000000E+01 0.  1.
         11    1    4    4    0    0 -0.60868087051E+01  0.79856267596E+01 -0.13027967432E+02  0.16448325458E+02  0.00000000000E+00 0. -1.
        -12    1    4    4    0    0  0.77521142659E+02 -0.60794261907E+02 -0.64347561779E+03  0.65097337928E+03  0.00000000000E+00 0.  1.
</event>
<event>
12    1  0.8562501E-002  0.2430514E+03  0.7818608E-02  0.1117822E+00
         21   -1    0    0  501  502  0.00000000000E+00  0.00000000000E+00  0.18091994972E+04  0.18091994972E+04  0.00000000000E+00 0.  1.
         21   -1    0    0  502  503 -0.00000000000E+00 -0.00000000000E+00 -0.40339260297E+02  0.40339260297E+02  0.00000000000E+00 0. -1.
         -6    2    1    2    0  503 -0.28722245616E+02  0.16912566651E+03  0.48016083000E+03  0.53817134189E+03  0.17217872139E+03 0.  0.
        -24    2    3    3    0    0  0.11615904609E+02  0.33897153390E+02  0.27427918753E+03  0.28852507649E+03  0.82059129907E+02 0.  0.
          6    2    1    2  501    0  0.28722245616E+02 -0.16912566651E+03  0.12886994069E+04  0.13113674156E+04  0.17178439655E+03 0.  0.
         24    2    5    5    0    0 -0.26945189234E-01 -0.34704181011E+02  0.73696233213E+03  0.74274492096E+03  0.85744724229E+02 0.  0.
          5    1    5    5  501    0  0.28749190805E+02 -0.13442148550E+03  0.55173707473E+03  0.56862249460E+03  0.47000000000E+01 0. -1.
        -11    1    6    6    0    0 -0.15281365588E+02 -0.14417528854E+01  0.62003982131E+03  0.62022977903E+03  0.00000000000E+00 0.  1.
         12    1    6    6    0    0  0.15254420398E+02 -0.33262428126E+02  0.11692251082E+03  0.12251514193E+03  0.00000000000E+00 0. -1.
         -5    1    3    3    0  503 -0.40338150224E+02  0.13522851312E+03  0.20588164247E+03  0.24964626540E+03  0.47000000000E+01 0.  1.
         13    1    4    4    0    0  0.18728068371E+02  0.27667403495E+02  0.32661855177E+02  0.46722826805E+02  0.00000000000E+00 0. -1.
        -14    1    4    4    0    0 -0.71121637620E+01  0.62297498950E+01  0.24161733235E+03  0.24180224968E+03  0.00000000000E+00 0.  1.
</event>
<event>
12    1  0.8562501E-002  0.1887201E+03  0.7818608E-02  0.1159890E+00
         21   -1    0    0  501  502  0.00000000000E+00  0.00000000000E+00  0.34003033849E+03  0.34003033849E+03  0.00000000000E+00 0. -1.
         21   -1    0    0  502  503 -0.00000000000E+00 -0.00000000000E+00 -0.46203292109E+03  0.46203292109E+03  0.00000000000E+00 0. -1.
         -6    2    1    2    0  503 -0.50906160441E+02  0.56389344302E+02 -0.41393810836E+03  0.45444045294E+03  0.17146478471E+03 0.  0.
        -24    2    3    3    0    0 -0.88511624929E+02  0.25043490025E+01 -0.21192490045E+03  0.24195706572E+03  0.76095195031E+02 0.  0.
          6    2    1    2  501    0  0.50906160441E+02 -0.56389344302E+02  0.29193552575E+03  0.34762280664E+03  0.17275436080E+03 0.  0.
         24    2    5    5    0    0 -0.14358293205E+02 -0.55520651265E+01  0.58567216922E+02  0.99980452767E+02  0.79554924591E+02 0.  0.
          5    1    5    5  501    0  0.65264453646E+02 -0.50837279176E+02  0.23336830883E+03  0.24764235387E+03  0.47000000000E+01 0. -1.
        -13    1    6    6    0    0  0.27873868411E+02 -0.20159054281E+02  0.14858638318E+02  0.37471577794E+02  0.00000000000E+00 0.  1.
         14    1    6    6    0    0 -0.42232161616E+02  0.14606989154E+02  0.43708578604E+02  0.62508874974E+02  0.00000000000E+00 0. -1.
         -5    1    3    3    0  503  0.37605464488E+02  0.53884995300E+02 -0.20201320791E+03  0.21248338723E+03  0.47000000000E+01 0.  1.
         13    1    4    4    0    0 -0.67756400951E+02  0.25640061037E+02 -0.86950367827E+02  0.11317556744E+03  0.00000000000E+00 0. -1.
        -14    1    4    4    0    0 -0.20755223978E+02 -0.23135712034E+02 -0.12497453263E+03  0.12878149828E+03  0.00000000000E+00 0.  1.
</event>
<event>
12    1  0.8562501E-002  0.2040348E+03  0.7818608E-02  0.1146414E+00
         21   -1    0    0  501  502  0.00000000000E+00  0.00000000000E+00  0.21688446767E+03  0.21688446767E+03  0.00000000000E+00 0. -1.
         21   -1    0    0  502  503 -0.00000000000E+00 -0.00000000000E+00 -0.50260551834E+03  0.50260551834E+03  0.00000000000E+00 0. -1.
         -6    2    1    2    0  503 -0.10878215651E+03 -0.18374833581E+02 -0.42578606414E+03  0.47214824334E+03  0.17163624091E+03 0.  0.
        -24    2    3    3    0    0 -0.26331095211E+02 -0.23984149928E+02 -0.34736669409E+03  0.35812487057E+03  0.79506205643E+02 0.  0.
          6    2    1    2  501    0  0.10878215651E+03  0.18374833581E+02  0.14006501348E+03  0.24734174267E+03  0.17143085364E+03 0.  0.
         24    2    5    5    0    0  0.10165749469E+03 -0.45620627216E+02  0.11282215832E+03  0.17726718976E+03  0.79242219186E+02 0.  0.
          5    1    5    5  501    0  0.71246618226E+01  0.63995460797E+02  0.27242855153E+02  0.70074552910E+02  0.47000000000E+01 0. -1.
        -11    1    6    6    0    0  0.65356711696E+02 -0.31119768308E+02  0.17836476858E+02  0.74552529468E+02  0.00000000000E+00 0.  1.
         12    1    6    6    0    0  0.36300782992E+02 -0.14500858908E+02  0.94985681464E+02  0.10271466029E+03  0.00000000000E+00 0. -1.
         -5    1    3    3    0  503 -0.82451061300E+02  0.56093163476E+01 -0.78419370049E+02  0.11402337277E+03  0.47000000000E+01 0.  1.
         11    1    4    4    0    0 -0.33135262591E+02  0.22554903483E+02 -0.15850902906E+03  0.16349856755E+03  0.00000000000E+00 0. -1.
        -12    1    4    4    0    0  0.68041673801E+01 -0.46539053411E+02 -0.18885766504E+03  0.19462630302E+03  0.00000000000E+00 0.  1.
</event>
<event>
12    1  0.8562501E-002  0.1762594E+03  0.7818608E-02  0.1171620E+00
         21   -1    0    0  501  502  0.00000000000E+00  0.00000000000E+00  0.96816901195E+02  0.96816901195E+02  0.00000000000E+00 0.  1.
         21   -1    0    0  502  503 -0.00000000000E+00 -0.00000000000E+00 -0.61671050494E+03  0.61671050494E+03  0.00000000000E+00 0.  1.
         -6    2    1    2    0  503  0.33383716738E+02 -0.24187601649E+02 -0.50725797801E+03  0.53681566140E+03  0.17076558627E+03 0.  0.
        -24    2    3    3    0    0 -0.21417004514E+01 -0.34994438693E+02 -0.12447654565E+03  0.15220864384E+03  0.80273677030E+02 0.  0.
          6    2    1    2  501    0 -0.33383716738E+02  0.24187601649E+02 -0.12635625739E+02  0.17671174474E+03  0.17137056070E+03 0.  0.
         24    2    5    5    0    0  0.35183531965E+02  0.12017204010E+02  0.34795818858E+02  0.92323249610E+02  0.77009994773E+02 0.  0.
          5    1    5    5  501    0 -0.68567248704E+02  0.12170397639E+02 -0.47431444597E+02  0.84388495128E+02  0.47000000000E+01 0. -1.
        -11    1    6    6    0    0 -0.95230231843E+01 -0.24692056054E+02  0.18282198278E+02  0.32165577511E+02  0.00000000000E+00 0.  1.
         12    1    6    6    0    0  0.44706555149E+02  0.36709260064E+02  0.16513620580E+02  0.60157672099E+02  0.00000000000E+00 0. -1.
         -5    1    3    3    0  503  0.35525417190E+02  0.10806837044E+02 -0.38278143236E+03  0.38460701756E+03  0.47000000000E+01 0.  1.
         13    1    4    4    0    0 -0.20996575533E+02 -0.52938588923E+02 -0.10586205649E+03  0.12020867434E+03  0.00000000000E+00 0. -1.
        -14    1    4    4    0    0  0.18854875082E+02  0.17944150230E+02 -0.18614489156E+02  0.31999969506E+02  0.00000000000E+00 0.  1.
</event>
<event>
12    1  0.8562501E-002  0.2139660E+03  0.7818608E-02  0.1138561E+00
         21   -1    0    0  503  502  0.00000000000E+00  0.00000000000E+00  0.45826881102E+03  0.45826881102E+03  0.00000000000E+00 0. -1.
         21   -1    0    0  501  503 -0.00000000000E+00 -0.00000000000E+00 -0.11029111882E+03  0.11029111882E+03  0.00000000000E+00 0. -1.
          6    2    1    2  501    0  0.12638739900E+03 -0.31256239240E+01  0.85560379246E+02  0.22996829716E+03  0.17199213660E+03 0.  0.
         24    2    3    3    0    0  0.12362053858E+03  0.11772698085E+02  0.44818559685E+01  0.14735212168E+03  0.79195497036E+02 0.  0.
         -6    2    1    2    0  502 -0.12638739900E+03  0.31256239240E+01  0.26241731295E+03  0.33859163268E+03  0.17262069237E+03 0.  0.
        -24    2    5    5    0    0 -0.26764235799E+02 -0.35210331945E+02  0.19388315338E+03  0.21165290263E+03  0.72458141259E+02 0.  0.
          5    1    3    3  501    0  0.27668604212E+01 -0.14898322009E+02  0.81078523278E+02  0.82616175487E+02  0.47000000000E+01 0. -1.
        -13    1    4    4    0    0  0.24904105318E+02 -0.21142682005E+02  0.25189762575E+02  0.41252292090E+02  0.00000000000E+00 0.  1.
         14    1    4    4    0    0  0.98716433261E+02  0.32915380090E+02 -0.20707906607E+02  0.10609982959E+03  0.00000000000E+00 0. -1.
         -5    1    5    5    0  502 -0.99623163202E+02  0.38335955869E+02  0.68534159572E+02  0.12693873005E+03  0.47000000000E+01 0.  1.
         11    1    6    6    0    0 -0.46553374475E+02 -0.83467783412E+01  0.14459346527E+03  0.15213203339E+03  0.00000000000E+00 0. -1.
        -12    1    6    6    0    0  0.19789138676E+02 -0.26863553604E+02  0.49289688108E+02  0.59520869244E+02  0.00000000000E+00 0.  1.
</event>
<event>
12    1  0.8562501E-002  0.1839197E+03  0.7818608E-02  0.1166136E+00
         21   -1    0    0  503  502  0.00000000000E+00  0.00000000000E+00  0.12512945215E+03  0.12512945215E+03  0.00000000000E+00 0.  1.
         21   -1    0    0  501  503 -0.00000000000E+00 -0.00000000000E+00 -0.34773461502E+03  0.34773461502E+03  0.00000000000E+00 0.  1.
          6    2    1    2  501    0  0.32034924952E+02 -0.12249089859E+02 -0.23345530985E+03  0.29719999038E+03  0.18069359692E+03 0.  0.
         24    2    3    3    0    0  0.57232554815E+02 -0.64430252046E+02 -0.11265468569E+03  0.16313778454E+03  0.80597988976E+02 0.  0.
         -6    2    1    2    0  502 -0.32034924952E+02  0.12249089859E+02  0.10850146976E+02  0.17566407679E+03  0.17194145971E+03 0.  0.
        -24    2    5    5    0    0 -0.59331291594E+01  0.40885900576E+01  0.65031944009E+02  0.11478998846E+03  0.94316854899E+02 0.  0.
          5    1    3    3  501    0 -0.25197629863E+02  0.52181162188E+02 -0.12080062416E+03  0.13406220584E+03  0.47000000000E+01 0. -1.
        -13    1    4    4    0    0  0.33998471219E+02 -0.43737356499E+02 -0.11910991540E+03  0.13136218766E+03  0.00000000000E+00 0.  1.
         14    1    4    4    0    0  0.23234083596E+02 -0.20692895547E+02  0.64552297111E+01  0.31775596883E+02  0.00000000000E+00 0. -1.
         -5    1    5    5    0  502 -0.26101795793E+02  0.81604998011E+01 -0.54181797033E+02  0.60874088333E+02  0.47000000000E+01 0.  1.
         11    1    6    6    0    0  0.37347925810E+02  0.24573625107E+02  0.19712325126E+02  0.48860069331E+02  0.00000000000E+00 0. -1.
        -12    1    6    6    0    0 -0.43281054969E+02 -0.20485035049E+02  0.45319618883E+02  0.65929919125E+02  0.00000000000E+00 0.  1.
</event>
<event>
12    1  0.8562501E-002  0.2302124E+03  0.7818608E-02  0.1127512E+00
         21   -1    0    0  501  502  0.00000000000E+00  0.00000000000E+00  0.60396485184E+03  0.60396485184E+03  0.00000000000E+00 0.  1.
         21   -1    0    0  502  503 -0.00000000000E+00 -0.00000000000E+00 -0.11222953737E+03  0.11222953737E+03  0.00000000000E+00 0. -1.
         -6    2    1    2    0  503  0.14402402534E+03 -0.51471580949E+02  0.41799790266E+03  0.47446115622E+03  0.16431341580E+03 0.  0.
        -24    2    3    3    0    0  0.86071513692E+02 -0.91482278125E+02  0.29979119013E+03  0.33678666191E+03  0.88165669523E+02 0.  0.
          6    2    1    2  501    0 -0.14402402534E+03  0.51471580949E+02  0.73737411806E+02  0.24173323300E+03  0.17206250758E+03 0.  0.
         24    2    5    5    0    0 -0.79099181910E+02  0.15692744389E+02  0.11045387779E+03  0.15887462261E+03  0.80858789178E+02 0.  0.
          5    1    5    5  501    0 -0.64924843434E+02  0.35778836560E+02 -0.36716465980E+02  0.82858610383E+02  0.47000000000E+01 0. -1.
        -11    1    6    6    0    0 -0.36820139443E+02  0.38045205185E+02  0.20075927589E+02  0.56623344786E+02  0.00000000000E+00 0.  1.
         12    1    6    6    0    0 -0.42279042467E+02 -0.22352460796E+02  0.90377950197E+02  0.10225127783E+03  0.00000000000E+00 0. -1.
         -5    1    3    3    0  503  0.57952511652E+02  0.40010697176E+02  0.11820671253E+03  0.13767449431E+03  0.47000000000E+01 0.  1.
         13    1    4    4    0    0  0.57502371298E+02 -0.61378162984E+02  0.91015770932E+02  0.12392607536E+03  0.00000000000E+00 0. -1.
        -14    1    4    4    0    0  0.28569142394E+02 -0.30104115141E+02  0.20877541920E+03  0.21286058655E+03  0.00000000000E+00 0.  1.
</event>
<event>
12    1  0.8562501E-002  0.1875525E+03  0.7818608E-02  0.1160842E+00
         21   -1    0    0  503  502  0.00000000000E+00  0.00000000000E+00  0.20226581696E+03  0.20226581696E+03  0.00000000000E+00 0.  1.
         21   -1    0    0  501  503 -0.00000000000E+00 -0.00000000000E+00 -0.18988789016E+03  0.18988789016E+03  0.00000000000E+00 0. -1.
          6    2    1    2  501    0 -0.69844574228E+02  0.21780006567E+02  0.64152443620E+02  0.19758616485E+03  0.17196547119E+03 0.  0.
         24    2    3    3    0    0 -0.15669702029E+02  0.74938271194E+02  0.57156824193E+02  0.12122029179E+03  0.74606786151E+02 0.  0.
         -6    2    1    2    0  502  0.69844574228E+02 -0.21780006567E+02 -0.51774516820E+02  0.19456754227E+03  0.17269422306E+03 0.  0.
        -24    2    5    5    0    0  0.90318729985E+02  0.36428787785E+02 -0.32211363130E+02  0.12966560257E+03  0.79316246823E+02 0.  0.
          5    1    3    3  501    0 -0.54174872199E+02 -0.53158264627E+02  0.69956194277E+01  0.76365873052E+02  0.47000000000E+01 0. -1.
        -13    1    4    4    0    0 -0.34906111598E+02  0.26287021533E+02  0.53069658843E+02  0.68744693015E+02  0.00000000000E+00 0.  1.
         14    1    4    4    0    0  0.19236409568E+02  0.48651249661E+02  0.40871653493E+01  0.52475598780E+02  0.00000000000E+00 0. -1.
         -5    1    5    5    0  502 -0.20474155757E+02 -0.58208794353E+02 -0.19563153690E+02  0.64901939695E+02  0.47000000000E+01 0.  1.
         13    1    6    6    0    0  0.47501849156E+02 -0.15919255618E+02 -0.36371914660E+02  0.61909325216E+02  0.00000000000E+00 0. -1.
        -14    1    6    6    0    0  0.42816880829E+02  0.52348043403E+02  0.41605515305E+01  0.67756277356E+02  0.00000000000E+00 0.  1.
</event>
<event>
12    1  0.8562501E-002  0.2514068E+03  0.7818608E-02  0.1112423E+00
         21   -1    0    0  503  502  0.00000000000E+00  0.00000000000E+00  0.43398462799E+03  0.43398462799E+03  0.00000000000E+00 0.  1.
         21   -1    0    0  501  503 -0.00000000000E+00 -0.00000000000E+00 -0.14958934056E+03  0.14958934056E+03  0.00000000000E+00 0.  1.
          6    2    1    2  501    0 -0.12690387695E+03  0.13226361300E+03  0.18969051296E+03  0.31492111692E+03  0.17203070036E+03 0.  0.
         24    2    3    3    0    0 -0.11421734997E+03  0.15878900259E+03  0.19170285805E+03  0.28507679094E+03  0.79115362410E+02 0.  0.
         -6    2    1    2    0  502  0.12690387695E+03 -0.13226361300E+03  0.94704774476E+02  0.26865285163E+03  0.17206714699E+03 0.  0.
        -24    2    5    5    0    0 -0.17239938333E+01 -0.41983166390E+02  0.10167051418E+02  0.90146815877E+02  0.79104494584E+02 0.  0.
          5    1    3    3  501    0 -0.12686526985E+02 -0.26525389597E+02 -0.20123450965E+01  0.29844325976E+02  0.47000000000E+01 0. -1.
        -11    1    4    4    0    0 -0.92454891480E+01  0.68125022121E+02  0.40073998268E+02  0.79576523207E+02  0.00000000000E+00 0.  1.
         12    1    4    4    0    0 -0.10497186082E+03  0.90663980473E+02  0.15162885978E+03  0.20550026773E+03  0.00000000000E+00 0. -1.
         -5    1    5    5    0  502  0.12862787078E+03 -0.90280446607E+02  0.84537723058E+02  0.17850603576E+03  0.47000000000E+01 0.  1.
         11    1    6    6    0    0  0.32476476193E+02 -0.80201542718E+01 -0.13957736264E+02  0.36247245166E+02  0.00000000000E+00 0. -1.
        -12    1    6    6    0    0 -0.34200470027E+02 -0.33963012118E+02  0.24124787682E+02  0.53899570712E+02  0.00000000000E+00 0.  1.
</event>
<event>
12    1  0.8562501E-002  0.1775767E+03  0.7818608E-02  0.1170208E+00
         21   -1    0    0  503  502  0.00000000000E+00  0.00000000000E+00  0.16589711216E+03  0.16589711216E+03  0.00000000000E+00 0.  1.
         21   -1    0    0  501  503 -0.00000000000E+00 -0.00000000000E+00 -0.31744629193E+03  0.31744629193E+03  0.00000000000E+00 0.  1.
          6    2    1    2  501    0  0.15876182550E+02  0.38389069308E+02 -0.22893618575E+03  0.28963682489E+03  0.17248750497E+03 0.  0.
         24    2    3    3    0    0 -0.12852060212E+02  0.88099065125E+02 -0.14604786620E+03  0.18869645074E+03  0.79685322175E+02 0.  0.
         -6    2    1    2    0  502 -0.15876182550E+02 -0.38389069308E+02  0.77387005984E+02  0.19370657920E+03  0.17264911328E+03 0.  0.
        -24    2    5    5    0    0 -0.67690108567E+02 -0.26998255147E+01  0.80278093921E+02  0.13054920876E+03  0.77519569709E+02 0.  0.
          5    1    3    3  501    0  0.28728242762E+02 -0.49709995817E+02 -0.82888319546E+02  0.10094037415E+03  0.47000000000E+01 0. -1.
        -11    1    4    4    0    0 -0.14563100927E+02  0.64126751084E+02 -0.15051353622E+03  0.16425178446E+03  0.00000000000E+00 0.  1.
         12    1    4    4    0    0  0.17110407156E+01  0.23972314041E+02  0.44656700121E+01  0.24444666278E+02  0.00000000000E+00 0. -1.
         -5    1    5    5    0  502  0.51813926017E+02 -0.35689243793E+02 -0.28910879370E+01  0.63157370443E+02  0.47000000000E+01 0.  1.
         11    1    6    6    0    0 -0.51466984721E+00  0.16076688680E+02 -0.80620082730E+01  0.17992242255E+02  0.00000000000E+00 0. -1.
        -12    1    6    6    0    0 -0.67175438720E+02 -0.18776514195E+02  0.88340102194E+02  0.11255696650E+03  0.00000000000E+00 0.  1.
</event>
<event>
12    1  0.8562501E-002  0.2520335E+03  0.7818608E-02  0.1112193E+00
         21   -1    0    0  501  502  0.00000000000E+00  0.00000000000E+00  0.33937758883E+03  0.33937758883E+03  0.00000000000E+00 0.  1.
         21   -1    0    0  502  503 -0.00000000000E+00 -0.00000000000E+00 -0.25462955936E+03  0.25462955936E+03  0.00000000000E+00 0.  1.
         -6    2    1    2    0  503  0.11667534765E+03  0.14407046826E+03  0.19607330025E+03  0.31848179301E+03  0.16916405302E+03 0.  0.
        -24    2    3    3    0    0  0.12797510432E+03  0.54827043632E+02  0.12488462324E+03  0.20366894062E+03  0.80630243783E+02 0.  0.
          6    2    1    2  501    0 -0.11667534765E+03 -0.14407046826E+03 -0.11132527078E+03  0.27552535517E+03  0.17073801234E+03 0.  0.
         24    2    5    5    0    0 -0.10010497386E+03 -0.14466277588E+03 -0.33785529910E+02  0.19609343760E+03  0.79767472820E+02 0.  0.
          5    1    5    5  501    0 -0.16570373785E+02  0.59230762761E+00 -0.77539740865E+02  0.79431917572E+02  0.47000000000E+01 0. -1.
        -13    1    6    6    0    0 -0.18225921202E+02  0.80158465861E+01 -0.32082653496E+01  0.20167572157E+02  0.00000000000E+00 0.  1.
         14    1    6    6    0    0 -0.81879052663E+02 -0.15267862247E+03 -0.30577264560E+02  0.17592586544E+03  0.00000000000E+00 0. -1.
         -5    1    3    3    0  503 -0.11299756669E+02  0.89243424625E+02  0.71188677012E+02  0.11481285239E+03  0.47000000000E+01 0.  1.
         11    1    4    4    0    0  0.62140811550E+02 -0.81660061742E+01  0.22452225070E+02  0.66575269639E+02  0.00000000000E+00 0. -1.
        -12    1    4    4    0    0  0.65834292769E+02  0.62993049806E+02  0.10243239817E+03  0.13709367098E+03  0.00000000000E+00 0.  1.
</event>
<event>
12    1  0.8562501E-002  0.1927788E+03  0.7818608E-02  0.1156169E+00
         21   -1    0    0  501  502  0.00000000000E+00  0.00000000000E+00  0.42771082326E+03  0.42771082326E+03  0.00000000000E+00 0. -1.
         21   -1    0    0  502  503 -0.00000000000E+00 -0.00000000000E+00 -0.28250904880E+03  0.28250904880E+03  0.00000000000E+00 0. -1.
         -6    2    1    2    0  503  0.86690906269E+02 -0.72911063574E+01 -0.22313812890E+03  0.29488010585E+03  0.17203249342E+03 0.  0.
        -24    2    3    3    0    0  0.92083227165E+02  0.26994264141E+02 -0.22756858198E+03  0.25957737693E+03  0.79905845119E+02 0.  0.
          6    2    1    2  501    0 -0.86690906269E+02  0.72911063574E+01  0.36833990336E+03  0.41533976620E+03  0.17106830075E+03 0.  0.
         24    2    5    5    0    0 -0.10628058252E+03 -0.34537285854E+02  0.32036820136E+03  0.34858091658E+03  0.79902970067E+02 0.  0.
          5    1    5    5  501    0  0.19589676246E+02  0.41828392212E+02  0.47971701997E+02  0.66758849623E+02  0.47000000000E+01 0. -1.
        -11    1    6    6    0    0 -0.47411485265E+01 -0.14266582382E+02  0.37958871321E+01  0.15505567430E+02  0.00000000000E+00 0.  1.
         12    1    6    6    0    0 -0.10153943399E+03 -0.20270703472E+02  0.31657231423E+03  0.33307534915E+03  0.00000000000E+00 0. -1.
         -5    1    3    3    0  503 -0.53923208963E+01 -0.34285370498E+02  0.44304530808E+01  0.35302728922E+02  0.47000000000E+01 0.  1.
         13    1    4    4    0    0  0.99947109260E+02  0.34514680852E+02 -0.22468233699E+03  0.24832003624E+03  0.00000000000E+00 0. -1.
        -14    1    4    4    0    0 -0.78638820944E+01 -0.75204167112E+01 -0.28862449918E+01  0.11257340683E+02  0.00000000000E+00 0.  1.
</event>
<event>
12    1  0.8562501E-002  0.2292109E+03  0.7818608E-02  0.1127239E+00
         21   -1    0    0  501  502  0.00000000000E+00  0.00000000000E+00  0.24622257047E+04  0.24622257047E+04  0.00000000000E+00 0. -1.
         21   -1    0    0  502  503 -0.00000000000E+00 -0.00000000000E+00 -0.40847508417E+02  0.40847508417E+02  0.00000000000E+00 0.  1.
         -6    2    1    2    0  503 -0.45123935613E+02 -0.14421744234E+03  0.34557811643E+03  0.41468283437E+03  0.17234493994E+03 0.  0.
        -24    2    3    3    0    0  0.35944464778E+02 -0.10395237369E+03  0.23750179318E+03  0.27362985516E+03  0.79800346658E+02 0.  0.
          6    2    1    2  501    0  0.45123935613E+02  0.14421744234E+03  0.20758000798E+04  0.20883903787E+04  0.17202779515E+03 0.  0.
         24    2    5    5    0    0  0.26851864219E+02  0.39730493277E+02  0.47590244376E+03  0.48497342515E+03  0.80103385808E+02 0.  0.
          5    1    5    5  501    0  0.18272071394E+02  0.10448694906E+03  0.15998976361E+04  0.16034169536E+04  0.47000000000E+01 0. -1.
        -13    1    6    6    0    0 -0.71339506678E+01 -0.21148836644E+02  0.83869187987E+02  0.86788289746E+02  0.00000000000E+00 0.  1.
         14    1    6    6    0    0  0.33985814887E+02  0.60879329921E+02  0.39203325578E+03  0.39818513541E+03  0.00000000000E+00 0. -1.
         -5    1    3    3    0  503 -0.81068400391E+02 -0.40265068645E+02  0.10807632325E+03  0.14105297920E+03  0.47000000000E+01 0.  1.
         13    1    4    4    0    0  0.16258033776E+01  0.10750399784E+02  0.49960500608E+02  0.51129892951E+02  0.00000000000E+00 0. -1.
        -14    1    4    4    0    0  0.34318661400E+02 -0.11470277348E+03  0.18754129258E+03  0.22249996221E+03  0.00000000000E+00 0.  1.
</event>
<event>
12    1  0.8562501E-002  0.1751936E+03  0.7818608E-02  0.1172647E+00
         21   -1    0    0  501  502  0.00000000000E+00  0.00000000000E+00  0.17160090919E+04  0.17160090919E+04  0.00000000000E+00 0. -1.
         21   -1    0    0  502  503 -0.00000000000E+00 -0.00000000000E+00 -0.18408024034E+02  0.18408024034E+02  0.00000000000E+00 0. -1.
         -6    2    1    2    0  503  0.22633387912E+02  0.15387155980E+02  0.69568709282E+03  0.71730138771E+03  0.17260276615E+03 0.  0.
        -24    2    3    3    0    0 -0.40958934102E+02 -0.30347218844E+02  0.37007136554E+03  0.38236361989E+03  0.81550807799E+02 0.  0.
          6    2    1    2  501    0 -0.22633387912E+02 -0.15387155980E+02  0.10019139750E+04  0.10171157282E+04  0.17304264324E+03 0.  0.
         24    2    5    5    0    0  0.50363436236E+02  0.30191425269E+00  0.68500382964E+03  0.69149506928E+03  0.79991358079E+02 0.  0.
          5    1    5    5  501    0 -0.72996824148E+02 -0.15689070232E+02  0.31691014539E+03  0.32562065892E+03  0.47000000000E+01 0. -1.
        -13    1    6    6    0    0  0.34953830947E+02 -0.12357837320E+02  0.65114402929E+03  0.65219861494E+03  0.00000000000E+00 0.  1.
         14    1    6    6    0    0  0.15409605289E+02  0.12659751573E+02  0.33859800342E+02  0.39296454347E+02  0.00000000000E+00 0. -1.
         -5    1    3    3    0  503  0.63592322014E+02  0.45734374824E+02  0.32561572728E+03  0.33493776782E+03  0.47000000000E+01 0.  1.
         11    1    4    4    0    0  0.21593543569E+02 -0.38200012797E+01  0.16205434996E+03  0.16353129937E+03  0.00000000000E+00 0. -1.
        -12    1    4    4    0    0 -0.62552477671E+02 -0.26527217565E+02  0.20801701558E+03  0.21883232052E+03  0.00000000000E+00 0.  1.
</event>
<event>
12    1  0.8562501E-002  0.3280927E+03  0.7818608E-02  0.1072039E+00
         21   -1    0    0  501  502  0.00000000000E+00  0.00000000000E+00  0.39191166813E+02  0.39191166813E+02  0.00000000000E+00 0. -1.
         21   -1    0    0  502  503 -0.00000000000E+00 -0.00000000000E+00 -0.34134556431E+04  0.34134556431E+04  0.00000000000E+00 0. -1.
         -6    2    1    2    0  503  0.16138855500E+03  0.22801635015E+03 -0.24534808386E+04  0.24753207902E+04  0.17206704423E+03 0.  0.
        -24    2    3    3    0    0  0.14436116909E+03  0.24884950357E+03 -0.21598407305E+04  0.21804130839E+04  0.80765171976E+02 0.  0.
          6    2    1    2  501    0 -0.16138855500E+03 -0.22801635015E+03 -0.92078363770E+03  0.97732601966E+03  0.17113129356E+03 0.  0.
         24    2    5    5    0    0 -0.38813580937E+02 -0.92872526334E+02 -0.23683686030E+03  0.26944625466E+03  0.79861038950E+02 0.  0.
          5    1    5    5  501    0 -0.12257497406E+03 -0.13514382381E+03 -0.68394677740E+03  0.70787976500E+03  0.47000000000E+01 0. -1.
        -11    1    6    6    0    0 -0.10588007654E+02 -0.77185117912E+01 -0.12679657566E+03  0.12747177307E+03  0.00000000000E+00 0.  1.
         12    1    6    6    0    0 -0.28225573283E+02 -0.85154014543E+02 -0.11004028464E+03  0.14197448159E+03  0.00000000000E+00 0. -1.
         -5    1    3    3    0  503  0.17027385901E+02 -0.20833153421E+02 -0.29364010812E+03  0.29490770632E+03  0.47000000000E+01 0.  1.
         11    1    4    4    0    0  0.13804901028E+03  0.17155407183E+03 -0.16742309310E+04  0.16886496200E+04  0.00000000000E+00 0. -1.
        -12    1    4    4    0    0  0.63121588104E+01  0.77295431742E+02 -0.48560979950E+03  0.49176346396E+03  0.00000000000E+00 0.  1.
</event>
<event>
12    1  0.8562501E-002  0.1988046E+03  0.7818608E-02  0.1151217E+00
         21   -1    0    0  503  502  0.00000000000E+00  0.00000000000E+00  0.13749421757E+04  0.13749421757E+04  0.00000000000E+00 0.  1.
         21   -1    0    0  501  503 -0.00000000000E+00 -0.00000000000E+00 -0.28975954571E+02  0.28975954571E+02  0.00000000000E+00 0.  1.
          6    2    1    2  501    0 -0.74756047246E+02  0.65544822105E+02  0.57311278832E+03  0.60590452775E+03  0.16963914144E+03 0.  0.
         24    2    3    3    0    0 -0.10819728296E+03  0.15148379586E+02  0.41346171037E+03  0.43511613718E+03  0.80245507308E+02 0.  0.
         -6    2    1    2    0  502  0.74756047246E+02 -0.65544822105E+02  0.77285343280E+03  0.79801360251E+03  0.17215891177E+03 0.  0.
        -24    2    5    5    0    0  0.10128466692E+03 -0.53635558452E+02  0.74134844552E+03  0.75488295858E+03  0.84352869515E+02 0.  0.
          5    1    3    3  501    0  0.33441235716E+02  0.50396442518E+02  0.15965107795E+03  0.17078839057E+03  0.47000000000E+01 0. -1.
        -11    1    4    4    0    0 -0.78884426508E+02  0.32104172038E+02  0.17907681074E+03  0.19829759139E+03  0.00000000000E+00 0.  1.
         12    1    4    4    0    0 -0.29312856454E+02 -0.16955792451E+02  0.23438489963E+03  0.23681854578E+03  0.00000000000E+00 0. -1.
         -5    1    5    5    0  502 -0.26528619674E+02 -0.11909263653E+02  0.31504987278E+02  0.43130643931E+02  0.47000000000E+01 0.  1.
         13    1    6    6    0    0  0.85001174310E+02 -0.27038362539E+02  0.68229371077E+03  0.68809954253E+03  0.00000000000E+00 0. -1.
        -14    1    6    6    0    0  0.16283492609E+02 -0.26597195913E+02  0.59054734753E+02  0.66783416046E+02  0.00000000000E+00 0.  1.
</event>
<event>
12    1  0.8562501E-002  0.2232148E+03  0.7818608E-02  0.1131672E+00
         21   -1    0    0  503  502  0.00000000000E+00  0.00000000000E+00  0.60806693146E+03  0.60806693146E+03  0.00000000000E+00 0.  1.
         21   -1    0    0  501  503 -0.00000000000E+00 -0.00000000000E+00 -0.11069830788E+03  0.11069830788E+03  0.00000000000E+00 0.  1.
          6    2    1    2  501    0 -0.10617914619E+03 -0.94786235054E+02  0.64104612533E+02  0.23138185663E+03  0.17079145408E+03 0.  0.
         24    2    3    3    0    0 -0.14213752730E+03 -0.73298884443E+02  0.38635305589E+02  0.18213262308E+03  0.78126835491E+02 0.  0.
         -6    2    1    2    0  502  0.10617914619E+03  0.94786235054E+02  0.43326401105E+03  0.48738338272E+03  0.17194887915E+03 0.  0.
        -24    2    5    5    0    0  0.12020961018E+03  0.57749121889E+02  0.40262293764E+03  0.43708858129E+03  0.10562143022E+03 0.  0.
          5    1    3    3  501    0  0.35958381114E+02 -0.21487350611E+02  0.25469306944E+02  0.49249233545E+02  0.47000000000E+01 0. -1.
        -13    1    4    4    0    0 -0.56658781105E+02 -0.71624103632E+02  0.95377517457E+01  0.91821557413E+02  0.00000000000E+00 0.  1.
         14    1    4    4    0    0 -0.85478746197E+02 -0.16747808106E+01  0.29097553843E+02  0.90311065667E+02  0.00000000000E+00 0. -1.
         -5    1    5    5    0  502 -0.14030463991E+02  0.37037113165E+02  0.30641073412E+02  0.50294801433E+02  0.47000000000E+01 0.  1.
         13    1    6    6    0    0 -0.40884210451E+00 -0.20816940930E+02  0.22666532654E+02  0.30777977258E+02  0.00000000000E+00 0. -1.
        -14    1    6    6    0    0  0.12061845228E+03  0.78566062819E+02  0.37995640498E+03  0.40631060403E+03  0.00000000000E+00 0.  1.
</event>
<event>
12    1  0.8562501E-002  0.2611117E+03  0.7818608E-02  0.1106494E+00
         21   -1    0    0  503  502  0.00000000000E+00  0.00000000000E+00  0.13905400984E+03  0.13905400984E+03  0.00000000000E+00 0. -1.
         21   -1    0    0  501  503 -0.00000000000E+00 -0.00000000000E+00 -0.69690545872E+03  0.69690545872E+03  0.00000000000E+00 0. -1.
          6    2    1    2  501    0 -0.18101203319E+03  0.76155351308E+02 -0.50657681981E+03  0.56986101480E+03  0.17192006318E+03 0.  0.
         24    2    3    3    0    0 -0.24674995089E+02  0.50581205951E+02 -0.14330118854E+03  0.17351951979E+03  0.80040485578E+02 0.  0.
         -6    2    1    2    0  502  0.18101203319E+03 -0.76155351308E+02 -0.51274629063E+02  0.26609845376E+03  0.17208807575E+03 0.  0.
        -24    2    5    5    0    0  0.90786892539E+02 -0.47945633939E+02  0.40288098794E+02  0.13440871501E+03  0.76821403891E+02 0.  0.
          5    1    3    3  501    0 -0.15633703810E+03  0.25574145357E+02 -0.36327563127E+03  0.39634149501E+03  0.47000000000E+01 0. -1.
        -11    1    4    4    0    0 -0.11276762045E+02 -0.21081181827E+02 -0.25262357818E+02  0.34781723821E+02  0.00000000000E+00 0.  1.
         12    1    4    4    0    0 -0.13398233043E+02  0.71662387779E+02 -0.11803883072E+03  0.13873779597E+03  0.00000000000E+00 0. -1.
         -5    1    5    5    0  502  0.90225140652E+02 -0.28209717369E+02 -0.91562727857E+02  0.13168973875E+03  0.47000000000E+01 0.  1.
         11    1    6    6    0    0 -0.48561474315E+01 -0.85477323986E+01  0.28681834162E+02  0.30319853363E+02  0.00000000000E+00 0. -1.
        -12    1    6    6    0    0  0.95643039970E+02 -0.39397901540E+02  0.11606264632E+02  0.10408886165E+03  0.00000000000E+00 0.  1.
</event>
<event>
12    1  0.8562501E-002  0.1906479E+03  0.7818608E-02  0.1158200E+00
         21   -1    0    0  503  502  0.00000000000E+00  0.00000000000E+00  0.12971876717E+04  0.12971876717E+04  0.00000000000E+00 0.  1.
         21   -1    0    0  501  503 -0.00000000000E+00 -0.00000000000E+00 -0.38377027440E+02  0.38377027440E+02  0.00000000000E+00 0. -1.
          6    2    1    2  501    0 -0.68588286977E+02 -0.42832380179E+02  0.27729060471E+03  0.33570059578E+03  0.17107262973E+03 0.  0.
         24    2    3    3    0    0 -0.72133293392E+02  0.40707246729E+01  0.87009431883E+02  0.13963559878E+03  0.81900405341E+02 0.  0.
         -6    2    1    2    0  502  0.68588286977E+02  0.42832380179E+02  0.98152003957E+03  0.99986410338E+03  0.17264898277E+03 0.  0.
        -24    2    5    5    0    0 -0.28527737885E+02  0.28448966042E+02  0.36113921259E+03  0.37174559118E+03  0.78422434250E+02 0.  0.
          5    1    3    3  501    0  0.35450064153E+01 -0.46903104851E+02  0.19028117283E+03  0.19606499700E+03  0.47000000000E+01 0. -1.
        -13    1    4    4    0    0 -0.23023023779E+02 -0.25613180269E+02  0.72774298937E+02  0.80512068742E+02  0.00000000000E+00 0.  1.
         14    1    4    4    0    0 -0.49110269613E+02  0.29683904942E+02  0.14235132946E+02  0.59123530037E+02  0.00000000000E+00 0. -1.
         -5    1    5    5    0  502  0.97116024862E+02  0.14383414136E+02  0.62038082699E+03  0.62811851221E+03  0.47000000000E+01 0.  1.
         11    1    6    6    0    0 -0.31341655546E+02  0.13980972448E+02  0.52297291085E+02  0.62552167172E+02  0.00000000000E+00 0. -1.
        -12    1    6    6    0    0  0.28139176613E+01  0.14467993594E+02  0.30884192150E+03  0.30919342400E+03  0.00000000000E+00 0.  1.
</event>
<event>
12    1  0.8562501E-002  0.1950080E+03  0.7818608E-02  0.1154241E+00
         21   -1    0    0  501  502  0.00000000000E+00  0.00000000000E+00  0.22388470931E+03  0.22388470931E+03  0.00000000000E+00 0.  1.
         21   -1    0    0  502  503 -0.00000000000E+00 -0.00000000000E+00 -0.57706928622E+03  0.57706928622E+03  0.00000000000E+00 0. -1.
         -6    2    1    2    0  503 -0.82389173491E+02 -0.37881767090E+02 -0.51323495514E+03  0.54867591655E+03  0.17149967357E+03 0.  0.
        -24    2    3    3    0    0 -0.43275106652E+02  0.25613539411E+02 -0.41346650444E+03  0.42402681736E+03  0.79469511715E+02 0.  0.
          6    2    1    2  501    0  0.82389173491E+02  0.37881767090E+02  0.16005037824E+03  0.25227807899E+03  0.17264154013E+03 0.  0.
         24    2    5    5    0    0  0.57290847759E+02  0.68444911421E+02  0.31732935941E+02  0.11792225387E+03  0.70226288508E+02 0.  0.
          5    1    5    5  501    0  0.25098325732E+02 -0.30563144331E+02  0.12831744229E+03  0.13435582512E+03  0.47000000000E+01 0. -1.
        -13    1    6    6    0    0  0.61260500964E+02  0.33536936816E+02  0.41777757641E+02  0.81381546697E+02  0.00000000000E+00 0.  1.
         14    1    6    6    0    0 -0.39696532049E+01  0.34907974604E+02 -0.10044821700E+02  0.36540707171E+02  0.00000000000E+00 0. -1.
         -5    1    3    3    0  503 -0.39114066839E+02 -0.63495306501E+02 -0.99768450703E+02  0.12464909919E+03  0.47000000000E+01 0.  1.
         13    1    4    4    0    0 -0.30338761560E+02  0.15005733392E+02 -0.40272716091E+03  0.40414697651E+03  0.00000000000E+00 0. -1.
        -14    1    4    4    0    0 -0.12936345092E+02  0.10607806018E+02 -0.10739343529E+02  0.19879840852E+02  0.00000000000E+00 0.  1.
</event>
<event>
12    1  0.8562501E-002  0.2786052E+03  0.7818608E-02  0.1096504E+00
         21   -1    0    0  501  502  0.00000000000E+00  0.00000000000E+00  0.24650423719E+02  0.24650423719E+02  0.00000000000E+00 0. -1.
         21   -1    0    0  502  503 -0.00000000000E+00 -0.00000000000E+00 -0.31955213760E+04  0.31955213760E+04  0.00000000000E+00 0. -1.
         -6    2    1    2    0  503 -0.42483915126E+02  0.21517549100E+03 -0.17895771217E+04  0.18111342150E+04  0.17180074198E+03 0.  0.
        -24    2    3    3    0    0  0.20803941450E+02  0.19292621631E+03 -0.14217948105E+04  0.14372541520E+04  0.80905409886E+02 0.  0.
          6    2    1    2  501    0  0.42483915126E+02 -0.21517549100E+03 -0.13812938305E+04  0.14090375848E+04  0.17119840543E+03 0.  0.
         24    2    5    5    0    0  0.57788433479E+02 -0.23387281220E+03 -0.12517156772E+04  0.12771421492E+04  0.79145040078E+02 0.  0.
          5    1    5    5  501    0 -0.15304518352E+02  0.18697321195E+02 -0.12957815331E+03  0.13189543555E+03  0.47000000000E+01 0. -1.
        -13    1    6    6    0    0  0.45047646181E+02 -0.47824423415E+02 -0.27066267538E+03  0.27852244029E+03  0.00000000000E+00 0.  1.
         14    1    6    6    0    0  0.12740787298E+02 -0.18604838878E+03 -0.98105300184E+03  0.99861970892E+03  0.00000000000E+00 0. -1.
         -5    1    3    3    0  503 -0.63287856576E+02  0.22249274691E+02 -0.36778231124E+03  0.37388006296E+03  0.47000000000E+01 0.  1.
         13    1    4    4    0    0 -0.79453409289E+01  0.12960292637E+03 -0.11225449881E+04  0.11300297772E+04  0.00000000000E+00 0. -1.
        -14    1    4    4    0    0  0.28749282379E+02  0.63323289935E+02 -0.29924982239E+03  0.30722437483E+03  0.00000000000E+00 0.  1.
</event>
<event>
12    1  0.8562501E-002  0.1965292E+03  0.7818608E-02  0.1152827E+00
         21   -1    0    0  503  502  0.00000000000E+00  0.00000000000E+00  0.34287980494E+04  0.34287980494E+04  0.00000000000E+00 0. -1.
         21   -1    0    0  501  503 -0.00000000000E+00 -0.00000000000E+00 -0.94391233887E+02  0.94391233887E+02  0.00000000000E+00 0. -1.
          6    2    1    2  501    0  0.38386343810E+02  0.86024728715E+02  0.14022984906E+02  0.19702882257E+03  0.17248173085E+03 0.  0.
         24    2    3    3    0    0  0.42679303589E+01  0.24293278482E+02  0.68517012444E+02  0.10777341870E+03  0.79449041367E+02 0.  0.
         -6    2    1    2    0  502 -0.38386343810E+02 -0.86024728715E+02  0.33203838306E+04  0.33261604607E+04  0.17181636274E+03 0.  0.
        -24    2    5    5    0    0  0.37033216258E+02 -0.19034780972E+02  0.19195111499E+04  0.19216526748E+04  0.80573978288E+02 0.  0.
          5    1    3    3  501    0  0.34118413451E+02  0.61731450233E+02 -0.54494027539E+02  0.89255403879E+02  0.47000000000E+01 0. -1.
        -11    1    4    4    0    0  0.63809756466E+01 -0.28075185917E+02  0.35990545678E+02  0.46089611548E+02  0.00000000000E+00 0.  1.
         12    1    4    4    0    0 -0.21130452877E+01  0.52368464399E+02  0.32526466766E+02  0.61683807147E+02  0.00000000000E+00 0. -1.
         -5    1    5    5    0  502 -0.75419560068E+02 -0.66989947743E+02  0.14008726807E+04  0.14045077859E+04  0.47000000000E+01 0.  1.
         11    1    6    6    0    0 -0.93076523709E+01 -0.39008074007E+02  0.79883429087E+03  0.79984028812E+03  0.00000000000E+00 0. -1.
        -12    1    6    6    0    0  0.46340868629E+02  0.19973293034E+02  0.11206768590E+04  0.11218123867E+04  0.00000000000E+00 0.  1.
</event>
<event>
12    1  0.8562501E-002  0.2117080E+03  0.7818608E-02  0.1140703E+00
         21   -1    0    0  503  502  0.00000000000E+00  0.00000000000E+00  0.30009599906E+03  0.30009599906E+03  0.00000000000E+00 0. -1.
         21   -1    0    0  501  503 -0.00000000000E+00 -0.00000000000E+00 -0.24367169876E+03  0.24367169876E+03  0.00000000000E+00 0. -1.
          6    2    1    2  501    0 -0.11660578723E+02  0.11772542691E+03 -0.14257587036E+03  0.25321421331E+03  0.17261029452E+03 0.  0.
         24    2    3    3    0    0 -0.50509846711E+02  0.87258740671E+02 -0.32379818430E+02  0.13237239747E+03  0.79427114589E+02 0.  0.
         -6    2    1    2    0  502  0.11660578723E+02 -0.11772542691E+03  0.19900017067E+03  0.29055348452E+03  0.17557053911E+03 0.  0.
        -24    2    5    5    0    0 -0.43605699843E+02 -0.60786966062E+02  0.18246120640E+03  0.20936249235E+03  0.70313932184E+02 0.  0.
          5    1    3    3  501    0  0.38849267988E+02  0.30466686239E+02 -0.11019605193E+03  0.12084181584E+03  0.47000000000E+01 0. -1.
        -11    1    4    4    0    0 -0.11913673991E+02  0.84122874194E+02 -0.53151322751E+01  0.85128398444E+02  0.00000000000E+00 0.  1.
         12    1    4    4    0    0 -0.38596172721E+02  0.31358664775E+01 -0.27064686155E+02  0.47243999025E+02  0.00000000000E+00 0. -1.
         -5    1    5    5    0  502  0.55266278566E+02 -0.56938460848E+02  0.16538964264E+02  0.81190992168E+02  0.47000000000E+01 0.  1.
         11    1    6    6    0    0 -0.30831850118E+02 -0.74301549321E+02  0.12223655360E+03  0.14633215043E+03  0.00000000000E+00 0. -1.
        -12    1    6    6    0    0 -0.12773849725E+02  0.13514583259E+02  0.60224652801E+02  0.63030341920E+02  0.00000000000E+00 0.  1.
</event>
<event>
12    1  0.8562501E-002  0.1836865E+03  0.7818608E-02  0.1166082E+00
         21   -1    0    0  503  502  0.00000000000E+00  0.00000000000E+00  0.13957048337E+03  0.13957048337E+03  0.00000000000E+00 0. -1.
         21   -1    0    0  501  503 -0.00000000000E+00 -0.00000000000E+00 -0.28137646499E+03  0.28137646499E+03  0.00000000000E+00 0.  1.
          6    2    1    2  501    0  0.18758877657E+02  0.27707605788E+02 -0.15782900817E+03  0.23656293787E+03  0.17300988656E+03 0.  0.
         24    2    3    3    0    0 -0.49563772710E+02  0.44678905879E+02 -0.89162886868E+02  0.13810921375E+03  0.81678407991E+02 0.  0.
         -6    2    1    2    0  502 -0.18758877657E+02 -0.27707605788E+02  0.16023026553E+02  0.18438401048E+03  0.18061317513E+03 0.  0.
        -24    2    5    5    0    0  0.55482492655E+02 -0.29822654943E+02  0.30488302729E+02  0.10857115726E+03  0.83008805837E+02 0.  0.
          5    1    3    3  501    0  0.68322650366E+02 -0.16971300091E+02 -0.68666121300E+02  0.98453724126E+02  0.47000000000E+01 0. -1.
        -13    1    4    4    0    0 -0.49228641287E+01  0.17924727267E+01 -0.74250052004E+02  0.74434654378E+02  0.00000000000E+00 0.  1.
         14    1    4    4    0    0 -0.44640908581E+02  0.42886433152E+02 -0.14912834864E+02  0.63674559371E+02  0.00000000000E+00 0. -1.
         -5    1    5    5    0  502 -0.74241370312E+02  0.21150491545E+01 -0.14465276176E+02  0.75812853221E+02  0.47000000000E+01 0.  1.
         13    1    6    6    0    0 -0.12878328689E+02 -0.28946234318E+02  0.24295099054E+02  0.39924775129E+02  0.00000000000E+00 0. -1.
        -14    1    6    6    0    0  0.68360821344E+02 -0.87642062464E+00  0.61932036749E+01  0.68646382131E+02  0.00000000000E+00 0.  1.
</event>
<event>
12    1  0.8562501E-002  0.2121527E+03  0.7818608E-02  0.1139906E+00
         21   -1    0    0  503  502  0.00000000000E+00  0.00000000000E+00  0.37022193533E+03  0.37022193533E+03  0.00000000000E+00 0. -1.
         21   -1    0    0  501  503 -0.00000000000E+00 -0.00000000000E+00 -0.12692451923E+03  0.12692451923E+03  0.00000000000E+00 0.  1.
          6    2    1    2  501    0  0.91419899037E+02 -0.83841596396E+02  0.70094584192E+02  0.22327057562E+03  0.17189964508E+03 0.  0.
         24    2    3    3    0    0  0.78443327134E+02 -0.35221521448E+02 -0.20510750860E+02  0.11952222697E+03  0.80442281762E+02 0.  0.
         -6    2    1    2    0  502 -0.91419899037E+02  0.83841596396E+02  0.17320283191E+03  0.27387587895E+03  0.17210974656E+03 0.  0.
        -24    2    5    5    0    0 -0.12234402314E+03  0.48950894492E+02  0.91106019772E+02  0.17934736952E+03  0.80628295569E+02 0.  0.
          5    1    3    3  501    0  0.12976571903E+02 -0.48620074947E+02  0.90605335052E+02  0.10374834864E+03  0.47000000000E+01 0. -1.
        -11    1    4    4    0    0  0.22873436906E+02  0.18299568967E+02  0.16856827431E+02  0.33796759775E+02  0.00000000000E+00 0.  1.
         12    1    4    4    0    0  0.55569890228E+02 -0.53521090415E+02 -0.37367578291E+02  0.85725467199E+02  0.00000000000E+00 0. -1.
         -5    1    5    5    0  502  0.30924124104E+02  0.34890701904E+02  0.82096812136E+02  0.94528509424E+02  0.47000000000E+01 0.  1.
         13    1    6    6    0    0 -0.10643943333E+03  0.40783598553E+02  0.10631822632E+03  0.15587244826E+03  0.00000000000E+00 0. -1.
        -14    1    6    6    0    0 -0.15904589808E+02  0.81672959390E+01 -0.15212206553E+02  0.23474921259E+02  0.00000000000E+00 0.  1.
</event>
<event>
12    1  0.8562501E-002  0.2432943E+03  0.7818608E-02  0.1117776E+00
         21   -1    0    0  501  502  0.00000000000E+00  0.00000000000E+00  0.12063993792E+04  0.12063993792E+04  0.00000000000E+00 0.  1.
         21   -1    0    0  502  503 -0.00000000000E+00 -0.00000000000E+00 -0.83523572086E+02  0.83523572086E+02  0.00000000000E+00 0.  1.
         -6    2    1    2    0  503  0.13370632155E+01  0.17201458350E+03  0.14534911790E+03  0.28257467205E+03  0.17067886377E+03 0.  0.
        -24    2    3    3    0    0  0.23770338109E+01  0.28690509282E+02  0.22532016974E+02  0.93765238843E+02  0.86344847060E+02 0.  0.
          6    2    1    2  501    0 -0.13370632155E+01 -0.17201458350E+03  0.97752668917E+03  0.10073482792E+04  0.17205034981E+03 0.  0.
         24    2    5    5    0    0 -0.32019962683E+02 -0.12693286700E+03  0.89662270257E+03  0.90966846280E+03  0.80169886559E+02 0.  0.
          5    1    5    5  501    0  0.30682899467E+02 -0.45081716498E+02  0.80903986599E+02  0.97679816389E+02  0.47000000000E+01 0. -1.
        -11    1    6    6    0    0 -0.31445800367E+02 -0.12028669749E+03  0.58926138480E+03  0.60223476117E+03  0.00000000000E+00 0.  1.
         12    1    6    6    0    0 -0.57416231592E+00 -0.66461695140E+01  0.30736131777E+03  0.30743370163E+03  0.00000000000E+00 0. -1.
         -5    1    3    3    0  503 -0.10399705954E+01  0.14332407422E+03  0.12281710092E+03  0.18880943321E+03  0.47000000000E+01 0.  1.
         11    1    4    4    0    0  0.26069291470E+02  0.20997403128E+02 -0.23860956445E+02  0.41107713854E+02  0.00000000000E+00 0. -1.
        -12    1    4    4    0    0 -0.23692257659E+02  0.76931061541E+01  0.46392973419E+02  0.52657524989E+02  0.00000000000E+00 0.  1.
</event>
<event>
12    1  0.8562501E-002  0.1744895E+03  0.7818608E-02  0.1177578E+00
         21   -1    0    0  501  502  0.00000000000E+00  0.00000000000E+00  0.17939928476E+03  0.17939928476E+03  0.00000000000E+00 0. -1.
         21   -1    0    0  502  503 -0.00000000000E+00 -0.00000000000E+00 -0.27789235841E+03  0.27789235841E+03  0.00000000000E+00 0. -1.
         -6    2    1    2    0  503  0.16350611184E+02  0.20320273605E+02 -0.20301911205E+03  0.26770008760E+03  0.17252918895E+03 0.  0.
        -24    2    3    3    0    0 -0.48317781515E+02 -0.13605171851E+02 -0.14154795859E+03  0.17212953999E+03  0.84101398586E+02 0.  0.
          6    2    1    2  501    0 -0.16350611184E+02 -0.20320273605E+02  0.10452603839E+03  0.18959155556E+03  0.15600964468E+03 0.  0.
         24    2    5    5    0    0 -0.29469626948E+02 -0.13502450413E+02  0.26985547886E+01  0.86589042463E+02  0.80247149464E+02 0.  0.
          5    1    5    5  501    0  0.13119015764E+02 -0.68178231923E+01  0.10182748361E+03  0.10300251310E+03  0.47000000000E+01 0. -1.
        -13    1    6    6    0    0  0.21262998706E+02  0.12312612623E+02  0.14395025661E+02  0.28476873202E+02  0.00000000000E+00 0.  1.
         14    1    6    6    0    0 -0.50732625655E+02 -0.25815063036E+02 -0.11696470872E+02  0.58112169261E+02  0.00000000000E+00 0. -1.
         -5    1    3    3    0  503  0.64668392699E+02  0.33925445456E+02 -0.61471153462E+02  0.95570547616E+02  0.47000000000E+01 0.  1.
         11    1    4    4    0    0 -0.21918711696E+02 -0.38036939053E+02 -0.12509690020E+03  0.13257629160E+03  0.00000000000E+00 0. -1.
        -12    1    4    4    0    0 -0.26399069819E+02  0.24431767202E+02 -0.16451058390E+02  0.39553248388E+02  0.00000000000E+00 0.  1.
</event>
<event>
12    1  0.8562501E-002  0.2251529E+03  0.7818608E-02  0.1130316E+00
         21   -1    0    0  501  502  0.00000000000E+00  0.00000000000E+00  0.35949715027E+03  0.35949715027E+03  0.00000000000E+00 0.  1.
         21   -1    0    0  502  503 -0.00000000000E+00 -0.00000000000E+00 -0.15464093576E+03  0.15464093576E+03  0.00000000000E+00 0.  1.
         -6    2    1    2    0  503  0.63450487063E+02 -0.12780738442E+03  0.23796351966E+02  0.22521507953E+03  0.17261191690E+03 0.  0.
        -24    2    3    3    0    0 -0.77066206439E+01 -0.18738253508E+02  0.43906622678E+02  0.93359392186E+02  0.79860318357E+02 0.  0.
          6    2    1    2  501    0 -0.63450487063E+02  0.12780738442E+03  0.18105986255E+03  0.28892300650E+03  0.17416411237E+03 0.  0.
         24    2    5    5    0    0 -0.61849421512E+02  0.65818571914E+02  0.19145441562E+03  0.22587292306E+03  0.78780383114E+02 0.  0.
          5    1    5    5  501    0 -0.16010655502E+01  0.61988812511E+02 -0.10394553071E+02  0.63050083433E+02  0.47000000000E+01 0. -1.
        -11    1    6    6    0    0 -0.42607831984E+02  0.82958870527E+02  0.16016074539E+03  0.18533500994E+03  0.00000000000E+00 0.  1.
         12    1    6    6    0    0 -0.19241589528E+02 -0.17140298613E+02  0.31293670228E+02  0.40537913124E+02  0.00000000000E+00 0. -1.
         -5    1    3    3    0  503  0.71157107707E+02 -0.10906913092E+03 -0.20110270712E+02  0.13185568734E+03  0.47000000000E+01 0.  1.
         13    1    4    4    0    0 -0.11754833757E+02 -0.46436723110E+02  0.44469262530E+02  0.65361002745E+02  0.00000000000E+00 0. -1.
        -14    1    4    4    0    0  0.40482131131E+01  0.27698469602E+02 -0.56263985253E+00  0.27998389441E+02  0.00000000000E+00 0.  1.
</event>
<event>
12    1  0.8562501E-002  0.1886018E+03  0.7818608E-02  0.1160094E+00
         21   -1    0    0  503  502  0.00000000000E+00  0.00000000000E+00  0.20532661248E+03  0.20532661248E+03  0.00000000000E+00 0.  1.
         21   -1    0    0  501  503 -0.00000000000E+00 -0.00000000000E+00 -0.49647286485E+03  0.49647286485E+03  0.00000000000E+00 0.  1.
          6    2    1    2  501    0 -0.25072107071E+02  0.70628018454E+02 -0.42913416290E+03  0.46810885718E+03  0.17132671963E+03 0.  0.
         24    2    3    3    0    0 -0.36304405673E+02  0.79954909295E+02 -0.16480498394E+03  0.20333506642E+03  0.80459114540E+02 0.  0.
         -6    2    1    2    0  502  0.25072107071E+02 -0.70628018454E+02  0.13798791053E+03  0.23369062015E+03  0.17307141575E+03 0.  0.
        -24    2    5    5    0    0  0.64303258943E+01  0.39369388385E+01 -0.15400138773E+02  0.62058943208E+02  0.59643101691E+02 0.  0.
          5    1    3    3  501    0  0.11232298602E+02 -0.93268908407E+01 -0.26432917896E+03  0.26477379076E+03  0.47000000000E+01 0. -1.
        -13    1    4    4    0    0 -0.59539676358E+02  0.67285683458E+02 -0.14374247280E+03  0.16951175401E+03  0.00000000000E+00 0.  1.
         14    1    4    4    0    0  0.23235270685E+02  0.12669225836E+02 -0.21062511142E+02  0.33823312415E+02  0.00000000000E+00 0. -1.
         -5    1    5    5    0  502  0.18641781176E+02 -0.74564957292E+02  0.15338804930E+03  0.17163167694E+03  0.47000000000E+01 0.  1.
         13    1    6    6    0    0  0.14331898319E+02  0.29788136190E+02 -0.75058844443E+01  0.33898003900E+02  0.00000000000E+00 0. -1.
        -14    1    6    6    0    0 -0.79015724249E+01 -0.25851197352E+02 -0.78942543287E+01  0.28160939308E+02  0.00000000000E+00 0.  1.
</event>
<event>
12    1  0.8562501E-002  0.2038729E+03  0.7818608E-02  0.1146596E+00
         21   -1    0    0  501  502  0.00000000000E+00  0.00000000000E+00  0.14880236463E+03  0.14880236463E+03  0.00000000000E+00 0.  1.
         21   -1    0    0  502  503 -0.00000000000E+00 -0.00000000000E+00 -0.42076606652E+03  0.42076606652E+03  0.00000000000E+00 0.  1.
         -6    2    1    2    0  503 -0.51361973606E+01 -0.10840272243E+03 -0.30151150541E+03  0.36396886648E+03  0.17258799819E+03 0.  0.
        -24    2    3    3    0    0 -0.68304710489E+02 -0.61014650442E+02 -0.21632888550E+03  0.24771888088E+03  0.78601120851E+02 0.  0.
          6    2    1    2  501    0  0.51361973606E+01  0.10840272243E+03  0.29547803530E+02  0.20559956466E+03  0.17210629722E+03 0.  0.
         24    2    5    5    0    0 -0.60152723712E+01 -0.18723132442E+02  0.11031917245E+02  0.76563653773E+02  0.73167962189E+02 0.  0.
          5    1    5    5  501    0  0.11151469732E+02  0.12712585487E+03  0.18515886285E+02  0.12903591089E+03  0.47000000000E+01 0. -1.
        -11    1    6    6    0    0 -0.32653593105E+02  0.58019977647E+01  0.20689057231E+02  0.39089095792E+02  0.00000000000E+00 0.  1.
         12    1    6    6    0    0  0.26638320734E+02 -0.24525130207E+02 -0.96571399857E+01  0.37474557981E+02  0.00000000000E+00 0. -1.
         -5    1    3    3    0  503  0.63168513128E+02 -0.47388071990E+02 -0.85182619917E+02  0.11624998561E+03  0.47000000000E+01 0.  1.
         13    1    4    4    0    0 -0.15819430760E+02  0.17786479787E+02 -0.26718636267E+02  0.35784057579E+02  0.00000000000E+00 0. -1.
        -14    1    4    4    0    0 -0.52485279728E+02 -0.78801130230E+02 -0.18961024923E+03  0.21193482330E+03  0.00000000000E+00 0.  1.
</event>
<event>
12    1  0.8562501E-002  0.1811110E+03  0.7818608E-02  0.1166931E+00
         21   -1    0    0  503  502  0.00000000000E+00  0.00000000000E+00  0.36050554609E+03  0.36050554609E+03  0.00000000000E+00 0. -1.
         21   -1    0    0  501  503 -0.00000000000E+00 -0.00000000000E+00 -0.17880462537E+03  0.17880462537E+03  0.00000000000E+00 0. -1.
          6    2    1    2  501    0 -0.52602899520E+02  0.53271541287E+01 -0.98677338645E+02  0.20552405302E+03  0.17235856695E+03 0.  0.
         24    2    3    3    0    0 -0.24153310617E+02  0.60937437647E+02 -0.98719187451E+02  0.14288241756E+03  0.79832033400E+02 0.  0.
         -6    2    1    2    0  502  0.52602899520E+02 -0.53271541287E+01  0.28037825936E+03  0.33378611844E+03  0.17322171034E+03 0.  0.
        -24    2    5    5    0    0  0.98504528632E+02 -0.67754319071E+01  0.16002970796E+03  0.20488723990E+03  0.81364765145E+02 0.  0.
          5    1    3    3  501    0 -0.28449588903E+02 -0.55610283518E+02  0.41848806505E-01  0.62641635460E+02  0.47000000000E+01 0. -1.
        -13    1    4    4    0    0  0.19333136688E+02  0.41777215982E+02 -0.78998943510E+02  0.91432702165E+02  0.00000000000E+00 0.  1.
         14    1    4    4    0    0 -0.43486447305E+02  0.19160221665E+02 -0.19720243941E+02  0.51449715398E+02  0.00000000000E+00 0. -1.
         -5    1    5    5    0  502 -0.45901629112E+02  0.14482777783E+01  0.12034855140E+03  0.12889887853E+03  0.47000000000E+01 0.  1.
         11    1    6    6    0    0  0.62003991465E+02 -0.23716561614E+02  0.14906632644E+03  0.16318008436E+03  0.00000000000E+00 0. -1.
        -12    1    6    6    0    0  0.36500537167E+02  0.16941129707E+02  0.10963381516E+02  0.41707155544E+02  0.00000000000E+00 0.  1.
</event>
<event>
12    1  0.8562501E-002  0.1962624E+03  0.7818608E-02  0.1153910E+00
         21   -1    0    0  503  502  0.00000000000E+00  0.00000000000E+00  0.12864100292E+04  0.12864100292E+04  0.00000000000E+00 0. -1.
         21   -1    0    0  501  503 -0.00000000000E+00 -0.00000000000E+00 -0.30953811405E+02  0.30953811405E+02  0.00000000000E+00 0. -1.
          6    2    1    2  501    0  0.66549957741E+02 -0.44506103196E+02  0.46701157107E+03  0.50485912742E+03  0.17427920395E+03 0.  0.
         24    2    3    3    0    0  0.98461240969E+02 -0.44926760587E+02  0.44740765080E+03  0.46711113887E+03  0.79411461813E+02 0.  0.
         -6    2    1    2    0  502 -0.66549957741E+02  0.44506103196E+02  0.78844464672E+03  0.81250471318E+03  0.17919056310E+03 0.  0.
        -24    2    5    5    0    0 -0.37578403162E+02  0.42335983251E+02  0.77454098254E+03  0.77995533111E+03  0.72194965414E+02 0.  0.
          5    1    3    3  501    0 -0.31911283228E+02  0.42065739111E+00  0.19603920269E+02  0.37747988553E+02  0.47000000000E+01 0. -1.
        -11    1    4    4    0    0  0.21137840890E+02  0.22746330525E+02  0.12036859153E+03  0.12430929851E+03  0.00000000000E+00 0.  1.
         12    1    4    4    0    0  0.77323400079E+02 -0.67673091112E+02  0.32703905927E+03  0.34280184036E+03  0.00000000000E+00 0. -1.
         -5    1    5    5    0  502 -0.28971554579E+02  0.21701199443E+01  0.13903664172E+02  0.32549382063E+02  0.47000000000E+01 0.  1.
         11    1    6    6    0    0 -0.46102012635E+00  0.28332278371E+02  0.61154275461E+03  0.61219888211E+03  0.00000000000E+00 0. -1.
        -12    1    6    6    0    0 -0.37117383036E+02  0.14003704881E+02  0.16299822793E+03  0.16775644901E+03  0.00000000000E+00 0.  1.
</event>
<event>
12    1  0.8562501E-002  0.2185599E+03  0.7818608E-02  0.1135253E+00
         21   -1    0    0  501  502  0.00000000000E+00  0.00000000000E+00  0.39561807942E+03  0.39561807942E+03  0.00000000000E+00 0.  1.
         21   -1    0    0  502  503 -0.00000000000E+00 -0.00000000000E+00 -0.12167301607E+03  0.12167301607E+03  0.00000000000E+00 0. -1.
         -6    2    1    2    0  503 -0.45580206475E+02  0.12383602644E+03  0.10614403973E+03  0.24297115516E+03  0.17422832261E+03 0.  0.
        -24    2    3    3    0    0  0.39901271671E+02  0.51904616110E+02  0.69020652056E+02  0.12515160325E+03  0.81319571640E+02 0.  0.
          6    2    1    2  501    0  0.45580206475E+02 -0.12383602644E+03  0.16780102362E+03  0.27431994033E+03  0.17228270217E+03 0.  0.
         24    2    5    5    0    0  0.58243942329E+02 -0.33372490739E+02  0.28678308402E+02  0.10782296922E+03  0.79355323471E+02 0.  0.
          5    1    5    5  501    0 -0.12663735854E+02 -0.90463535706E+02  0.13912271521E+03  0.16649697110E+03  0.47000000000E+01 0. -1.
        -13    1    6    6    0    0  0.67445636386E+02 -0.37337646428E+02  0.44561497601E+02  0.89043476891E+02  0.00000000000E+00 0.  1.
         14    1    6    6    0    0 -0.92016940570E+01  0.39651556895E+01 -0.15883189199E+02  0.18779492333E+02  0.00000000000E+00 0. -1.
         -5    1    3    3    0  503 -0.85481478146E+02  0.71931410335E+02  0.37123387676E+02  0.11781955191E+03  0.47000000000E+01 0.  1.
         11    1    4    4    0    0  0.13810234645E+02  0.70800060752E+02  0.49482851927E+02  0.87475275468E+02  0.00000000000E+00 0. -1.
        -12    1    4    4    0    0  0.26091037026E+02 -0.18895444642E+02  0.19537800129E+02  0.37676327783E+02  0.00000000000E+00 0.  1.
</event>
<event>
12    1  0.8562501E-002  0.1740037E+03  0.7818608E-02  0.1173925E+00
         21   -1    0    0  501  502  0.00000000000E+00  0.00000000000E+00  0.18199295606E+02  0.18199295606E+02  0.00000000000E+00 0.  1.
         21   -1    0    0  502  503 -0.00000000000E+00 -0.00000000000E+00 -0.16658906590E+04  0.16658906590E+04  0.00000000000E+00 0.  1.
         -6    2    1    2    0  503 -0.13737610909E+02  0.17615591592E+02 -0.76247201688E+03  0.78207470792E+03  0.17256373088E+03 0.  0.
        -24    2    3    3    0    0  0.50885671963E+02 -0.11400607720E+02 -0.54646567465E+03  0.55470070237E+03  0.79679421299E+02 0.  0.
          6    2    1    2  501    0  0.13737610909E+02 -0.17615591592E+02 -0.88521934654E+03  0.90201524671E+03  0.17181147459E+03 0.  0.
         24    2    5    5    0    0  0.52833491826E+02  0.29634528516E+02 -0.37093021565E+03  0.38406113494E+03  0.79019917428E+02 0.  0.
          5    1    5    5  501    0 -0.39095880917E+02 -0.47250120108E+02 -0.51428913088E+03  0.51795411177E+03  0.47000000000E+01 0. -1.
        -11    1    6    6    0    0  0.67421470705E+01  0.44954699446E+02 -0.24311658407E+03  0.24732985061E+03  0.00000000000E+00 0.  1.
         12    1    6    6    0    0  0.46091344756E+02 -0.15320170931E+02 -0.12781363158E+03  0.13673128433E+03  0.00000000000E+00 0. -1.
         -5    1    3    3    0  503 -0.64623282872E+02  0.29016199312E+02 -0.21600634223E+03  0.22737400554E+03  0.47000000000E+01 0.  1.
         13    1    4    4    0    0 -0.13741853970E+02 -0.25079006428E+02 -0.19425590560E+03  0.19634956576E+03  0.00000000000E+00 0. -1.
        -14    1    4    4    0    0  0.64627525933E+02  0.13678398707E+02 -0.35220976905E+03  0.35835113662E+03  0.00000000000E+00 0.  1.
</event>
<event>
12    1  0.8562501E-002  0.3834940E+03  0.7818608E-02  0.1049993E+00
         21   -1    0    0  503  502  0.00000000000E+00  0.00000000000E+00  0.49554704013E+02  0.49554704013E+02  0.00000000000E+00 0. -1.
         21   -1    0    0  501  503 -0.00000000000E+00 -0.00000000000E+00 -0.30796071544E+04  0.30796071544E+04  0.00000000000E+00 0.  1.
          6    2    1    2  501    0  0.14020854410E+03  0.31259933283E+03 -0.18565194307E+04  0.18957141276E+04  0.17231041260E+03 0.  0.
         24    2    3    3    0    0  0.76338909054E+02  0.14392271143E+03 -0.61387620251E+03  0.64004083592E+03  0.79163777876E+02 0.  0.
         -6    2    1    2    0  502 -0.14020854410E+03 -0.31259933283E+03 -0.11735330197E+04  0.12334477308E+04  0.16381934449E+03 0.  0.
        -24    2    5    5    0    0 -0.75952366772E+01 -0.14108497247E+03 -0.49639052304E+03  0.52242908416E+03  0.81030485260E+02 0.  0.
          5    1    3    3  501    0  0.63869635046E+02  0.16867662141E+03 -0.12426432282E+04  0.12556732917E+04  0.47000000000E+01 0. -1.
        -13    1    4    4    0    0  0.38005839238E+02  0.60997828990E+02 -0.41510772770E+03  0.42128328302E+03  0.00000000000E+00 0.  1.
         14    1    4    4    0    0  0.38333069816E+02  0.82924882435E+02 -0.19876847482E+03  0.21875755290E+03  0.00000000000E+00 0. -1.
         -5    1    5    5    0  502 -0.13261330742E+03 -0.17151436036E+03 -0.67714249663E+03  0.71101864663E+03  0.47000000000E+01 0.  1.
         11    1    6    6    0    0 -0.36962679014E+02 -0.31500937768E+02 -0.12525052085E+03  0.13433630073E+03  0.00000000000E+00 0. -1.
        -12    1    6    6    0    0  0.29367442337E+02 -0.10958403470E+03 -0.37114000218E+03  0.38809278343E+03  0.00000000000E+00 0.  1.
</event>
<event>
12    1  0.8562501E-002  0.1875609E+03  0.7818608E-02  0.1164605E+00
         21   -1    0    0  503  502  0.00000000000E+00  0.00000000000E+00  0.26174576610E+03  0.26174576610E+03  0.00000000000E+00 0.  1.
         21   -1    0    0  501  503 -0.00000000000E+00 -0.00000000000E+00 -0.17190030810E+03  0.17190030810E+03  0.00000000000E+00 0.  1.
          6    2    1    2  501    0  0.72575253962E+02 -0.13040335384E+02 -0.72131648125E+02  0.18582420530E+03  0.15456533499E+03 0.  0.
         24    2    3    3    0    0  0.95724302318E+01  0.12457001002E+02 -0.85032359254E+02  0.11648454632E+03  0.78047031433E+02 0.  0.
         -6    2    1    2    0  502 -0.72575253962E+02  0.13040335384E+02  0.16197710612E+03  0.24782186889E+03  0.17245833688E+03 0.  0.
        -24    2    5    5    0    0 -0.61114078487E+02 -0.46005329859E+02  0.49226109826E+02  0.11994448117E+03  0.78179586266E+02 0.  0.
          5    1    3    3  501    0  0.63002823730E+02 -0.25497336386E+02  0.12900711128E+02  0.69339658986E+02  0.47000000000E+01 0. -1.
        -11    1    4    4    0    0  0.33091721558E+02  0.13586047218E+02 -0.85765607060E+02  0.92926756475E+02  0.00000000000E+00 0.  1.
         12    1    4    4    0    0 -0.23519291326E+02 -0.11290462158E+01  0.73324780606E+00  0.23557789840E+02  0.00000000000E+00 0. -1.
         -5    1    5    5    0  502 -0.11461175474E+02  0.59045665243E+02  0.11275099629E+03  0.12787738773E+03  0.47000000000E+01 0.  1.
         11    1    6    6    0    0 -0.66398863936E+02 -0.21818433188E+02  0.60233770565E+01  0.70150796360E+02  0.00000000000E+00 0. -1.
        -12    1    6    6    0    0  0.52847854484E+01 -0.24186896670E+02  0.43202732770E+02  0.49793684806E+02  0.00000000000E+00 0.  1.
</event>
<event>
12    1  0.8562501E-002  0.2103002E+03  0.7818608E-02  0.1144997E+00
         21   -1    0    0  503  502  0.00000000000E+00  0.00000000000E+00  0.30182891659E+03  0.30182891659E+03  0.00000000000E+00 0. -1.
         21   -1    0    0  501  503 -0.00000000000E+00 -0.00000000000E+00 -0.14646496550E+03  0.14646496550E+03  0.00000000000E+00 0. -1.
          6    2    1    2  501    0 -0.10784989706E+03  0.55568020850E+02  0.16664363156E+02  0.21095940974E+03  0.17177533677E+03 0.  0.
         24    2    3    3    0    0 -0.13254380975E+03  0.78728255791E+02  0.16014479560E+01  0.17360747243E+03  0.79818482099E+02 0.  0.
         -6    2    1    2    0  502  0.10784989706E+03 -0.55568020850E+02  0.13869958793E+03  0.23733447234E+03  0.14956828151E+03 0.  0.
        -24    2    5    5    0    0  0.96716492141E+02 -0.55206332181E+02  0.45573260854E+02  0.14342661155E+03  0.78054159606E+02 0.  0.
          5    1    3    3  501    0  0.24693912693E+02 -0.23160234941E+02  0.15062915200E+02  0.37351937312E+02  0.47000000000E+01 0. -1.
        -11    1    4    4    0    0 -0.57094600412E+01 -0.11740635696E+02  0.11640231075E+02  0.17491010262E+02  0.00000000000E+00 0.  1.
         12    1    4    4    0    0 -0.12683434971E+03  0.90468891487E+02 -0.10038783119E+02  0.15611646217E+03  0.00000000000E+00 0. -1.
         -5    1    5    5    0  502  0.11133404919E+02 -0.36168866881E+00  0.93126327076E+02  0.93907860791E+02  0.47000000000E+01 0.  1.
         13    1    6    6    0    0  0.24556473531E+02 -0.41818711529E+02 -0.12220119334E+02  0.50011562091E+02  0.00000000000E+00 0. -1.
        -14    1    6    6    0    0  0.72160018609E+02 -0.13387620652E+02  0.57793380188E+02  0.93415049462E+02  0.00000000000E+00 0.  1.
</event>
<event>
12    1  0.8562501E-002  0.1958024E+03  0.7818608E-02  0.1155046E+00
         21   -1    0    0  503  502  0.00000000000E+00  0.00000000000E+00  0.41925312715E+02  0.41925312715E+02  0.00000000000E+00 0.  1.
         21   -1    0    0  501  503 -0.00000000000E+00 -0.00000000000E+00 -0.91394898719E+03  0.91394898719E+03  0.00000000000E+00 0.  1.
          6    2    1    2  501    0 -0.29003359135E+02  0.70894390746E+02 -0.52148634261E+03  0.55435842161E+03  0.17174994791E+03 0.  0.
         24    2    3    3    0    0 -0.75955441774E+02  0.52161158245E+02 -0.45880403541E+03  0.47369496211E+03  0.73455827893E+02 0.  0.
         -6    2    1    2    0  502  0.29003359135E+02 -0.70894390746E+02 -0.35053733187E+03  0.40151587829E+03  0.18019814096E+03 0.  0.
        -24    2    5    5    0    0  0.51342387706E+02  0.22988351582E+02 -0.19431103435E+03  0.21782660931E+03  0.80790770311E+02 0.  0.
          5    1    3    3  501    0  0.46952082638E+02  0.18733232502E+02 -0.62682307196E+02  0.80663459506E+02  0.47000000000E+01 0. -1.
        -11    1    4    4    0    0 -0.14516233672E+02  0.94894885974E+01 -0.27081393982E+03  0.27136868175E+03  0.00000000000E+00 0.  1.
         12    1    4    4    0    0 -0.61439208102E+02  0.42671669647E+02 -0.18799009559E+03  0.20232628035E+03  0.00000000000E+00 0. -1.
         -5    1    5    5    0  502 -0.22339028571E+02 -0.93882742328E+02 -0.15622629752E+03  0.18368926898E+03  0.47000000000E+01 0.  1.
         11    1    6    6    0    0 -0.43303133619E+01  0.34948150307E+02 -0.11443846788E+03  0.11973423802E+03  0.00000000000E+00 0. -1.
        -12    1    6    6    0    0  0.55672701068E+02 -0.11959798726E+02 -0.79872566473E+02  0.98092371287E+02  0.00000000000E+00 0.  1.
</event>
<event>
12    1  0.8562501E-002  0.2450778E+03  0.7818608E-02  0.1117139E+00
         21   -1    0    0  501  502  0.00000000000E+00  0.00000000000E+00  0.63612831925E+02  0.63612831925E+02  0.00000000000E+00 0.  1.
         21   -1    0    0  502  503 -0.00000000000E+00 -0.00000000000E+00 -0.92827014410E+03  0.92827014410E+03  0.00000000000E+00 0.  1.
         -6    2    1    2    0  503  0.12254801611E+00  0.16976312052E+03 -0.44127152303E+03  0.50476099481E+03  0.17675851531E+03 0.  0.
        -24    2    3    3    0    0 -0.31238057931E+01  0.19569671420E+03 -0.41935125805E+03  0.47032731782E+03  0.83936560269E+02 0.  0.
          6    2    1    2  501    0 -0.12254801611E+00 -0.16976312052E+03 -0.42338578914E+03  0.48712198122E+03  0.17091742459E+03 0.  0.
         24    2    5    5    0    0 -0.56536833829E+02 -0.13581895107E+03 -0.35240233364E+03  0.39019149459E+03  0.80117392878E+02 0.  0.
          5    1    5    5  501    0  0.56414285813E+02 -0.33944169451E+02 -0.70983455501E+02  0.96930486630E+02  0.47000000000E+01 0. -1.
        -13    1    6    6    0    0 -0.15891255258E+02 -0.10931806779E+03 -0.29514069124E+03  0.31513647768E+03  0.00000000000E+00 0.  1.
         14    1    6    6    0    0 -0.40645578571E+02 -0.26500883281E+02 -0.57261642398E+02  0.75055016902E+02  0.00000000000E+00 0. -1.
         -5    1    3    3    0  503  0.32463538092E+01 -0.25933593678E+02 -0.21920264986E+02  0.34433676992E+02  0.47000000000E+01 0.  1.
         11    1    4    4    0    0 -0.24538323278E+02  0.15921546840E+02 -0.36085947483E+02  0.46452347291E+02  0.00000000000E+00 0. -1.
        -12    1    4    4    0    0  0.21414517485E+02  0.17977516736E+03 -0.38326531056E+03  0.42387497053E+03  0.00000000000E+00 0.  1.
</event>
<event>
12    1  0.8562501E-002  0.2386663E+03  0.7818608E-02  0.1120867E+00
         21   -1    0    0  501  502  0.00000000000E+00  0.00000000000E+00  0.65917848298E+02  0.65917848298E+02  0.00000000000E+00 0. -1.
         21   -1    0    0  502  503 -0.00000000000E+00 -0.00000000000E+00 -0.10818951165E+04  0.10818951165E+04  0.00000000000E+00 0.  1.
         -6    2    1    2    0  503  0.16281180498E+03 -0.33959270879E+02 -0.76686074332E+03  0.80281927503E+03  0.16965397964E+03 0.  0.
        -24    2    3    3    0    0  0.18588506759E+03 -0.13344792337E+02 -0.70374099986E+03  0.73236699198E+03  0.79866602696E+02 0.  0.
          6    2    1    2  501    0 -0.16281180498E+03  0.33959270879E+02 -0.24911652493E+03  0.34499368981E+03  0.17117443471E+03 0.  0.
         24    2    5    5    0    0 -0.11196148370E+03  0.34319188495E+02 -0.25724892558E+03  0.29328188598E+03  0.78256465566E+02 0.  0.
          5    1    5    5  501    0 -0.50850321279E+02 -0.35991761530E+00  0.81324006475E+01  0.51711803828E+02  0.47000000000E+01 0. -1.
        -13    1    6    6    0    0 -0.16926829578E+02  0.24530820031E+02 -0.13435484693E+03  0.13762086900E+03  0.00000000000E+00 0.  1.
         14    1    6    6    0    0 -0.95034654120E+02  0.97883684640E+01 -0.12289407865E+03  0.15566101698E+03  0.00000000000E+00 0. -1.
         -5    1    3    3    0  503 -0.23073262612E+02 -0.20614478542E+02 -0.63119743462E+02  0.70452283057E+02  0.47000000000E+01 0.  1.
         13    1    4    4    0    0  0.13039302330E+03 -0.41499296159E+02 -0.41430968709E+03  0.43632218477E+03  0.00000000000E+00 0. -1.
        -14    1    4    4    0    0  0.55492044287E+02  0.28154503821E+02 -0.28943131277E+03  0.29604480721E+03  0.00000000000E+00 0.  1.
</event>
<event>
12    1  0.8562501E-002  0.2868173E+03  0.7818608E-02  0.1092091E+00
         21   -1    0    0  501  502  0.00000000000E+00  0.00000000000E+00  0.18946177291E+03  0.18946177291E+03  0.00000000000E+00 0. -1.
         21   -1    0    0  502  503 -0.00000000000E+00 -0.00000000000E+00 -0.52595996908E+03  0.52595996908E+03  0.00000000000E+00 0. -1.
         -6    2    1    2    0  503 -0.10476751592E+03  0.20370755152E+03 -0.31816814743E+03  0.42801932873E+03  0.17174567472E+03 0.  0.
        -24    2    3    3    0    0 -0.61714152065E+02  0.11383248141E+03 -0.28535455202E+03  0.32299579608E+03  0.78310877513E+02 0.  0.
          6    2    1    2  501    0  0.10476751592E+03 -0.20370755152E+03 -0.18330048735E+02  0.28740241325E+03  0.17260115155E+03 0.  0.
         24    2    5    5    0    0  0.10641788493E+03 -0.79736867035E+02 -0.44184818366E+02  0.16066641425E+03  0.78604480132E+02 0.  0.
          5    1    5    5  501    0 -0.16503690068E+01 -0.12397068449E+03  0.25854769631E+02  0.12673599900E+03  0.47000000000E+01 0. -1.
        -13    1    6    6    0    0  0.29683635916E+01  0.90678378854E+01 -0.20055629511E+02  0.22209573193E+02  0.00000000000E+00 0.  1.
         14    1    6    6    0    0  0.10344952133E+03 -0.88804704920E+02 -0.24129188855E+02  0.13845684106E+03  0.00000000000E+00 0. -1.
         -5    1    3    3    0  503 -0.43053363855E+02  0.89875070112E+02 -0.32813595418E+02  0.10502353265E+03  0.47000000000E+01 0.  1.
         13    1    4    4    0    0 -0.51315539003E+02  0.17194726772E+02 -0.10375788961E+03  0.11702411217E+03  0.00000000000E+00 0. -1.
        -14    1    4    4    0    0 -0.10398613062E+02  0.96637754641E+02 -0.18159666241E+03  0.20597168391E+03  0.00000000000E+00 0.  1.
</event>
<event>
12    1  0.8562501E-002  0.1812409E+03  0.7818608E-02  0.1167272E+00
         21   -1    0    0  501  502  0.00000000000E+00  0.00000000000E+00  0.67468503254E+02  0.67468503254E+02  0.00000000000E+00 0.  1.
         21   -1    0    0  502  503 -0.00000000000E+00 -0.00000000000E+00 -0.56026548710E+03  0.56026548710E+03  0.00000000000E+00 0.  1.
         -6    2    1    2    0  503 -0.53493973102E+02 -0.21060851764E+02 -0.12562736234E+03  0.21826874665E+03  0.16897883583E+03 0.  0.
        -24    2    3    3    0    0  0.11537484099E+02 -0.50846043561E+01 -0.44864077775E+01  0.79771267322E+02  0.78640705074E+02 0.  0.
          6    2    1    2  501    0  0.53493973102E+02  0.21060851764E+02 -0.36716962150E+03  0.40946524371E+03  0.17188103506E+03 0.  0.
         24    2    5    5    0    0  0.85730658350E+02  0.36076927552E+02 -0.17052471684E+03  0.20957528664E+03  0.78688189914E+02 0.  0.
          5    1    5    5  501    0 -0.32236685248E+02 -0.15016075788E+02 -0.19664490466E+03  0.19988995707E+03  0.47000000000E+01 0. -1.
        -11    1    6    6    0    0  0.62394996832E+01  0.41473243077E+02 -0.64863368002E+02  0.77241295666E+02  0.00000000000E+00 0.  1.
         12    1    6    6    0    0  0.79491158667E+02 -0.53963155252E+01 -0.10566134884E+03  0.13233399097E+03  0.00000000000E+00 0. -1.
         -5    1    3    3    0  503 -0.65031457201E+02 -0.15976247408E+02 -0.12114095456E+03  0.13849747933E+03  0.47000000000E+01 0.  1.
         11    1    4    4    0    0 -0.22202526286E+02 -0.73720459325E+01  0.25477314090E+02  0.34588911055E+02  0.00000000000E+00 0. -1.
        -12    1    4    4    0    0  0.33740010384E+02  0.22874415764E+01 -0.29963721867E+02  0.45182356267E+02  0.00000000000E+00 0.  1.
</event>
<event>
12    1  0.8562501E-002  0.1768974E+03  0.7818608E-02  0.1171175E+00
         21   -1    0    0  503  502  0.00000000000E+00  0.00000000000E+00  0.26026570154E+03  0.26026570154E+03  0.00000000000E+00 0. -1.
         21   -1    0    0  501  503 -0.00000000000E+00 -0.00000000000E+00 -0.17873649625E+03  0.17873649625E+03  0.00000000000E+00 0. -1.
          6    2    1    2  501    0  0.36918437824E+01 -0.31920350173E+02 -0.85688922259E+02  0.19655858636E+03  0.17395444233E+03 0.  0.
         24    2    3    3    0    0  0.49947029792E+02 -0.67844591391E+02 -0.72466600818E+02  0.13633389770E+03  0.78980561284E+02 0.  0.
         -6    2    1    2    0  502 -0.36918437824E+01  0.31920350173E+02  0.16721812754E+03  0.24244361143E+03  0.17258176057E+03 0.  0.
        -24    2    5    5    0    0  0.53612063976E+02 -0.17838339550E+02  0.11728594053E+03  0.15147670346E+03  0.77438621386E+02 0.  0.
          5    1    3    3  501    0 -0.46255186009E+02  0.35924241218E+02 -0.13222321440E+02  0.60224688660E+02  0.47000000000E+01 0. -1.
        -13    1    4    4    0    0  0.38534233741E+02 -0.50008219775E+02 -0.24441871532E+01  0.63179769435E+02  0.00000000000E+00 0.  1.
         14    1    4    4    0    0  0.11412796051E+02 -0.17836371616E+02 -0.70022413665E+02  0.73154128261E+02  0.00000000000E+00 0. -1.
         -5    1    5    5    0  502 -0.57303907758E+02  0.49758689722E+02  0.49932187008E+02  0.90966907976E+02  0.47000000000E+01 0.  1.
         13    1    6    6    0    0  0.14574272351E+02 -0.35905037849E+01  0.10781461608E+03  0.10885445591E+03  0.00000000000E+00 0. -1.
        -14    1    6    6    0    0  0.39037791625E+02 -0.14247835765E+02  0.94713244556E+01  0.42622247546E+02  0.00000000000E+00 0.  1.
</event>
<event>
12    1  0.8562501E-002  0.2456654E+03  0.7818608E-02  0.1116089E+00
         21   -1    0    0  503  502  0.00000000000E+00  0.00000000000E+00  0.57608509919E+03  0.57608509919E+03  0.00000000000E+00 0.  1.
         21   -1    0    0  501  503 -0.00000000000E+00 -0.00000000000E+00 -0.11022334024E+03  0.11022334024E+03  0.00000000000E+00 0. -1.
          6    2    1    2  501    0 -0.16029532818E+03  0.69853717866E+02  0.15632365833E+03  0.29118476225E+03  0.17256113548E+03 0.  0.
         24    2    3    3    0    0 -0.14557180791E+03  0.35263711009E+02  0.17971974695E+03  0.24665704519E+03  0.78139810111E+02 0.  0.
         -6    2    1    2    0  502  0.16029532818E+03 -0.69853717866E+02  0.30953810062E+03  0.39512367718E+03  0.17243767105E+03 0.  0.
        -24    2    5    5    0    0  0.16158300958E+03 -0.24607926758E+02  0.17229805510E+03  0.25053543482E+03  0.79792012510E+02 0.  0.
          5    1    3    3  501    0 -0.14723520262E+02  0.34590006857E+02 -0.23396088625E+02  0.44527717056E+02  0.47000000000E+01 0. -1.
        -13    1    4    4    0    0 -0.47975911931E+02 -0.21988526045E+02  0.79984100068E+02  0.95826090743E+02  0.00000000000E+00 0.  1.
         14    1    4    4    0    0 -0.97595895983E+02  0.57252237054E+02  0.99735646881E+02  0.15083095445E+03  0.00000000000E+00 0. -1.
         -5    1    5    5    0  502 -0.12876814084E+01 -0.45245791108E+02  0.13724004552E+03  0.14458824236E+03  0.47000000000E+01 0.  1.
         11    1    6    6    0    0  0.31723380083E+02  0.24098800041E+02  0.20098569279E+02  0.44621491396E+02  0.00000000000E+00 0. -1.
        -12    1    6    6    0    0  0.12985962950E+03 -0.48706726799E+02  0.15219948583E+03  0.20591394342E+03  0.00000000000E+00 0.  1.
</event>
<event>
12    1  0.8562501E-002  0.1993025E+03  0.7818608E-02  0.1150593E+00
         21   -1    0    0  503  502  0.00000000000E+00  0.00000000000E+00  0.14657969091E+03  0.14657969091E+03  0.00000000000E+00 0.  1.
         21   -1    0    0  501  503 -0.00000000000E+00 -0.00000000000E+00 -0.27043986906E+03  0.27043986906E+03  0.00000000000E+00 0. -1.
          6    2    1    2  501    0  0.44862235038E+02 -0.90680266179E+02 -0.48219723013E+02  0.20384598885E+03  0.17027188458E+03 0.  0.
         24    2    3    3    0    0  0.56484040542E+02 -0.12471229624E+03 -0.49843712374E+02  0.16754209410E+03  0.82718522493E+02 0.  0.
         -6    2    1    2    0  502 -0.44862235038E+02  0.90680266179E+02 -0.75640455131E+02  0.21317357111E+03  0.17171476978E+03 0.  0.
        -24    2    5    5    0    0  0.18966458553E+02 -0.66415351390E+01 -0.40662620341E+02  0.91554600292E+02  0.79529614626E+02 0.  0.
          5    1    3    3  501    0 -0.11621805504E+02  0.34032030056E+02  0.16239893610E+01  0.36303894755E+02  0.47000000000E+01 0. -1.
        -13    1    4    4    0    0  0.28075155502E+01 -0.10101136144E+03 -0.27189064443E+02  0.10464426649E+03  0.00000000000E+00 0.  1.
         14    1    4    4    0    0  0.53676524992E+02 -0.23700934797E+02 -0.22654647931E+02  0.62897827612E+02  0.00000000000E+00 0. -1.
         -5    1    5    5    0  502 -0.63828693590E+02  0.97321801318E+02 -0.34977834790E+02  0.12161897082E+03  0.47000000000E+01 0.  1.
         11    1    6    6    0    0  0.71848030970E+01 -0.15253558397E+02 -0.62808688952E+02  0.65032483016E+02  0.00000000000E+00 0. -1.
        -12    1    6    6    0    0  0.11781655456E+02  0.86120232583E+01  0.22146068611E+02  0.26522117276E+02  0.00000000000E+00 0.  1.
</event>
<event>
12    1  0.8562501E-002  0.1954637E+03  0.7818608E-02  0.1154563E+00
         21   -1    0    0  503  502  0.00000000000E+00  0.00000000000E+00  0.12760593134E+03  0.12760593134E+03  0.00000000000E+00 0.  1.
         21   -1    0    0  501  503 -0.00000000000E+00 -0.00000000000E+00 -0.16653891542E+04  0.16653891542E+04  0.00000000000E+00 0.  1.
          6    2    1    2  501    0 -0.28848185424E+02 -0.79201704571E+02 -0.15812418295E+04  0.15927584230E+04  0.17160577776E+03 0.  0.
         24    2    3    3    0    0  0.54478265025E+01  0.12880710303E+02 -0.93661263470E+03  0.94066619309E+03  0.86104981411E+02 0.  0.
         -6    2    1    2    0  502  0.28848185424E+02  0.79201704571E+02  0.43458606559E+02  0.20023666259E+03  0.17635459379E+03 0.  0.
        -24    2    5    5    0    0 -0.15391623433E+02  0.41039467842E+02 -0.41739405643E+02  0.96823373872E+02  0.75574120914E+02 0.  0.
          5    1    3    3  501    0 -0.34296011926E+02 -0.92082414874E+02 -0.64462919475E+03  0.65209222989E+03  0.47000000000E+01 0. -1.
        -11    1    4    4    0    0 -0.14035517707E+02 -0.33646636564E+02 -0.43414157786E+03  0.43566960135E+03  0.00000000000E+00 0.  1.
         12    1    4    4    0    0  0.19483344210E+02  0.46527346867E+02 -0.50247105684E+03  0.50499659174E+03  0.00000000000E+00 0. -1.
         -5    1    5    5    0  502  0.44239808857E+02  0.38162236729E+02  0.85198012202E+02  0.10341328872E+03  0.47000000000E+01 0.  1.
         13    1    6    6    0    0  0.75121559006E+01 -0.18261190614E+02 -0.23487618982E+02  0.30685042192E+02  0.00000000000E+00 0. -1.
        -14    1    6    6    0    0 -0.22903779334E+02  0.59300658456E+02 -0.18251786661E+02  0.66138331680E+02  0.00000000000E+00 0.  1.
</event>
<event>
12    1  0.8562501E-002  0.1895376E+03  0.7818608E-02  0.1159086E+00
         21   -1    0    0  501  502  0.00000000000E+00  0.00000000000E+00  0.14297697200E+03  0.14297697200E+03  0.00000000000E+00 0. -1.
         21   -1    0    0  502  503 -0.00000000000E+00 -0.00000000000E+00 -0.32870676987E+03  0.32870676987E+03  0.00000000000E+00 0. -1.
         -6    2    1    2    0  503  0.43118513587E+02 -0.64478243439E+02 -0.20806097902E+03  0.28083519982E+03  0.17193716402E+03 0.  0.
        -24    2    3    3    0    0  0.89805925508E+02 -0.57616661506E+02 -0.11198978292E+03  0.17369715587E+03  0.79020291959E+02 0.  0.
          6    2    1    2  501    0 -0.43118513587E+02  0.64478243439E+02  0.22331181150E+02  0.19084854205E+03  0.17293881652E+03 0.  0.
         24    2    5    5    0    0 -0.15160561981E+02 -0.13211137246E+02 -0.43222354591E+02  0.85318247929E+02  0.70757718352E+02 0.  0.
          5    1    5    5  501    0 -0.27957951606E+02  0.77689380685E+02  0.65553535741E+02  0.10553029412E+03  0.47000000000E+01 0. -1.
        -11    1    6    6    0    0 -0.19020435011E+02 -0.25240863019E+02  0.79663125195E+01  0.32593561467E+02  0.00000000000E+00 0.  1.
         12    1    6    6    0    0  0.38598730296E+01  0.12029725773E+02 -0.51188667110E+02  0.52724686462E+02  0.00000000000E+00 0. -1.
         -5    1    3    3    0  503 -0.46687411921E+02 -0.68615819331E+01 -0.96071196107E+02  0.10713804394E+03  0.47000000000E+01 0.  1.
         13    1    4    4    0    0  0.57061558482E+02 -0.72958485109E+02 -0.98219089883E+02  0.13500352448E+03  0.00000000000E+00 0. -1.
        -14    1    4    4    0    0  0.32744367026E+02  0.15341823603E+02 -0.13770693033E+02  0.38693631388E+02  0.00000000000E+00 0.  1.
</event>
<event>
12    1  0.8562501E-002  0.2005419E+03  0.7818608E-02  0.1149304E+00
         21   -1    0    0  501  502  0.00000000000E+00  0.00000000000E+00  0.56737839121E+02  0.56737839121E+02  0.00000000000E+00 0.  1.
         21   -1    0    0  502  503 -0.00000000000E+00 -0.00000000000E+00 -0.10102190099E+04  0.10102190099E+04  0.00000000000E+00 0. -1.
         -6    2    1    2    0  503  0.99435390911E+02 -0.26128227242E+02 -0.76838635558E+03  0.79412507179E+03  0.17218291723E+03 0.  0.
        -24    2    3    3    0    0  0.12177342713E+03 -0.64880356574E+02 -0.57774604407E+03  0.59825130183E+03  0.71245354015E+02 0.  0.
          6    2    1    2  501    0 -0.99435390911E+02  0.26128227242E+02 -0.18509481517E+03  0.27283177719E+03  0.17206686730E+03 0.  0.
         24    2    5    5    0    0 -0.65921182640E+02  0.83299647648E+02 -0.10947829553E+03  0.17217532430E+03  0.79839911617E+02 0.  0.
          5    1    5    5  501    0 -0.33514208271E+02 -0.57171420406E+02 -0.75616519635E+02  0.10065645289E+03  0.47000000000E+01 0. -1.
        -11    1    6    6    0    0 -0.76683476018E+02  0.50192080130E+02 -0.53116947425E+02  0.10592927124E+03  0.00000000000E+00 0.  1.
         12    1    6    6    0    0  0.10762293378E+02  0.33107567518E+02 -0.56361348105E+02  0.66246053059E+02  0.00000000000E+00 0. -1.
         -5    1    3    3    0  503 -0.22338036222E+02  0.38752129332E+02 -0.19064031150E+03  0.19587376996E+03  0.47000000000E+01 0.  1.
         13    1    4    4    0    0  0.28788248097E+02  0.97361186964E+01 -0.19538644409E+03  0.19773572710E+03  0.00000000000E+00 0. -1.
        -14    1    4    4    0    0  0.92985179035E+02 -0.74616475270E+02 -0.38235959998E+03  0.40051557473E+03  0.00000000000E+00 0.  1.
</event>
<event>
12    1  0.8562501E-002  0.2602786E+03  0.7818608E-02  0.1107492E+00
         21   -1    0    0  501  502  0.00000000000E+00  0.00000000000E+00  0.96519702421E+03  0.96519702421E+03  0.00000000000E+00 0. -1.
         21   -1    0    0  502  503 -0.00000000000E+00 -0.00000000000E+00 -0.69548114698E+02  0.69548114698E+02  0.00000000000E+00 0.  1.
         -6    2    1    2    0  503  0.14236980319E+03  0.12443814460E+03  0.48349215995E+03  0.54909889130E+03  0.17886003186E+03 0.  0.
        -24    2    3    3    0    0  0.30504455413E+02  0.97970794365E+02  0.16220586414E+03  0.20783455015E+03  0.79722390367E+02 0.  0.
          6    2    1    2  501    0 -0.14236980319E+03 -0.12443814460E+03  0.41215674956E+03  0.48564624761E+03  0.17385361348E+03 0.  0.
         24    2    5    5    0    0 -0.11660118624E+03 -0.93429116441E+02  0.16948926404E+03  0.23960726701E+03  0.79750832894E+02 0.  0.
          5    1    5    5  501    0 -0.25768616951E+02 -0.31009028159E+02  0.24266748552E+03  0.24603898060E+03  0.47000000000E+01 0. -1.
        -13    1    6    6    0    0 -0.60028741076E+02 -0.48837298860E+02  0.14348580545E+03  0.16302364209E+03  0.00000000000E+00 0.  1.
         14    1    6    6    0    0 -0.56572445163E+02 -0.44591817581E+02  0.26003458589E+02  0.76583624917E+02  0.00000000000E+00 0. -1.
         -5    1    3    3    0  503  0.11186534778E+03  0.26467350235E+02  0.32128629582E+03  0.34126434115E+03  0.47000000000E+01 0.  1.
         11    1    4    4    0    0  0.17875588606E+02  0.55461480570E+02  0.15134941774E+03  0.16217940296E+03  0.00000000000E+00 0. -1.
        -12    1    4    4    0    0  0.12628866807E+02  0.42509313795E+02  0.10856446398E+02  0.45655147185E+02  0.00000000000E+00 0.  1.
</event>
<event>
12    1  0.8562501E-002  0.2080044E+03  0.7818608E-02  0.1143206E+00
         21   -1    0    0  501  502  0.00000000000E+00  0.00000000000E+00  0.13266238158E+03  0.13266238158E+03  0.00000000000E+00 0. -1.
         21   -1    0    0  502  503 -0.00000000000E+00 -0.00000000000E+00 -0.39561502086E+03  0.39561502086E+03  0.00000000000E+00 0.  1.
         -6    2    1    2    0  503 -0.83786921077E+02 -0.82513719863E+02 -0.24254933958E+03  0.31952465822E+03  0.17157232578E+03 0.  0.
        -24    2    3    3    0    0 -0.54851707134E+02  0.22313143481E+02 -0.12015548161E+03  0.15573129953E+03  0.79424881143E+02 0.  0.
          6    2    1    2  501    0  0.83786921077E+02  0.82513719863E+02 -0.20403299698E+02  0.20875274422E+03  0.17126777710E+03 0.  0.
         24    2    5    5    0    0 -0.82352432259E+01  0.65054066408E+02 -0.41193053509E+02  0.11269431364E+03  0.81873621409E+02 0.  0.
          5    1    5    5  501    0  0.92022164303E+02  0.17459653455E+02  0.20789753811E+02  0.96058430579E+02  0.47000000000E+01 0. -1.
        -11    1    6    6    0    0  0.30826549217E+02  0.53513399586E+02 -0.36389901422E+02  0.71681134181E+02  0.00000000000E+00 0.  1.
         12    1    6    6    0    0 -0.39061792443E+02  0.11540666821E+02 -0.48031520870E+01  0.41013179461E+02  0.00000000000E+00 0. -1.
         -5    1    3    3    0  503 -0.28935213943E+02 -0.10482686334E+03 -0.12239385797E+03  0.16379335870E+03  0.47000000000E+01 0.  1.
         13    1    4    4    0    0  0.88156676795E+01  0.24703260876E+02 -0.92209812588E+01  0.27802762272E+02  0.00000000000E+00 0. -1.
        -14    1    4    4    0    0 -0.63667374813E+02 -0.23901173955E+01 -0.11093450035E+03  0.12792853725E+03  0.00000000000E+00 0.  1.
</event>
<event>
12    1  0.8562501E-002  0.1766890E+03  0.7818608E-02  0.1171367E+00
         21   -1    0    0  501  502  0.00000000000E+00  0.00000000000E+00  0.77863095461E+03  0.77863095461E+03  0.00000000000E+00 0. -1.
         21   -1    0    0  502  503 -0.00000000000E+00 -0.00000000000E+00 -0.41718827172E+02  0.41718827172E+02  0.00000000000E+00 0. -1.
         -6    2    1    2    0  503 -0.37504356733E+02 -0.34289663677E+01  0.28184686866E+03  0.33265094180E+03  0.17262866831E+03 0.  0.
        -24    2    3    3    0    0 -0.36390463318E+01 -0.23136346740E+02  0.28033038970E+03  0.29315879323E+03  0.82513135080E+02 0.  0.
          6    2    1    2  501    0  0.37504356733E+02  0.34289663677E+01  0.45506525879E+03  0.48769883999E+03  0.17131092840E+03 0.  0.
         24    2    5    5    0    0  0.56674336290E+02  0.23388084623E+02  0.44671845169E+03  0.45841379762E+03  0.82624765516E+02 0.  0.
          5    1    5    5  501    0 -0.19169979557E+02 -0.19959118255E+02  0.83468070985E+01  0.29285042368E+02  0.47000000000E+01 0. -1.
        -11    1    6    6    0    0  0.74743632240E+02  0.18526935745E+01  0.32191514206E+03  0.33048358767E+03  0.00000000000E+00 0.  1.
         12    1    6    6    0    0 -0.18069295950E+02  0.21535391048E+02  0.12480330963E+03  0.12793020995E+03  0.00000000000E+00 0. -1.
         -5    1    3    3    0  503 -0.33865310401E+02  0.19707380372E+02  0.15164789539E+01  0.39492148563E+02  0.47000000000E+01 0.  1.
         11    1    4    4    0    0  0.32791763712E+01  0.30985955269E+02  0.97080250171E+02  0.10195811589E+03  0.00000000000E+00 0. -1.
        -12    1    4    4    0    0 -0.69182227031E+01 -0.54122302009E+02  0.18325013953E+03  0.19120067735E+03  0.00000000000E+00 0.  1.
</event>
<event>
12    1  0.8562501E-002  0.1800670E+03  0.7818608E-02  0.1168143E+00
         21   -1    0    0  503  502  0.00000000000E+00  0.00000000000E+00  0.53052047151E+03  0.53052047151E+03  0.00000000000E+00 0. -1.
         21   -1    0    0  501  503 -0.00000000000E+00 -0.00000000000E+00 -0.66110122450E+02  0.66110122450E+02  0.00000000000E+00 0. -1.
          6    2    1    2  501    0  0.22922641342E+02 -0.45960240254E+02  0.14671180551E+03  0.23226807933E+03  0.17258712476E+03 0.  0.
         24    2    3    3    0    0  0.54148353990E+02 -0.52068800851E+02  0.16296531871E+03  0.19623162093E+03  0.79410009985E+02 0.  0.
         -6    2    1    2    0  502 -0.22922641342E+02  0.45960240254E+02  0.31769854355E+03  0.36436251462E+03  0.17085047942E+03 0.  0.
        -24    2    5    5    0    0 -0.58032105203E+02  0.51743515553E+02  0.12056505876E+03  0.16398831082E+03  0.79442533032E+02 0.  0.
          5    1    3    3  501    0 -0.31225712648E+02  0.61085605967E+01 -0.16253513209E+02  0.36036458407E+02  0.47000000000E+01 0. -1.
        -11    1    4    4    0    0  0.34360114850E+02  0.16314678460E+02  0.60509499827E+02  0.71471573336E+02  0.00000000000E+00 0.  1.
         12    1    4    4    0    0  0.19788239140E+02 -0.68383479311E+02  0.10245581889E+03  0.12476004759E+03  0.00000000000E+00 0. -1.
         -5    1    5    5    0  502  0.35109463860E+02 -0.57832752994E+01  0.19713348479E+03  0.20037420381E+03  0.47000000000E+01 0.  1.
         11    1    6    6    0    0 -0.21130372572E+02  0.67630675512E+02  0.73127909266E+02  0.10182382839E+03  0.00000000000E+00 0. -1.
        -12    1    6    6    0    0 -0.36901732630E+02 -0.15887159959E+02  0.47437149498E+02  0.62164482425E+02  0.00000000000E+00 0.  1.
</event>
<event>
12    1  0.8562501E-002  0.1842983E+03  0.7818608E-02  0.1163735E+00
         21   -1    0    0  503  502  0.00000000000E+00  0.00000000000E+00  0.10712439634E+04  0.10712439634E+04  0.00000000000E+00 0. -1.
         21   -1    0    0  501  503 -0.00000000000E+00 -0.00000000000E+00 -0.34299542354E+02  0.34299542354E+02  0.00000000000E+00 0.  1.
          6    2    1    2  501    0 -0.67276055265E+02  0.67472353604E+01  0.36572942899E+03  0.40948643865E+03  0.17131706106E+03 0.  0.
         24    2    3    3    0    0 -0.81023116028E+00  0.58363548534E+02  0.17526520607E+03  0.20120619529E+03  0.79743841724E+02 0.  0.
         -6    2    1    2    0  502  0.67276055265E+02 -0.67472353604E+01  0.67121499207E+03  0.69605706713E+03  0.17144760808E+03 0.  0.
        -24    2    5    5    0    0  0.81937075227E+02 -0.25300213947E+02  0.65838528265E+03  0.66874681329E+03  0.79983340437E+02 0.  0.
          5    1    3    3  501    0 -0.66465824104E+02 -0.51616313174E+02  0.19046422292E+03  0.20828024335E+03  0.47000000000E+01 0. -1.
        -11    1    4    4    0    0  0.31717428370E+02  0.19286146777E+02  0.31397378033E+02  0.48618371705E+02  0.00000000000E+00 0.  1.
         12    1    4    4    0    0 -0.32527659530E+02  0.39077401757E+02  0.14386782804E+03  0.15258782359E+03  0.00000000000E+00 0. -1.
         -5    1    5    5    0  502 -0.14661019963E+02  0.18552978586E+02  0.12829709419E+02  0.27310253835E+02  0.47000000000E+01 0.  1.
         11    1    6    6    0    0 -0.85772697538E+01 -0.21860387191E+02  0.20963094368E+03  0.21094212153E+03  0.00000000000E+00 0. -1.
        -12    1    6    6    0    0  0.90514344981E+02 -0.34398267554E+01  0.44875433897E+03  0.45780469176E+03  0.00000000000E+00 0.  1.
</event>
<event>
12    1  0.8562501E-002  0.2235506E+03  0.7818608E-02  0.1131795E+00
         21   -1    0    0  501  502  0.00000000000E+00  0.00000000000E+00  0.10567414471E+04  0.10567414471E+04  0.00000000000E+00 0.  1.
         21   -1    0    0  502  503 -0.00000000000E+00 -0.00000000000E+00 -0.67893129279E+02  0.67893129279E+02  0.00000000000E+00 0.  1.
         -6    2    1    2    0  503  0.86940316050E+01 -0.14296478245E+03  0.17790331554E+03  0.28344099115E+03  0.16785318162E+03 0.  0.
        -24    2    3    3    0    0  0.40503979978E+02 -0.88756578977E+02  0.45086451197E+02  0.13642802712E+03  0.84032825711E+02 0.  0.
          6    2    1    2  501    0 -0.86940316050E+01  0.14296478245E+03  0.81094500227E+03  0.84119358522E+03  0.17164013486E+03 0.  0.
         24    2    5    5    0    0 -0.47318707856E+02  0.20175835909E+02  0.35499358858E+03  0.36739745537E+03  0.79462681898E+02 0.  0.
          5    1    5    5  501    0  0.38624676251E+02  0.12278894654E+03  0.45595141369E+03  0.47379612985E+03  0.47000000000E+01 0. -1.
        -13    1    6    6    0    0 -0.41247745123E+02  0.40697332519E+02  0.14252646353E+03  0.15385526367E+03  0.00000000000E+00 0.  1.
         14    1    6    6    0    0 -0.60709627328E+01 -0.20521496610E+02  0.21246712505E+03  0.21354219170E+03  0.00000000000E+00 0. -1.
         -5    1    3    3    0  503 -0.31809948373E+02 -0.54208203472E+02  0.13281686435E+03  0.14701296403E+03  0.47000000000E+01 0.  1.
         11    1    4    4    0    0  0.17739163058E+02  0.81441918660E+01 -0.10764406355E+02  0.22290765158E+02  0.00000000000E+00 0. -1.
        -12    1    4    4    0    0  0.22764816920E+02 -0.96900770843E+02  0.55850857552E+02  0.11413726196E+03  0.00000000000E+00 0.  1.
</event>
<event>
12    1  0.8562501E-002  0.1895517E+03  0.7818608E-02  0.1158957E+00
         21   -1    0    0  501  502  0.00000000000E+00  0.00000000000E+00  0.70744179296E+03  0.70744179296E+03  0.00000000000E+00 0.  1.
         21   -1    0    0  502  503 -0.00000000000E+00 -0.00000000000E+00 -0.84684047319E+02  0.84684047319E+02  0.00000000000E+00 0.  1.
         -6    2    1    2    0  503 -0.43959501065E+02  0.66367776172E+02  0.60211096781E+02  0.19850257827E+03  0.17158315173E+03 0.  0.
        -24    2    3    3    0    0  0.33414234109E+02  0.53507787127E+02  0.34052665077E+01  0.10154348088E+03  0.79497725410E+02 0.  0.
          6    2    1    2  501    0  0.43959501065E+02 -0.66367776172E+02  0.56254664886E+03  0.59362326201E+03  0.17202536327E+03 0.  0.
         24    2    5    5    0    0 -0.17258125741E+02 -0.84492257034E+02  0.27767030345E+03  0.30164258318E+03  0.80316039272E+02 0.  0.
          5    1    5    5  501    0  0.61217626807E+02  0.18124480863E+02  0.28487634540E+03  0.29198067883E+03  0.47000000000E+01 0. -1.
        -11    1    6    6    0    0 -0.18735399086E+01 -0.15806891204E+02  0.76995586214E+00  0.15936147381E+02  0.00000000000E+00 0.  1.
         12    1    6    6    0    0 -0.15384585833E+02 -0.68685365831E+02  0.27690034759E+03  0.28570643580E+03  0.00000000000E+00 0. -1.
         -5    1    3    3    0  503 -0.77373735174E+02  0.12859989045E+02  0.56805830273E+02  0.96959097387E+02  0.47000000000E+01 0.  1.
         13    1    4    4    0    0  0.44844646787E+02  0.11427884895E+02 -0.21824378318E+02  0.51165832228E+02  0.00000000000E+00 0. -1.
        -14    1    4    4    0    0 -0.11430412678E+02  0.42079902232E+02  0.25229644826E+02  0.50377648654E+02  0.00000000000E+00 0.  1.
</event>
<event>
12    1  0.8562501E-002  0.2804077E+03  0.7818608E-02  0.1095548E+00
         21   -1    0    0  501  502  0.00000000000E+00  0.00000000000E+00  0.30581004959E+03  0.30581004959E+03  0.00000000000E+00 0. -1.
         21   -1    0    0  502  503 -0.00000000000E+00 -0.00000000000E+00 -0.58679045130E+03  0.58679045130E+03  0.00000000000E+00 0.  1.
         -6    2    1    2    0  503 -0.73176479949E+02 -0.20929464586E+03 -0.47535884310E+03  0.55190082313E+03  0.17166666204E+03 0.  0.
        -24    2    3    3    0    0 -0.69142279213E+02 -0.19381590839E+03 -0.48495227504E+03  0.53266569835E+03  0.78795786755E+02 0.  0.
          6    2    1    2  501    0  0.73176479949E+02  0.20929464586E+03  0.19437844140E+03  0.34069967776E+03  0.17068756821E+03 0.  0.
         24    2    5    5    0    0  0.69072071674E+01  0.19836542582E+03  0.14530320570E+03  0.25738381418E+03  0.75742026259E+02 0.  0.
          5    1    5    5  501    0  0.66269272781E+02  0.10929220038E+02  0.49075235695E+02  0.83315863580E+02  0.47000000000E+01 0. -1.
        -11    1    6    6    0    0  0.81205723985E+01 -0.29001011134E+01 -0.82402784522E+00  0.86621766569E+01  0.00000000000E+00 0.  1.
         12    1    6    6    0    0 -0.12133652310E+01  0.20126552693E+03  0.14612723355E+03  0.24872163752E+03  0.00000000000E+00 0. -1.
         -5    1    3    3    0  503 -0.40342007351E+01 -0.15478737468E+02  0.95934319374E+01  0.19235124785E+02  0.47000000000E+01 0.  1.
         11    1    4    4    0    0  0.53092864238E+00 -0.11224109914E+02 -0.10306928848E+03  0.10367999208E+03  0.00000000000E+00 0. -1.
        -12    1    4    4    0    0 -0.69673207856E+02 -0.18259179848E+03 -0.38188298656E+03  0.42898570627E+03  0.00000000000E+00 0.  1.
</event>
<event>
12    1  0.8562501E-002  0.2542165E+03  0.7818608E-02  0.1110738E+00
         21   -1    0    0  503  502  0.00000000000E+00  0.00000000000E+00  0.46410919829E+03  0.46410919829E+03  0.00000000000E+00 0.  1.
         21   -1    0    0  501  503 -0.00000000000E+00 -0.00000000000E+00 -0.20367062698E+03  0.20367062698E+03  0.00000000000E+00 0. -1.
          6    2    1    2  501    0 -0.97730017354E+02  0.15884281245E+03 -0.58001764458E+02  0.26031171573E+03  0.17209238597E+03 0.  0.
         24    2    3    3    0    0 -0.30348021762E+00  0.13101426237E+03 -0.40498639508E+02  0.15738063335E+03  0.77224962976E+02 0.  0.
         -6    2    1    2    0  502  0.97730017354E+02 -0.15884281245E+03  0.31844033576E+03  0.40746810954E+03  0.17275363235E+03 0.  0.
        -24    2    5    5    0    0  0.14836019190E+02 -0.50490769641E+02  0.49761571827E+02  0.10610130927E+03  0.77536111034E+02 0.  0.
          5    1    3    3  501    0 -0.97426537136E+02  0.27828550085E+02 -0.17503124951E+02  0.10293108239E+03  0.47000000000E+01 0. -1.
        -11    1    4    4    0    0  0.14053264089E+02 -0.36110738643E+01 -0.12445584821E+02  0.19116136313E+02  0.00000000000E+00 0.  1.
         12    1    4    4    0    0 -0.14356744307E+02  0.13462533623E+03 -0.28053054687E+02  0.13826449703E+03  0.00000000000E+00 0. -1.
         -5    1    5    5    0  502  0.82893998164E+02 -0.10835204281E+03  0.26867876394E+03  0.30136680027E+03  0.47000000000E+01 0.  1.
         11    1    6    6    0    0 -0.18126964979E+02 -0.82780122198E+01  0.48604088151E+02  0.52530655152E+02  0.00000000000E+00 0. -1.
        -12    1    6    6    0    0  0.32962984169E+02 -0.42212757421E+02  0.11574836758E+01  0.53570654120E+02  0.00000000000E+00 0.  1.
</event>
<event>
12    1  0.8562501E-002  0.2416256E+03  0.7818608E-02  0.1118977E+00
         21   -1    0    0  503  502  0.00000000000E+00  0.00000000000E+00  0.11100269392E+03  0.11100269392E+03  0.00000000000E+00 0.  1.
         21   -1    0    0  501  503 -0.00000000000E+00 -0.00000000000E+00 -0.62529178677E+03  0.62529178677E+03  0.00000000000E+00 0. -1.
          6    2    1    2  501    0  0.10711987626E+03  0.13285209933E+03 -0.40710323071E+03  0.47340886111E+03  0.17105134065E+03 0.  0.
         24    2    3    3    0    0  0.45674161659E+02  0.42632043316E+02 -0.74034549663E+02  0.12287773461E+03  0.75592347228E+02 0.  0.
         -6    2    1    2    0  502 -0.10711987626E+03 -0.13285209933E+03 -0.10718586214E+03  0.26288561958E+03  0.16880666975E+03 0.  0.
        -24    2    5    5    0    0 -0.63282111628E+02 -0.10192754047E+03 -0.13916212280E+03  0.20025456343E+03  0.79636327110E+02 0.  0.
          5    1    3    3  501    0  0.61445714599E+02  0.90220056013E+02 -0.33306868105E+03  0.35053112650E+03  0.47000000000E+01 0. -1.
        -11    1    4    4    0    0  0.57473869074E-01 -0.18136605993E+02 -0.29997796638E+02  0.35054351846E+02  0.00000000000E+00 0.  1.
         12    1    4    4    0    0  0.45616687789E+02  0.60768649309E+02 -0.44036753025E+02  0.87823382767E+02  0.00000000000E+00 0. -1.
         -5    1    5    5    0  502 -0.43837764629E+02 -0.30924558854E+02  0.31976260658E+02  0.62631056144E+02  0.47000000000E+01 0.  1.
         13    1    6    6    0    0 -0.33354718621E+00 -0.75119397408E+02 -0.80795602650E+02  0.11032209447E+03  0.00000000000E+00 0. -1.
        -14    1    6    6    0    0 -0.62948564442E+02 -0.26808143067E+02 -0.58366520146E+02  0.89932468964E+02  0.00000000000E+00 0.  1.
</event>
<event>
12    1  0.8562501E-002  0.1855139E+03  0.7818608E-02  0.1162788E+00
         21   -1    0    0  501  502  0.00000000000E+00  0.00000000000E+00  0.67449085702E+02  0.67449085702E+02  0.00000000000E+00 0.  1.
         21   -1    0    0  502  503 -0.00000000000E+00 -0.00000000000E+00 -0.64531313374E+03  0.64531313374E+03  0.00000000000E+00 0.  1.
         -6    2    1    2    0  503 -0.67530295196E+02  0.95065175355E+01 -0.45408240037E+03  0.49051630443E+03  0.17252450243E+03 0.  0.
        -24    2    3    3    0    0 -0.93096158840E+02 -0.14709756386E+02 -0.22384156490E+03  0.25755069833E+03  0.85697399668E+02 0.  0.
          6    2    1    2  501    0  0.67530295196E+02 -0.95065175355E+01 -0.12378164767E+03  0.22224591502E+03  0.17152444664E+03 0.  0.
         24    2    5    5    0    0 -0.19363210093E+02 -0.25655163100E+02 -0.98800137433E+02  0.13028165093E+03  0.78604835182E+02 0.  0.
          5    1    5    5  501    0  0.86893505289E+02  0.16148645564E+02 -0.24981510236E+02  0.91964264084E+02  0.47000000000E+01 0. -1.
        -13    1    6    6    0    0 -0.45507706867E+01 -0.53177200580E+02 -0.56973557876E+02  0.78067345749E+02  0.00000000000E+00 0.  1.
         14    1    6    6    0    0 -0.14812439406E+02  0.27522037480E+02 -0.41826579557E+02  0.52214305182E+02  0.00000000000E+00 0. -1.
         -5    1    3    3    0  503  0.25565863644E+02  0.24216273922E+02 -0.23024083547E+03  0.23296560609E+03  0.47000000000E+01 0.  1.
         11    1    4    4    0    0 -0.93218309359E+01 -0.37426203152E+02 -0.91344350149E+02  0.99153454395E+02  0.00000000000E+00 0. -1.
        -12    1    4    4    0    0 -0.83774327904E+02  0.22716446766E+02 -0.13249721476E+03  0.15839724394E+03  0.00000000000E+00 0.  1.
</event>
<event>
12    1  0.8562501E-002  0.1825521E+03  0.7818608E-02  0.1165561E+00
         21   -1    0    0  501  502  0.00000000000E+00  0.00000000000E+00  0.26012769506E+03  0.26012769506E+03  0.00000000000E+00 0.  1.
         21   -1    0    0  502  503 -0.00000000000E+00 -0.00000000000E+00 -0.13646538238E+03  0.13646538238E+03  0.00000000000E+00 0.  1.
         -6    2    1    2    0  503 -0.57638272933E+02 -0.13475755948E+02  0.11277035177E+03  0.21457501769E+03  0.17268908325E+03 0.  0.
        -24    2    3    3    0    0  0.11594116301E+01  0.53243346864E+02  0.80063517009E+02  0.11970440353E+03  0.71293612962E+02 0.  0.
          6    2    1    2  501    0  0.57638272933E+02  0.13475755948E+02  0.10891960910E+02  0.18201805975E+03  0.17177943054E+03 0.  0.
         24    2    5    5    0    0  0.33140243895E+02 -0.43492341793E+02 -0.37130952000E+02  0.10344447799E+03  0.79575076936E+02 0.  0.
          5    1    5    5  501    0  0.24498029038E+02  0.56968097742E+02  0.48022912910E+02  0.78573581765E+02  0.47000000000E+01 0. -1.
        -13    1    6    6    0    0  0.26498872702E+02 -0.13546029869E+01  0.19223592206E+02  0.32765404027E+02  0.00000000000E+00 0.  1.
         14    1    6    6    0    0  0.66413711931E+01 -0.42137738806E+02 -0.56354544206E+02  0.70679073959E+02  0.00000000000E+00 0. -1.
         -5    1    3    3    0  503 -0.58797684563E+02 -0.66719102812E+02  0.32706834760E+02  0.94870614155E+02  0.47000000000E+01 0.  1.
         13    1    4    4    0    0 -0.91568223791E+00  0.27672962330E+02 -0.73146228794E+01  0.28637999685E+02  0.00000000000E+00 0. -1.
        -14    1    4    4    0    0  0.20750938680E+01  0.25570384534E+02  0.87378139888E+02  0.91066403849E+02  0.00000000000E+00 0.  1.
</event>
<event>
12    1  0.8562501E-002  0.2417315E+03  0.7818608E-02  0.1118696E+00
         21   -1    0    0  501  502  0.00000000000E+00  0.00000000000E+00  0.17712606359E+03  0.17712606359E+03  0.00000000000E+00 0.  1.
         21   -1    0    0  502  503 -0.00000000000E+00 -0.00000000000E+00 -0.33987993413E+03  0.33987993413E+03  0.00000000000E+00 0. -1.
         -6    2    1    2    0  503  0.53401323128E+02  0.16141742020E+03 -0.12664579407E+03  0.27289792744E+03  0.17183374752E+03 0.  0.
        -24    2    3    3    0    0  0.25003169629E+02  0.17625575675E+03 -0.13750166785E+03  0.23874282022E+03  0.80001095397E+02 0.  0.
          6    2    1    2  501    0 -0.53401323128E+02 -0.16141742020E+03 -0.36108076469E+02  0.24410807028E+03  0.17139915966E+03 0.  0.
         24    2    5    5    0    0  0.27785446895E+02 -0.11100704360E+03  0.89807884115E+01  0.13833664960E+03  0.77212559050E+02 0.  0.
          5    1    5    5  501    0 -0.81186770023E+02 -0.50410376602E+02 -0.45088864880E+02  0.10577142068E+03  0.47000000000E+01 0. -1.
        -11    1    6    6    0    0  0.10494706833E+02  0.63307253355E+01  0.15251716424E+02  0.19566088231E+02  0.00000000000E+00 0.  1.
         12    1    6    6    0    0  0.17290740062E+02 -0.11733776893E+03 -0.62709280126E+01  0.11877056137E+03  0.00000000000E+00 0. -1.
         -5    1    3    3    0  503  0.28398153499E+02 -0.14838336548E+02  0.10855873781E+02  0.34155107220E+02  0.47000000000E+01 0.  1.
         11    1    4    4    0    0  0.34391317580E+02  0.65453299145E+02 -0.93384437475E+02  0.11911150346E+03  0.00000000000E+00 0. -1.
        -12    1    4    4    0    0 -0.93881479508E+01  0.11080245760E+03 -0.44117230374E+02  0.11963131676E+03  0.00000000000E+00 0.  1.
</event>
<event>
12    1  0.8562501E-002  0.4338914E+03  0.7818608E-02  0.1032656E+00
         21   -1    0    0  503  502  0.00000000000E+00  0.00000000000E+00  0.33510537584E+03  0.33510537584E+03  0.00000000000E+00 0.  1.
         21   -1    0    0  501  503 -0.00000000000E+00 -0.00000000000E+00 -0.60493980079E+03  0.60493980079E+03  0.00000000000E+00 0. -1.
          6    2    1    2  501    0 -0.29793021842E+03  0.26383229823E+03 -0.26090659578E+03  0.50629436288E+03  0.17289254907E+03 0.  0.
         24    2    3    3    0    0 -0.69224598728E+02  0.64934172487E+02 -0.60680856595E+02  0.14300499951E+03  0.88089566367E+02 0.  0.
         -6    2    1    2    0  502  0.29793021842E+03 -0.26383229823E+03 -0.89278291596E+01  0.43375081375E+03  0.17230834472E+03 0.  0.
        -24    2    5    5    0    0  0.27610905038E+03 -0.18338811521E+03  0.26266857868E+02  0.34315177429E+03  0.84827966346E+02 0.  0.
          5    1    3    3  501    0 -0.22870561969E+03  0.19889812575E+03 -0.20022573919E+03  0.36328936337E+03  0.47000000000E+01 0. -1.
        -11    1    4    4    0    0 -0.56308931268E+02  0.17882796356E+01 -0.28483340662E+01  0.56409278417E+02  0.00000000000E+00 0.  1.
         12    1    4    4    0    0 -0.12915667461E+02  0.63145892852E+02 -0.57832522529E+02  0.86595721096E+02  0.00000000000E+00 0. -1.
         -5    1    5    5    0  502  0.21821168037E+02 -0.80444183019E+02 -0.35194687027E+02  0.90599039460E+02  0.47000000000E+01 0.  1.
         11    1    6    6    0    0  0.94507712140E+02 -0.10706096408E+03 -0.87483558844E+01  0.14307442614E+03  0.00000000000E+00 0. -1.
        -12    1    6    6    0    0  0.18160133824E+03 -0.76327151133E+02  0.35015213752E+02  0.20007734815E+03  0.00000000000E+00 0.  1.
</event>
<event>
12    1  0.8562501E-002  0.1769403E+03  0.7818608E-02  0.1170813E+00
         21   -1    0    0  503  502  0.00000000000E+00  0.00000000000E+00  0.18377672751E+04  0.18377672751E+04  0.00000000000E+00 0.  1.
         21   -1    0    0  501  503 -0.00000000000E+00 -0.00000000000E+00 -0.26616795422E+02  0.26616795422E+02  0.00000000000E+00 0.  1.
          6    2    1    2  501    0 -0.66270282215E+01 -0.42711114622E+02  0.34621684424E+03  0.38881095965E+03  0.17158001719E+03 0.  0.
         24    2    3    3    0    0 -0.25632032022E+02 -0.88850465708E+02  0.19880866242E+03  0.23311480699E+03  0.79159476136E+02 0.  0.
         -6    2    1    2    0  502  0.66270282215E+01  0.42711114622E+02  0.14649336355E+04  0.14755731109E+04  0.17151470040E+03 0.  0.
        -24    2    5    5    0    0  0.50601953054E+02  0.22834993671E+02  0.13004957931E+04  0.13041358098E+04  0.79993174634E+02 0.  0.
          5    1    3    3  501    0  0.19005003801E+02  0.46139351087E+02  0.14740818182E+03  0.15569615267E+03  0.47000000000E+01 0. -1.
        -13    1    4    4    0    0 -0.41269711552E+02 -0.17300599370E+02  0.48981522898E+02  0.66345229034E+02  0.00000000000E+00 0.  1.
         14    1    4    4    0    0  0.15637679530E+02 -0.71549866338E+02  0.14982713952E+03  0.16676957795E+03  0.00000000000E+00 0. -1.
         -5    1    5    5    0  502 -0.43974924833E+02  0.19876120951E+02  0.16443784239E+03  0.17143730110E+03  0.47000000000E+01 0.  1.
         13    1    6    6    0    0 -0.60060188087E+01  0.37471809301E+02  0.42571950854E+03  0.42740766103E+03  0.00000000000E+00 0. -1.
        -14    1    6    6    0    0  0.56607971863E+02 -0.14636815630E+02  0.87477628454E+03  0.87672814877E+03  0.00000000000E+00 0.  1.
</event>
<event>
12    1  0.8562501E-002  0.1883216E+03  0.7818608E-02  0.1160039E+00
         21   -1    0    0  501  502  0.00000000000E+00  0.00000000000E+00  0.21729051409E+04  0.21729051409E+04  0.00000000000E+00 0. -1.
         21   -1    0    0  502  503 -0.00000000000E+00 -0.00000000000E+00 -0.18497766224E+02  0.18497766224E+02  0.00000000000E+00 0. -1.
         -6    2    1    2    0  503  0.96515823520E+01 -0.76325977468E+02  0.69895606782E+03  0.72381865653E+03  0.17162475034E+03 0.  0.
        -24    2    3    3    0    0  0.64165081594E+02 -0.41144467056E+02  0.55405029285E+03  0.56498152645E+03  0.80139711477E+02 0.  0.
          6    2    1    2  501    0 -0.96515823520E+01  0.76325977468E+02  0.14554513069E+04  0.14675842506E+04  0.17189013371E+03 0.  0.
         24    2    5    5    0    0 -0.74071397868E+01  0.11552007715E+03  0.12776863934E+04  0.12854753012E+04  0.81021455849E+02 0.  0.
          5    1    5    5  501    0 -0.22444425652E+01 -0.39194099679E+02  0.17776491350E+03  0.18210894938E+03  0.47000000000E+01 0. -1.
        -11    1    6    6    0    0  0.25460098449E+01  0.12233964256E+03  0.98965240951E+03  0.99718872935E+03  0.00000000000E+00 0.  1.
         12    1    6    6    0    0 -0.99531496317E+01 -0.68195654119E+01  0.28803398388E+03  0.28828657188E+03  0.00000000000E+00 0. -1.
         -5    1    3    3    0  503 -0.54513499242E+02 -0.35181510413E+02  0.14490577497E+03  0.15883713008E+03  0.47000000000E+01 0.  1.
         13    1    4    4    0    0  0.60220205585E+01  0.36357374332E+01  0.10258380131E+01  0.71088439228E+01  0.00000000000E+00 0. -1.
        -14    1    4    4    0    0  0.58143061036E+02 -0.44780204489E+02  0.55302445484E+03  0.55787268253E+03  0.00000000000E+00 0.  1.
</event>
<event>
12    1  0.8562501E-002  0.2013970E+03  0.7818608E-02  0.1148804E+00
         21   -1    0    0  503  502  0.00000000000E+00  0.00000000000E+00  0.64492805328E+03  0.64492805328E+03  0.00000000000E+00 0.  1.
         21   -1    0    0  501  503 -0.00000000000E+00 -0.00000000000E+00 -0.63325691303E+02  0.63325691303E+02  0.00000000000E+00 0. -1.
          6    2    1    2  501    0  0.38327147885E+02  0.94611172548E+02  0.25047036191E+03  0.32068551342E+03  0.17228915255E+03 0.  0.
         24    2    3    3    0    0  0.63073402301E+01  0.12659579707E+03  0.15901376972E+03  0.21853521952E+03  0.80037396477E+02 0.  0.
         -6    2    1    2    0  502 -0.38327147885E+02 -0.94611172548E+02  0.33113200007E+03  0.38756823116E+03  0.17361016129E+03 0.  0.
        -24    2    5    5    0    0 -0.93749600983E+00 -0.12737281087E+03  0.23071093087E+03  0.27541747481E+03  0.80015873170E+02 0.  0.
          5    1    3    3  501    0  0.32019807655E+02 -0.31984624522E+02  0.91456592195E+02  0.10215029390E+03  0.47000000000E+01 0. -1.
        -11    1    4    4    0    0  0.34371036734E+02  0.68755678853E+02  0.12244527716E+03  0.14457370936E+03  0.00000000000E+00 0.  1.
         12    1    4    4    0    0 -0.28063696504E+02  0.57840118217E+02  0.36568492560E+02  0.73961510158E+02  0.00000000000E+00 0. -1.
         -5    1    5    5    0  502 -0.37389651875E+02  0.32761638320E+02  0.10042106919E+03  0.11215075636E+03  0.47000000000E+01 0.  1.
         11    1    6    6    0    0  0.21162262579E+02 -0.18337441011E+02  0.12882135487E+02  0.30822921909E+02  0.00000000000E+00 0. -1.
        -12    1    6    6    0    0 -0.22099758588E+02 -0.10903536986E+03  0.21782879539E+03  0.24459455290E+03  0.00000000000E+00 0.  1.
</event>
<event>
12    1  0.8562501E-002  0.3371358E+03  0.7818608E-02  0.1068024E+00
         21   -1    0    0  501  502  0.00000000000E+00  0.00000000000E+00  0.11082083858E+03  0.11082083858E+03  0.00000000000E+00 0.  1.
         21   -1    0    0  502  503 -0.00000000000E+00 -0.00000000000E+00 -0.12607438550E+04  0.12607438550E+04  0.00000000000E+00 0. -1.
         -6    2    1    2    0  503 -0.27626287622E+03  0.86719233195E+02 -0.87114991375E+03  0.93411066764E+03  0.17268226603E+03 0.  0.
        -24    2    3    3    0    0 -0.25571384662E+03  0.36088536065E+02 -0.61233949285E+03  0.66955319927E+03  0.81546786306E+02 0.  0.
          6    2    1    2  501    0  0.27626287622E+03 -0.86719233195E+02 -0.27877310269E+03  0.43745402595E+03  0.17265624765E+03 0.  0.
         24    2    5    5    0    0  0.19436997769E+03 -0.12666714484E+03 -0.19276165469E+03  0.31206526385E+03  0.80021369486E+02 0.  0.
          5    1    5    5  501    0  0.81892898525E+02  0.39947911642E+02 -0.86011447994E+02  0.12538876209E+03  0.47000000000E+01 0. -1.
        -11    1    6    6    0    0  0.29815848212E+02 -0.57389938690E+01  0.12485166403E+01  0.30388807957E+02  0.00000000000E+00 0.  1.
         12    1    6    6    0    0  0.16455412948E+03 -0.12092815097E+03 -0.19401017133E+03  0.28167645590E+03  0.00000000000E+00 0. -1.
         -5    1    3    3    0  503 -0.20549029600E+02  0.50630697130E+02 -0.25881042089E+03  0.26455746837E+03  0.47000000000E+01 0.  1.
         11    1    4    4    0    0 -0.40932302251E+02 -0.29455342181E+01 -0.18716977399E+03  0.19161590183E+03  0.00000000000E+00 0. -1.
        -12    1    4    4    0    0 -0.21478154437E+03  0.39034070284E+02 -0.42516971886E+03  0.47793729744E+03  0.00000000000E+00 0.  1.
</event>
<event>
12    1  0.8562501E-002  0.2083540E+03  0.7818608E-02  0.1143074E+00
         21   -1    0    0  501  502  0.00000000000E+00  0.00000000000E+00  0.98977930243E+02  0.98977930243E+02  0.00000000000E+00 0. -1.
         21   -1    0    0  502  503 -0.00000000000E+00 -0.00000000000E+00 -0.16242046180E+04  0.16242046180E+04  0.00000000000E+00 0.  1.
         -6    2    1    2    0  503  0.59757203277E+02  0.10084918440E+03 -0.14988951723E+04  0.15131712825E+04  0.17105294886E+03 0.  0.
        -24    2    3    3    0    0  0.76933089478E+02  0.11372613156E+02 -0.63593475277E+03  0.64540181799E+03  0.77990129484E+02 0.  0.
          6    2    1    2  501    0 -0.59757203277E+02 -0.10084918440E+03 -0.26331515460E+02  0.21001126574E+03  0.17224953322E+03 0.  0.
         24    2    5    5    0    0  0.23914295857E+02 -0.36768523644E+02 -0.46273367297E+02  0.10264731320E+03  0.80445189474E+02 0.  0.
          5    1    5    5  501    0 -0.83671499133E+02 -0.64080660756E+02  0.19941851837E+02  0.10736395254E+03  0.47000000000E+01 0. -1.
        -13    1    6    6    0    0 -0.14181149789E+02  0.10137592825E+02 -0.37803917879E+02  0.41629460777E+02  0.00000000000E+00 0.  1.
         14    1    6    6    0    0  0.38095445646E+02 -0.46906116469E+02 -0.84694494178E+01  0.61017852425E+02  0.00000000000E+00 0. -1.
         -5    1    3    3    0  503 -0.17175886202E+02  0.89476571244E+02 -0.86296041956E+03  0.86776946455E+03  0.47000000000E+01 0.  1.
         13    1    4    4    0    0  0.32279573554E+02  0.38466208885E+02 -0.19409297649E+03  0.20048367419E+03  0.00000000000E+00 0. -1.
        -14    1    4    4    0    0  0.44653515924E+02 -0.27093595729E+02 -0.44184177628E+03  0.44491814380E+03  0.00000000000E+00 0.  1.
</event>
<event>
12    1  0.8562501E-002  0.2286112E+03  0.7818608E-02  0.1127789E+00
         21   -1    0    0  501  502  0.00000000000E+00  0.00000000000E+00  0.29640292631E+03  0.29640292631E+03  0.00000000000E+00 0. -1.
         21   -1    0    0  502  503 -0.00000000000E+00 -0.00000000000E+00 -0.19765363397E+03  0.19765363397E+03  0.00000000000E+00 0. -1.
         -6    2    1    2    0  503  0.52766940940E+02 -0.14204135893E+03 -0.33236260958E+02  0.23008068779E+03  0.16991873396E+03 0.  0.
        -24    2    3    3    0    0  0.66016463202E+02 -0.37999996141E+02 -0.56452168292E+02  0.12255755835E+03  0.77661668049E+02 0.  0.
          6    2    1    2  501    0 -0.52766940940E+02  0.14204135893E+03  0.13198555330E+03  0.26397587250E+03  0.17118112419E+03 0.  0.
         24    2    5    5    0    0 -0.33344742740E+02  0.37412626070E+01  0.27545269580E+02  0.89522436625E+02  0.78292118817E+02 0.  0.
          5    1    5    5  501    0 -0.19422198200E+02  0.13830009632E+03  0.10444028372E+03  0.17445343587E+03  0.47000000000E+01 0. -1.
        -13    1    6    6    0    0 -0.46465091046E+02 -0.10218277398E+02 -0.88514044425E+01  0.48391788968E+02  0.00000000000E+00 0.  1.
         14    1    6    6    0    0  0.13120348306E+02  0.13959540005E+02  0.36396674022E+02  0.41130647657E+02  0.00000000000E+00 0. -1.
         -5    1    3    3    0  503 -0.13249522262E+02 -0.10404136278E+03  0.23215907334E+02  0.10752312944E+03  0.47000000000E+01 0.  1.
         11    1    4    4    0    0  0.50677636403E+02 -0.57790263187E+02 -0.59679500389E+02  0.97311767620E+02  0.00000000000E+00 0. -1.
        -12    1    4    4    0    0  0.15338826799E+02  0.19790267046E+02  0.32273320964E+01  0.25245790734E+02  0.00000000000E+00 0.  1.
</event>
<event>
12    1  0.8562501E-002  0.2199903E+03  0.7818608E-02  0.1133997E+00
         21   -1    0    0  503  502  0.00000000000E+00  0.00000000000E+00  0.16943618967E+03  0.16943618967E+03  0.00000000000E+00 0.  1.
         21   -1    0    0  501  503 -0.00000000000E+00 -0.00000000000E+00 -0.44920907460E+03  0.44920907460E+03  0.00000000000E+00 0.  1.
          6    2    1    2  501    0  0.13311582233E+03 -0.32079852620E+02 -0.32708717177E+03  0.39418489550E+03  0.17218238820E+03 0.  0.
         24    2    3    3    0    0  0.10856461073E+03  0.31914070231E+02 -0.27581975597E+03  0.30846195764E+03  0.79167284560E+02 0.  0.
         -6    2    1    2    0  502 -0.13311582233E+03  0.32079852620E+02  0.47314286847E+02  0.22446036877E+03  0.17144934036E+03 0.  0.
        -24    2    5    5    0    0 -0.36361958602E+02  0.55004075777E+02 -0.18365862334E+02  0.10520097857E+03  0.79889302212E+02 0.  0.
          5    1    3    3  501    0  0.24551211604E+02 -0.63993922851E+02 -0.51267415799E+02  0.85722937863E+02  0.47000000000E+01 0. -1.
        -11    1    4    4    0    0  0.60561649255E+02  0.25010125970E+02 -0.65588956824E+02  0.92709929450E+02  0.00000000000E+00 0.  1.
         12    1    4    4    0    0  0.48002961470E+02  0.69039442611E+01 -0.21023079915E+03  0.21575202819E+03  0.00000000000E+00 0. -1.
         -5    1    5    5    0  502 -0.96753863727E+02 -0.22924223156E+02  0.65680149181E+02  0.11925939020E+03  0.47000000000E+01 0.  1.
         11    1    6    6    0    0 -0.27904791147E+02  0.60358456164E+02  0.16843182745E+02  0.68596744853E+02  0.00000000000E+00 0. -1.
        -12    1    6    6    0    0 -0.84571674555E+01 -0.53543803878E+01 -0.35209045080E+02  0.36604233719E+02  0.00000000000E+00 0.  1.
</event>
<event>
12    1  0.8562501E-002  0.3123732E+03  0.7818608E-02  0.1079260E+00
         21   -1    0    0  503  502  0.00000000000E+00  0.00000000000E+00  0.51938950152E+03  0.51938950152E+03  0.00000000000E+00 0. -1.
         21   -1    0    0  501  503 -0.00000000000E+00 -0.00000000000E+00 -0.33454564811E+03  0.33454564811E+03  0.00000000000E+00 0. -1.
          6    2    1    2  501    0  0.15079890565E+03  0.21280910263E+03 -0.19055131407E+03  0.36557200699E+03  0.17118722175E+03 0.  0.
         24    2    3    3    0    0  0.64274802653E+02  0.31547590503E+02 -0.36539248974E+02  0.11242390335E+03  0.78597179383E+02 0.  0.
         -6    2    1    2    0  502 -0.15079890565E+03 -0.21280910263E+03  0.37539516748E+03  0.48836314264E+03  0.17189823506E+03 0.  0.
        -24    2    5    5    0    0 -0.12478352074E+03 -0.10257860458E+03  0.14396800409E+03  0.23066528680E+03  0.79914899533E+02 0.  0.
          5    1    3    3  501    0  0.86524102999E+02  0.18126151212E+03 -0.15401206510E+03  0.25314810363E+03  0.47000000000E+01 0. -1.
        -11    1    4    4    0    0  0.51578168794E+02  0.95849663407E+01 -0.58709004441E+02  0.78733260306E+02  0.00000000000E+00 0.  1.
         12    1    4    4    0    0  0.12696633859E+02  0.21962624162E+02  0.22169755467E+02  0.33690643047E+02  0.00000000000E+00 0. -1.
         -5    1    5    5    0  502 -0.26015384916E+02 -0.11023049805E+03  0.23142716339E+03  0.25769785585E+03  0.47000000000E+01 0.  1.
         13    1    6    6    0    0 -0.91816587474E+02 -0.10351288669E+03  0.14100212684E+03  0.19755202662E+03  0.00000000000E+00 0. -1.
        -14    1    6    6    0    0 -0.32966933262E+02  0.93428211808E+00  0.29658772478E+01  0.33113260178E+02  0.00000000000E+00 0.  1.
</event>
<event>
12    1  0.8562501E-002  0.1888528E+03  0.7818608E-02  0.1159646E+00
         21   -1    0    0  501  502  0.00000000000E+00  0.00000000000E+00  0.11345394995E+04  0.11345394995E+04  0.00000000000E+00 0.  1.
         21   -1    0    0  502  503 -0.00000000000E+00 -0.00000000000E+00 -0.89649968887E+02  0.89649968887E+02  0.00000000000E+00 0.  1.
         -6    2    1    2    0  503 -0.13104349767E+02 -0.76200862550E+02  0.28446157941E+02  0.19035073897E+03  0.17159814827E+03 0.  0.
        -24    2    3    3    0    0  0.26665700669E+02  0.27642003946E+01 -0.22626980093E+02  0.88136779524E+02  0.80854259509E+02 0.  0.
          6    2    1    2  501    0  0.13104349767E+02  0.76200862550E+02  0.10164433726E+04  0.10338387294E+04  0.17229942876E+03 0.  0.
         24    2    5    5    0    0  0.29211372390E+02  0.11661477684E+03  0.73420849902E+03  0.74823177125E+03  0.79601212430E+02 0.  0.
          5    1    5    5  501    0 -0.16107022623E+02 -0.40413914290E+02  0.28223487362E+03  0.28560695813E+03  0.47000000000E+01 0. -1.
        -11    1    6    6    0    0 -0.21180700127E+02  0.76255444406E+02  0.43440208909E+03  0.44155259015E+03  0.00000000000E+00 0.  1.
         12    1    6    6    0    0  0.50392072517E+02  0.40359332435E+02  0.29980640992E+03  0.30667918109E+03  0.00000000000E+00 0. -1.
         -5    1    3    3    0  503 -0.39770050437E+02 -0.78965062945E+02  0.51073138034E+02  0.10221395945E+03  0.47000000000E+01 0.  1.
         13    1    4    4    0    0 -0.13179808762E+02  0.30260078117E+02 -0.22101576390E+02  0.39722277950E+02  0.00000000000E+00 0. -1.
        -14    1    4    4    0    0  0.39845509431E+02 -0.27495877723E+02 -0.52540370282E+00  0.48414501574E+02  0.00000000000E+00 0.  1.
</event>
<event>
12    1  0.8562501E-002  0.2515941E+03  0.7818608E-02  0.1112393E+00
         21   -1    0    0  503  502  0.00000000000E+00  0.00000000000E+00  0.60796231315E+03  0.60796231315E+03  0.00000000000E+00 0.  1.
         21   -1    0    0  501  503 -0.00000000000E+00 -0.00000000000E+00 -0.10775957484E+03  0.10775957484E+03  0.00000000000E+00 0.  1.
          6    2    1    2  501    0  0.18327931753E+03  0.64651495424E+01  0.18244247461E+03  0.31078104619E+03  0.17223964624E+03 0.  0.
         24    2    3    3    0    0  0.71734667376E+02 -0.60249291249E+02  0.10145975215E+03  0.15757100433E+03  0.75886102166E+02 0.  0.
         -6    2    1    2    0  502 -0.18327931753E+03 -0.64651495424E+01  0.31776026369E+03  0.40494084179E+03  0.17138376171E+03 0.  0.
        -24    2    5    5    0    0 -0.18603990161E+03  0.10101337049E+02  0.20188010824E+03  0.28775564763E+03  0.85643754233E+02 0.  0.
          5    1    3    3  501    0  0.11154465015E+03  0.66714440791E+02  0.80982722468E+02  0.15321004186E+03  0.47000000000E+01 0. -1.
        -13    1    4    4    0    0  0.57643306710E+02 -0.16697861409E+01  0.66064233615E+02  0.87692770268E+02  0.00000000000E+00 0.  1.
         14    1    4    4    0    0  0.14091360666E+02 -0.58579505108E+02  0.35395518532E+02  0.69878234066E+02  0.00000000000E+00 0. -1.
         -5    1    5    5    0  502  0.27605840814E+01 -0.16566486592E+02  0.11588015546E+03  0.11718519417E+03  0.47000000000E+01 0.  1.
         11    1    6    6    0    0  0.31191710593E+01  0.11041749768E+02  0.52745335164E+00  0.11485977237E+02  0.00000000000E+00 0. -1.
        -12    1    6    6    0    0 -0.18915907267E+03 -0.94041271885E+00  0.20135265488E+03  0.27626967039E+03  0.00000000000E+00 0.  1.
</event>
<event>
12    1  0.8562501E-002  0.1803134E+03  0.7818608E-02  0.1167727E+00
         21   -1    0    0  501  502  0.00000000000E+00  0.00000000000E+00  0.51888872951E+02  0.51888872951E+02  0.00000000000E+00 0.  1.
         21   -1    0    0  502  503 -0.00000000000E+00 -0.00000000000E+00 -0.92876443539E+03  0.92876443539E+03  0.00000000000E+00 0.  1.
         -6    2    1    2    0  503 -0.14581568481E+02 -0.52241029701E+02 -0.71885376935E+03  0.74089552731E+03  0.17097863418E+03 0.  0.
        -24    2    3    3    0    0  0.16285795216E+02 -0.41159091429E+02 -0.69304472599E+03  0.69889790574E+03  0.78663794098E+02 0.  0.
          6    2    1    2  501    0  0.14581568481E+02  0.52241029701E+02 -0.15802179308E+03  0.23975778103E+03  0.17196266790E+03 0.  0.
         24    2    5    5    0    0 -0.28458425106E+02  0.70159817644E+02 -0.15894989624E+03  0.19289121102E+03  0.78801445438E+02 0.  0.
          5    1    5    5  501    0  0.43039993587E+02 -0.17918787943E+02  0.92810315497E+00  0.46866570013E+02  0.47000000000E+01 0. -1.
        -11    1    6    6    0    0  0.25682671788E+02  0.15389091107E+02 -0.63828551793E+02  0.70501828198E+02  0.00000000000E+00 0.  1.
         12    1    6    6    0    0 -0.54141096895E+02  0.54770726537E+02 -0.95121344444E+02  0.12238938282E+03  0.00000000000E+00 0. -1.
         -5    1    3    3    0  503 -0.30867363697E+02 -0.11081938272E+02 -0.25809043369E+02  0.41997621564E+02  0.47000000000E+01 0.  1.
         13    1    4    4    0    0  0.36580466119E+01 -0.61915328982E+02 -0.39222495852E+03  0.39709861162E+03  0.00000000000E+00 0. -1.
        -14    1    4    4    0    0  0.12627748604E+02  0.20756237553E+02 -0.30081976747E+03  0.30179929412E+03  0.00000000000E+00 0.  1.
</event>
<event>
12    1  0.8562501E-002  0.1888176E+03  0.7818608E-02  0.1161081E+00
         21   -1    0    0  501  502  0.00000000000E+00  0.00000000000E+00  0.23479883972E+02  0.23479883972E+02  0.00000000000E+00 0.  1.
         21   -1    0    0  502  503 -0.00000000000E+00 -0.00000000000E+00 -0.14666354298E+04  0.14666354298E+04  0.00000000000E+00 0.  1.
         -6    2    1    2    0  503 -0.37237061050E+02  0.48666957296E+02 -0.75826160063E+03  0.78141714441E+03  0.17859738838E+03 0.  0.
        -24    2    3    3    0    0  0.18847766637E+02 -0.26347698270E+02 -0.24138340103E+03  0.25610022133E+03  0.79195565299E+02 0.  0.
          6    2    1    2  501    0  0.37237061050E+02 -0.48666957296E+02 -0.68489394521E+03  0.70869816937E+03  0.17151765985E+03 0.  0.
         24    2    5    5    0    0  0.47225829373E+02 -0.40535431479E+02 -0.68720819082E+03  0.69479338827E+03  0.81297937826E+02 0.  0.
          5    1    5    5  501    0 -0.99887683232E+01 -0.81315258174E+01  0.23142456093E+01  0.13904781101E+02  0.47000000000E+01 0. -1.
        -11    1    6    6    0    0  0.43082339028E+02  0.58747168978E+01 -0.49948516628E+03  0.50137414330E+03  0.00000000000E+00 0.  1.
         12    1    6    6    0    0  0.41434903456E+01 -0.46410148377E+02 -0.18772302454E+03  0.19341924497E+03  0.00000000000E+00 0. -1.
         -5    1    3    3    0  503 -0.56084827687E+02  0.75014655567E+02 -0.51687819960E+03  0.52531692308E+03  0.47000000000E+01 0.  1.
         11    1    4    4    0    0 -0.17588204923E+02 -0.26649450165E+01 -0.18008073167E+03  0.18095722369E+03  0.00000000000E+00 0. -1.
        -12    1    4    4    0    0  0.36435971559E+02 -0.23682753254E+02 -0.61302669358E+02  0.75142997648E+02  0.00000000000E+00 0.  1.
</event>
<event>
12    1  0.8562501E-002  0.2461388E+03  0.7818608E-02  0.1115845E+00
         21   -1    0    0  501  502  0.00000000000E+00  0.00000000000E+00  0.40126494373E+03  0.40126494373E+03  0.00000000000E+00 0.  1.
         21   -1    0    0  502  503 -0.00000000000E+00 -0.00000000000E+00 -0.12066995039E+04  0.12066995039E+04  0.00000000000E+00 0.  1.
         -6    2    1    2    0  503  0.17468085117E+03  0.15262667993E+00 -0.11547763047E+04  0.11806191745E+04  0.17274228834E+03 0.  0.
        -24    2    3    3    0    0  0.17334628792E+03  0.34464165728E+02 -0.10905558170E+04  0.11076436731E+04  0.79534911545E+02 0.  0.
          6    2    1    2  501    0 -0.17468085117E+03 -0.15262667993E+00  0.34934174458E+03  0.42734527311E+03  0.17340964474E+03 0.  0.
         24    2    5    5    0    0 -0.68743532291E+02  0.75549033782E+01  0.28318620944E+03  0.30212240628E+03  0.79377385682E+02 0.  0.
          5    1    5    5  501    0 -0.10593731888E+03 -0.77075300581E+01  0.66155535131E+02  0.12522286684E+03  0.47000000000E+01 0. -1.
        -13    1    6    6    0    0 -0.53835985122E+02 -0.19487177375E+02  0.25128178182E+03  0.25772193786E+03  0.00000000000E+00 0.  1.
         14    1    6    6    0    0 -0.14907547169E+02  0.27042080753E+02  0.31904427621E+02  0.44400468419E+02  0.00000000000E+00 0. -1.
         -5    1    3    3    0  503  0.13345632524E+01 -0.34311539048E+02 -0.64220487701E+02  0.72975501447E+02  0.47000000000E+01 0.  1.
         13    1    4    4    0    0  0.26890517666E+01  0.17562164834E+02 -0.19559947139E+03  0.19640471949E+03  0.00000000000E+00 0. -1.
        -14    1    4    4    0    0  0.17065723615E+03  0.16902000894E+02 -0.89495634565E+03  0.91123895357E+03  0.00000000000E+00 0.  1.
</event>
<event>
12    1  0.8562501E-002  0.2136158E+03  0.7818608E-02  0.1139291E+00
         21   -1    0    0  503  502  0.00000000000E+00  0.00000000000E+00  0.51559691156E+03  0.51559691156E+03  0.00000000000E+00 0. -1.
         21   -1    0    0  501  503 -0.00000000000E+00 -0.00000000000E+00 -0.87699657090E+02  0.87699657090E+02  0.00000000000E+00 0. -1.
          6    2    1    2  501    0 -0.97285164804E+02 -0.71878422996E+02  0.19562268936E+03  0.28965485465E+03  0.17607040423E+03 0.  0.
         24    2    3    3    0    0 -0.13187591965E+03 -0.28195799946E+02  0.13030525014E+03  0.20367142751E+03  0.79475347438E+02 0.  0.
         -6    2    1    2    0  502  0.97285164804E+02  0.71878422996E+02  0.23227456512E+03  0.31364171401E+03  0.17259414875E+03 0.  0.
        -24    2    5    5    0    0  0.86449035918E+02  0.97744768188E+02  0.11411289717E+03  0.19210670146E+03  0.82799492303E+02 0.  0.
          5    1    3    3  501    0  0.34590754844E+02 -0.43682623050E+02  0.65317439218E+02  0.85983427143E+02  0.47000000000E+01 0. -1.
        -13    1    4    4    0    0 -0.17445934347E+02  0.24353286272E+02  0.18017554685E+02  0.34958195810E+02  0.00000000000E+00 0.  1.
         14    1    4    4    0    0 -0.11442998530E+03 -0.52549086218E+02  0.11228769546E+03  0.16871323170E+03  0.00000000000E+00 0. -1.
         -5    1    5    5    0  502  0.10836128886E+02 -0.25866345192E+02  0.11816166795E+03  0.12153501255E+03  0.47000000000E+01 0.  1.
         13    1    6    6    0    0  0.89234355646E+02  0.45541420321E+02  0.89439821478E+02  0.13429919158E+03  0.00000000000E+00 0. -1.
        -14    1    6    6    0    0 -0.27853197283E+01  0.52203347867E+02  0.24673075690E+02  0.57807509879E+02  0.00000000000E+00 0.  1.
</event>
<event>
12    1  0.8562501E-002  0.2190566E+03  0.7818608E-02  0.1134918E+00
         21   -1    0    0  501  502  0.00000000000E+00  0.00000000000E+00  0.10423723292E+03  0.10423723292E+03  0.00000000000E+00 0. -1.
         21   -1    0    0  502  503 -0.00000000000E+00 -0.00000000000E+00 -0.46970378381E+03  0.46970378381E+03  0.00000000000E+00 0. -1.
         -6    2    1    2    0  503 -0.60648101121E+02  0.12027834816E+03 -0.13422684709E+03  0.25541695263E+03  0.17051656813E+03 0.  0.
        -24    2    3    3    0    0 -0.89346891097E+02  0.74233383171E+02 -0.40146346495E+02  0.14671097331E+03  0.80118152927E+02 0.  0.
          6    2    1    2  501    0  0.60648101121E+02 -0.12027834816E+03 -0.23123970380E+03  0.31852406409E+03  0.17274462534E+03 0.  0.
         24    2    5    5    0    0 -0.27197774652E+01 -0.18768079725E+02 -0.16237348724E+03  0.18037751720E+03  0.76231629554E+02 0.  0.
          5    1    5    5  501    0  0.63367878586E+02 -0.10151026844E+03 -0.68866216557E+02  0.13814654689E+03  0.47000000000E+01 0. -1.
        -11    1    6    6    0    0 -0.17853435800E+02 -0.33382672033E+02 -0.35920942042E+02  0.52186799472E+02  0.00000000000E+00 0.  1.
         12    1    6    6    0    0  0.15133658334E+02  0.14614592308E+02 -0.12645254520E+03  0.12819071773E+03  0.00000000000E+00 0. -1.
         -5    1    3    3    0  503  0.28698789976E+02  0.46044964994E+02 -0.94080500597E+02  0.10870597932E+03  0.47000000000E+01 0.  1.
         11    1    4    4    0    0 -0.65962153079E+02  0.83920911079E+02 -0.52031437458E+02  0.11874761235E+03  0.00000000000E+00 0. -1.
        -12    1    4    4    0    0 -0.23384738017E+02 -0.96875279085E+01  0.11885090964E+02  0.27963360963E+02  0.00000000000E+00 0.  1.
</event>
<event>
12    1  0.8562501E-002  0.1823737E+03  0.7818608E-02  0.1165956E+00
         21   -1    0    0  501  502  0.00000000000E+00  0.00000000000E+00  0.28399866464E+02  0.28399866464E+02  0.00000000000E+00 0. -1.
         21   -1    0    0  502  503 -0.00000000000E+00 -0.00000000000E+00 -0.30380080660E+04  0.30380080660E+04  0.00000000000E+00 0. -1.
         -6    2    1    2    0  503 -0.44084897667E+02 -0.46523464042E+02 -0.29637413455E+03  0.34705152612E+03  0.16881712960E+03 0.  0.
        -24    2    3    3    0    0 -0.56227058264E+02 -0.59851887787E+02 -0.30482853200E+03  0.32659069086E+03  0.83649954442E+02 0.  0.
          6    2    1    2  501    0  0.44084897667E+02  0.46523464042E+02 -0.27132340650E+04  0.27193564064E+04  0.17074033612E+03 0.  0.
         24    2    5    5    0    0  0.74962624811E+02  0.32493609654E+02 -0.10877460764E+04  0.10935078396E+04  0.76763525247E+02 0.  0.
          5    1    5    5  501    0 -0.30877727144E+02  0.14029854389E+02 -0.16254879886E+04  0.16258485667E+04  0.47000000000E+01 0. -1.
        -11    1    6    6    0    0  0.52236630425E+02  0.44851607248E+02 -0.99017339238E+03  0.99256419399E+03  0.00000000000E+00 0.  1.
         12    1    6    6    0    0  0.22725994386E+02 -0.12357997594E+02 -0.97572684043E+02  0.10094364565E+03  0.00000000000E+00 0. -1.
         -5    1    3    3    0  503  0.12142160597E+02  0.13328423745E+02  0.84543974570E+01  0.20460835267E+02  0.47000000000E+01 0.  1.
         11    1    4    4    0    0  0.26109786714E+01 -0.49660530371E+02 -0.19857528369E+03  0.20470742239E+03  0.00000000000E+00 0. -1.
        -12    1    4    4    0    0 -0.58838036936E+02 -0.10191357416E+02 -0.10625324831E+03  0.12188326847E+03  0.00000000000E+00 0.  1.
</event>
<event>
12    1  0.8562501E-002  0.2700935E+03  0.7818608E-02  0.1101581E+00
         21   -1    0    0  501  502  0.00000000000E+00  0.00000000000E+00  0.88207744609E+02  0.88207744609E+02  0.00000000000E+00 0.  1.
         21   -1    0    0  502  503 -0.00000000000E+00 -0.00000000000E+00 -0.94017375478E+03  0.94017375478E+03  0.00000000000E+00 0.  1.
         -6    2    1    2    0  503 -0.19863592657E+03 -0.60404471838E+02 -0.61191696721E+03  0.66887434109E+03  0.17275872733E+03 0.  0.
        -24    2    3    3    0    0 -0.18288139938E+03 -0.72077811717E+02 -0.36934632923E+03  0.42546711769E+03  0.77231730162E+02 0.  0.
          6    2    1    2  501    0  0.19863592657E+03  0.60404471838E+02 -0.24004904296E+03  0.35950715830E+03  0.16886954225E+03 0.  0.
         24    2    5    5    0    0  0.14003885905E+03  0.10475276085E+03 -0.16397482020E+03  0.25363098332E+03  0.82806467679E+02 0.  0.
          5    1    5    5  501    0  0.58597067517E+02 -0.44348289009E+02 -0.76074222764E+02  0.10587617498E+03  0.47000000000E+01 0. -1.
        -13    1    6    6    0    0  0.39637444797E+02 -0.10019873589E+02 -0.31045498576E+02  0.51335639458E+02  0.00000000000E+00 0.  1.
         14    1    6    6    0    0  0.10040141426E+03  0.11477263444E+03 -0.13292932162E+03  0.20229534386E+03  0.00000000000E+00 0. -1.
         -5    1    3    3    0  503 -0.15754527191E+02  0.11673339879E+02 -0.24257063798E+03  0.24340722340E+03  0.47000000000E+01 0.  1.
         11    1    4    4    0    0 -0.10655311002E+03 -0.81608920093E+02 -0.23981660722E+03  0.27481918819E+03  0.00000000000E+00 0. -1.
        -12    1    4    4    0    0 -0.76328289355E+02  0.95311083761E+01 -0.12952972200E+03  0.15064792951E+03  0.00000000000E+00 0.  1.
</event>
<event>
12    1  0.8562501E-002  0.2355926E+03  0.7818608E-02  0.1124504E+00
         21   -1    0    0  503  502  0.00000000000E+00  0.00000000000E+00  0.96867294396E+03  0.96867294396E+03  0.00000000000E+00 0.  1.
         21   -1    0    0  501  503 -0.00000000000E+00 -0.00000000000E+00 -0.24239943528E+03  0.24239943528E+03  0.00000000000E+00 0.  1.
          6    2    1    2  501    0 -0.15941226940E+03  0.32328080574E+02 -0.17117751091E+03  0.28321344812E+03  0.15636732562E+03 0.  0.
         24    2    3    3    0    0 -0.11912899607E+03 -0.26114178466E+01 -0.17891095365E+03  0.22912641828E+03  0.79317394125E+02 0.  0.
         -6    2    1    2    0  502  0.15941226940E+03 -0.32328080574E+02  0.89745101959E+03  0.92785893113E+03  0.17043029978E+03 0.  0.
        -24    2    5    5    0    0  0.71251711344E+02 -0.26271530099E+00  0.22880209177E+03  0.25264492778E+03  0.80013667237E+02 0.  0.
          5    1    3    3  501    0 -0.40283273332E+02  0.34939498421E+02  0.77334427328E+01  0.54087029838E+02  0.47000000000E+01 0. -1.
        -11    1    4    4    0    0 -0.68162710097E+02 -0.34162487428E+02 -0.64099043207E+02  0.99608824585E+02  0.00000000000E+00 0.  1.
         12    1    4    4    0    0 -0.50966285972E+02  0.31551069582E+02 -0.11481191044E+03  0.12951759369E+03  0.00000000000E+00 0. -1.
         -5    1    5    5    0  502  0.88160558058E+02 -0.32065365273E+02  0.66864892781E+03  0.67521400335E+03  0.47000000000E+01 0.  1.
         11    1    6    6    0    0  0.53427073894E+02 -0.25156770420E+02  0.73158825739E+02  0.94018769968E+02  0.00000000000E+00 0. -1.
        -12    1    6    6    0    0  0.17824637449E+02  0.24894055119E+02  0.15564326604E+03  0.15862615781E+03  0.00000000000E+00 0.  1.
</event>
<event>
12    1  0.8562501E-002  0.1746178E+03  0.7818608E-02  0.1173149E+00
         21   -1    0    0  503  502  0.00000000000E+00  0.00000000000E+00  0.26493305957E+03  0.26493305957E+03  0.00000000000E+00 0. -1.
         21   -1    0    0  501  503 -0.00000000000E+00 -0.00000000000E+00 -0.21637602463E+03  0.21637602463E+03  0.00000000000E+00 0. -1.
          6    2    1    2  501    0 -0.34002256009E+02 -0.50560255416E+01 -0.14043613306E+03  0.22408413566E+03  0.17120068802E+03 0.  0.
         24    2    3    3    0    0  0.78386185010E+01 -0.15484164297E+01 -0.32684035258E+01  0.80557001894E+02  0.80093111808E+02 0.  0.
         -6    2    1    2    0  502  0.34002256009E+02  0.50560255416E+01  0.18899316799E+03  0.25722494854E+03  0.17106881597E+03 0.  0.
        -24    2    5    5    0    0 -0.17661512081E+02 -0.47971976985E+02  0.12922667277E+03  0.16196090529E+03  0.83177895527E+02 0.  0.
          5    1    3    3  501    0 -0.41840874510E+02 -0.35076091119E+01 -0.13716772953E+03  0.14352713376E+03  0.47000000000E+01 0. -1.
        -13    1    4    4    0    0 -0.93294501364E+01  0.36900958790E+02  0.20337323214E+01  0.38116341202E+02  0.00000000000E+00 0.  1.
         14    1    4    4    0    0  0.17168068637E+02 -0.38449375219E+02 -0.53021358472E+01  0.42440660693E+02  0.00000000000E+00 0. -1.
         -5    1    5    5    0  502  0.51663768090E+02  0.53028002527E+02  0.59766495224E+02  0.95264043251E+02  0.47000000000E+01 0.  1.
         11    1    6    6    0    0 -0.72993347793E+01  0.43813470688E+01  0.10143063972E+03  0.10178728390E+03  0.00000000000E+00 0. -1.
        -12    1    6    6    0    0 -0.10362177301E+02 -0.52353324054E+02  0.27796033044E+02  0.60173621388E+02  0.00000000000E+00 0.  1.
</event>
<event>
12    1  0.8562501E-002  0.2143488E+03  0.7818608E-02  0.1138385E+00
         21   -1    0    0  501  502  0.00000000000E+00  0.00000000000E+00  0.19693118881E+03  0.19693118881E+03  0.00000000000E+00 0.  1.
         21   -1    0    0  502  503 -0.00000000000E+00 -0.00000000000E+00 -0.26740957059E+03  0.26740957059E+03  0.00000000000E+00 0.  1.
         -6    2    1    2    0  503 -0.11232158861E+03 -0.60378114158E+02  0.49226237890E+02  0.21883190406E+03  0.17088745946E+03 0.  0.
        -24    2    3    3    0    0  0.11113098363E+02 -0.56037873835E+02  0.28565590588E+02  0.93516653667E+02  0.68305397212E+02 0.  0.
          6    2    1    2  501    0  0.11232158861E+03  0.60378114158E+02 -0.11970461967E+03  0.24550885535E+03  0.17228971573E+03 0.  0.
         24    2    5    5    0    0  0.12911349789E+03  0.54005133824E+02 -0.43047124637E+02  0.16663525622E+03  0.79544980090E+02 0.  0.
          5    1    5    5  501    0 -0.16791909283E+02  0.63729803338E+01 -0.76657495031E+02  0.78873599133E+02  0.47000000000E+01 0. -1.
        -11    1    6    6    0    0  0.13117893450E+03  0.30914709301E+02 -0.24578564745E+02  0.13699539391E+03  0.00000000000E+00 0.  1.
         12    1    6    6    0    0 -0.20654366082E+01  0.23090424523E+02 -0.18468559892E+02  0.29639862306E+02  0.00000000000E+00 0. -1.
         -5    1    3    3    0  503 -0.12343468697E+03 -0.43402403225E+01  0.20660647303E+02  0.12531525039E+03  0.47000000000E+01 0.  1.
         13    1    4    4    0    0  0.15428569194E+02  0.12808187726E+02  0.57521061702E+01  0.20860899923E+02  0.00000000000E+00 0. -1.
        -14    1    4    4    0    0 -0.43154708315E+01 -0.68846061561E+02  0.22813484417E+02  0.72655753745E+02  0.00000000000E+00 0.  1.
</event>
<event>
12    1  0.8562501E-002  0.2557252E+03  0.7818608E-02  0.1109861E+00
         21   -1    0    0  501  502  0.00000000000E+00  0.00000000000E+00  0.26614526197E+04  0.26614526197E+04  0.00000000000E+00 0.  1.
         21   -1    0    0  502  503 -0.00000000000E+00 -0.00000000000E+00 -0.28278097761E+02  0.28278097761E+02  0.00000000000E+00 0.  1.
         -6    2    1    2    0  503 -0.13646516443E+03  0.13017722417E+03  0.82293047065E+03  0.86151330838E+03  0.17152775342E+03 0.  0.
        -24    2    3    3    0    0 -0.11736695353E+03  0.49979919066E+02  0.67987847199E+03  0.69633972173E+03  0.79882897371E+02 0.  0.
          6    2    1    2  501    0  0.13646516443E+03 -0.13017722417E+03  0.18102440512E+04  0.18282174090E+04  0.17270355770E+03 0.  0.
         24    2    5    5    0    0  0.53969677318E+02 -0.14163107254E+03  0.12463481074E+04  0.12581845841E+04  0.81686939193E+02 0.  0.
          5    1    5    5  501    0  0.82495487113E+02  0.11453848369E+02  0.56389594386E+03  0.57003282496E+03  0.47000000000E+01 0. -1.
        -11    1    6    6    0    0  0.61583265511E+02 -0.47757175521E+02  0.54735532028E+03  0.55287529611E+03  0.00000000000E+00 0.  1.
         12    1    6    6    0    0 -0.76135881932E+01 -0.93873897020E+02  0.69899278710E+03  0.70530928797E+03  0.00000000000E+00 0. -1.
         -5    1    3    3    0  503 -0.19098210898E+02  0.80197305106E+02  0.14305199866E+03  0.16517358665E+03  0.47000000000E+01 0.  1.
         11    1    4    4    0    0 -0.44590131089E+01 -0.18076067075E+02  0.77715598936E+02  0.79914587634E+02  0.00000000000E+00 0. -1.
        -12    1    4    4    0    0 -0.11290794042E+03  0.68055986141E+02  0.60216287306E+03  0.61642513410E+03  0.00000000000E+00 0.  1.
</event>
<event>
12    1  0.8562501E-002  0.2223639E+03  0.7818608E-02  0.1132375E+00
         21   -1    0    0  501  502  0.00000000000E+00  0.00000000000E+00  0.16855327794E+03  0.16855327794E+03  0.00000000000E+00 0.  1.
         21   -1    0    0  502  503 -0.00000000000E+00 -0.00000000000E+00 -0.34380148569E+03  0.34380148569E+03  0.00000000000E+00 0. -1.
         -6    2    1    2    0  503 -0.12166113244E+03  0.67143694170E+02  0.12397180692E+02  0.22139687530E+03  0.17191038215E+03 0.  0.
        -24    2    3    3    0    0 -0.62975232095E+02  0.10559530309E+03  0.28446315635E+02  0.14927041788E+03  0.79725885940E+02 0.  0.
          6    2    1    2  501    0  0.12166113244E+03 -0.67143694170E+02 -0.18764538845E+03  0.29095788832E+03  0.17359721817E+03 0.  0.
         24    2    5    5    0    0 -0.22446987006E+00 -0.33878360952E+02 -0.27949539602E+02  0.87272992998E+02  0.75416210560E+02 0.  0.
          5    1    5    5  501    0  0.12188560231E+03 -0.33265333217E+02 -0.15969584884E+03  0.20368489532E+03  0.47000000000E+01 0. -1.
        -11    1    6    6    0    0 -0.36333708093E+01 -0.49519600464E+02 -0.42712767811E+02  0.65496356751E+02  0.00000000000E+00 0.  1.
         12    1    6    6    0    0  0.34089009392E+01  0.15641239512E+02  0.14763228209E+02  0.21776636247E+02  0.00000000000E+00 0. -1.
         -5    1    3    3    0  503 -0.58685900344E+02 -0.38451608922E+02 -0.16049134943E+02  0.72126457422E+02  0.47000000000E+01 0.  1.
         11    1    4    4    0    0 -0.42167490102E+02  0.41094862396E+02 -0.23990158414E+02  0.63579970412E+02  0.00000000000E+00 0. -1.
        -12    1    4    4    0    0 -0.20807741994E+02  0.64500440696E+02  0.52436474050E+02  0.85690447470E+02  0.00000000000E+00 0.  1.
</event>
<event>
12    1  0.8562501E-002  0.2333194E+03  0.7818608E-02  0.1124554E+00
         21   -1    0    0  503  502  0.00000000000E+00  0.00000000000E+00  0.14632488043E+03  0.14632488043E+03  0.00000000000E+00 0. -1.
         21   -1    0    0  501  503 -0.00000000000E+00 -0.00000000000E+00 -0.69862467637E+03  0.69862467637E+03  0.00000000000E+00 0.  1.
          6    2    1    2  501    0 -0.26133194524E+01  0.15727265347E+03 -0.56551934083E+03  0.61125595216E+03  0.17052916829E+03 0.  0.
         24    2    3    3    0    0 -0.27650959471E+02  0.77389706740E+02 -0.16103369574E+03  0.19817134137E+03  0.81155943139E+02 0.  0.
         -6    2    1    2    0  502  0.26133194524E+01 -0.15727265347E+03  0.13219544885E+02  0.23369360464E+03  0.17232651425E+03 0.  0.
        -24    2    5    5    0    0 -0.54714108199E+02 -0.65800920968E+02  0.32138845513E+02  0.12399610356E+03  0.83777881746E+02 0.  0.
          5    1    3    3  501    0  0.25037640019E+02  0.79882946727E+02 -0.40448564508E+03  0.41308461079E+03  0.47000000000E+01 0. -1.
        -11    1    4    4    0    0 -0.47678034583E+01  0.79447474951E+02 -0.15527547665E+03  0.17448526263E+03  0.00000000000E+00 0.  1.
         12    1    4    4    0    0 -0.22883156013E+02 -0.20577682112E+01 -0.57582190971E+01  0.23686078744E+02  0.00000000000E+00 0. -1.
         -5    1    5    5    0  502  0.57327427651E+02 -0.91471732499E+02 -0.18919300628E+02  0.10969750108E+03  0.47000000000E+01 0.  1.
         11    1    6    6    0    0  0.19711306546E+02 -0.28771183632E+02  0.12585361986E-01  0.34875733279E+02  0.00000000000E+00 0. -1.
        -12    1    6    6    0    0 -0.74425414744E+02 -0.37029737336E+02  0.32126260151E+02  0.89120370277E+02  0.00000000000E+00 0.  1.
</event>
<event>
12    1  0.8562501E-002  0.2081223E+03  0.7818608E-02  0.1143594E+00
         21   -1    0    0  503  502  0.00000000000E+00  0.00000000000E+00  0.61341536948E+03  0.61341536948E+03  0.00000000000E+00 0. -1.
         21   -1    0    0  501  503 -0.00000000000E+00 -0.00000000000E+00 -0.50664488619E+03  0.50664488619E+03  0.00000000000E+00 0.  1.
          6    2    1    2  501    0  0.34521591736E+02  0.11163109464E+03 -0.46673178509E+03  0.50996210599E+03  0.16902529026E+03 0.  0.
         24    2    3    3    0    0  0.79522450299E+02  0.91131215045E+02 -0.40896159127E+03  0.43377281784E+03  0.79249958395E+02 0.  0.
         -6    2    1    2    0  502 -0.34521591736E+02 -0.11163109464E+03  0.57350226839E+03  0.61009814968E+03  0.17222560441E+03 0.  0.
        -24    2    5    5    0    0 -0.79169863674E+02 -0.60310146280E+02  0.26918815976E+03  0.29823844623E+03  0.81109336062E+02 0.  0.
          5    1    3    3  501    0 -0.45000858563E+02  0.20499879598E+02 -0.57770193820E+02  0.76189288151E+02  0.47000000000E+01 0. -1.
        -13    1    4    4    0    0  0.37664297671E+02 -0.37607809289E+01 -0.73948618651E+02  0.83073106314E+02  0.00000000000E+00 0.  1.
         14    1    4    4    0    0  0.41858152628E+02  0.94891995974E+02 -0.33501297262E+03  0.35069971153E+03  0.00000000000E+00 0. -1.
         -5    1    5    5    0  502  0.44648271938E+02 -0.51320948363E+02  0.30431410863E+03  0.31185970345E+03  0.47000000000E+01 0.  1.
         11    1    6    6    0    0 -0.92471033077E+02 -0.33445662330E+02  0.21063752451E+03  0.23246004177E+03  0.00000000000E+00 0. -1.
        -12    1    6    6    0    0  0.13301169404E+02 -0.26864483950E+02  0.58550635247E+02  0.65778404459E+02  0.00000000000E+00 0.  1.
</event>
<event>
12    1  0.8562501E-002  0.1778130E+03  0.7818608E-02  0.1170034E+00
         21   -1    0    0  503  502  0.00000000000E+00  0.00000000000E+00  0.20168013580E+03  0.20168013580E+03  0.00000000000E+00 0.  1.
         21   -1    0    0  501  503 -0.00000000000E+00 -0.00000000000E+00 -0.27707575935E+03  0.27707575935E+03  0.00000000000E+00 0.  1.
          6    2    1    2  501    0  0.34182288588E+02  0.25235247586E+02  0.12028870681E+03  0.21435122012E+03  0.17225511896E+03 0.  0.
         24    2    3    3    0    0 -0.45670908983E+02  0.28139566093E+02  0.57096513034E+02  0.11236930221E+03  0.80555454007E+02 0.  0.
         -6    2    1    2    0  502 -0.34182288588E+02 -0.25235247586E+02 -0.19568433036E+03  0.26440467503E+03  0.17266218016E+03 0.  0.
        -24    2    5    5    0    0  0.24689048304E+02  0.19184956185E+02 -0.36455368241E+02  0.88862824786E+02  0.74766276524E+02 0.  0.
          5    1    3    3  501    0  0.79853197571E+02 -0.29043185065E+01  0.63192193774E+02  0.10198191792E+03  0.47000000000E+01 0. -1.
        -11    1    4    4    0    0  0.10271181490E+02 -0.18775002016E+02  0.32409302757E+01  0.21644895448E+02  0.00000000000E+00 0.  1.
         12    1    4    4    0    0 -0.55942090472E+02  0.46914568109E+02  0.53855582758E+02  0.90724406757E+02  0.00000000000E+00 0. -1.
         -5    1    5    5    0  502 -0.58871336892E+02 -0.44420203771E+02 -0.15922896212E+03  0.17554185025E+03  0.47000000000E+01 0.  1.
         11    1    6    6    0    0  0.19560447268E+02 -0.40306508410E+01  0.19594677201E+02  0.27978717235E+02  0.00000000000E+00 0. -1.
        -12    1    6    6    0    0  0.51286010353E+01  0.23215607026E+02 -0.56050045442E+02  0.60884107550E+02  0.00000000000E+00 0.  1.
</event>
<event>
12    1  0.8562501E-002  0.1836628E+03  0.7818608E-02  0.1164531E+00
         21   -1    0    0  501  502  0.00000000000E+00  0.00000000000E+00  0.41203335665E+03  0.41203335665E+03  0.00000000000E+00 0. -1.
         21   -1    0    0  502  503 -0.00000000000E+00 -0.00000000000E+00 -0.13452897193E+03  0.13452897193E+03  0.00000000000E+00 0. -1.
         -6    2    1    2    0  503 -0.50869315663E+02 -0.29671756059E+02 -0.32700099520E+02  0.18655110094E+03  0.17396527346E+03 0.  0.
        -24    2    3    3    0    0 -0.28037613185E+02  0.50566578896E+02  0.46485971066E+01  0.95027922594E+02  0.75270246200E+02 0.  0.
          6    2    1    2  501    0  0.50869315663E+02  0.29671756059E+02  0.31020448423E+03  0.36001122764E+03  0.17295421823E+03 0.  0.
         24    2    5    5    0    0  0.59831534486E+02  0.64570517883E+02  0.13701303156E+03  0.18304904461E+03  0.83577614325E+02 0.  0.
          5    1    5    5  501    0 -0.89622188228E+01 -0.34898761825E+02  0.17319145268E+03  0.17696218303E+03  0.47000000000E+01 0. -1.
        -13    1    6    6    0    0  0.12410701666E+02 -0.18101452411E+02  0.96519449783E+01  0.23975990847E+02  0.00000000000E+00 0.  1.
         14    1    6    6    0    0  0.47420832820E+02  0.82671970295E+02  0.12736108658E+03  0.15907305376E+03  0.00000000000E+00 0. -1.
         -5    1    3    3    0  503 -0.22831702479E+02 -0.80238334954E+02 -0.37348696626E+02  0.91523178343E+02  0.47000000000E+01 0.  1.
         11    1    4    4    0    0 -0.46133993791E+02  0.45292596249E+02 -0.16474901085E+02  0.66717216847E+02  0.00000000000E+00 0. -1.
        -12    1    4    4    0    0  0.18096380606E+02  0.52739826469E+01  0.21123498191E+02  0.28310705746E+02  0.00000000000E+00 0.  1.
</event>
<event>
12    1  0.8562501E-002  0.1920916E+03  0.7818608E-02  0.1156676E+00
         21   -1    0    0  503  502  0.00000000000E+00  0.00000000000E+00  0.18468970643E+03  0.18468970643E+03  0.00000000000E+00 0. -1.
         21   -1    0    0  501  503 -0.00000000000E+00 -0.00000000000E+00 -0.30850658679E+03  0.30850658679E+03  0.00000000000E+00 0. -1.
          6    2    1    2  501    0  0.83129721489E+02  0.25005527365E+01 -0.20852969264E+03  0.28325474710E+03  0.17271889208E+03 0.  0.
         24    2    3    3    0    0 -0.11974867946E+02  0.15023909389E+02 -0.14056520926E+03  0.16559855986E+03  0.85411882424E+02 0.  0.
         -6    2    1    2    0  502 -0.83129721489E+02 -0.25005527365E+01  0.84712812284E+02  0.20994154611E+03  0.17315423431E+03 0.  0.
        -24    2    5    5    0    0 -0.41044154266E+01  0.53517515657E+02  0.53651292891E+02  0.10810868810E+03  0.76993873164E+02 0.  0.
          5    1    3    3  501    0  0.95104589435E+02 -0.12523356653E+02 -0.67964483385E+02  0.11765618724E+03  0.47000000000E+01 0. -1.
        -13    1    4    4    0    0 -0.38390359512E+02  0.35069195955E+02 -0.66230771610E+02  0.84203226283E+02  0.00000000000E+00 0.  1.
         14    1    4    4    0    0  0.26415491566E+02 -0.20045286566E+02 -0.74334437648E+02  0.81395333580E+02  0.00000000000E+00 0. -1.
         -5    1    5    5    0  502 -0.79025306062E+02 -0.56018068393E+02  0.31061519393E+02  0.10183285802E+03  0.47000000000E+01 0.  1.
         11    1    6    6    0    0 -0.23380962305E+02 -0.19714203528E+01 -0.61770314496E+01  0.24263380103E+02  0.00000000000E+00 0. -1.
        -12    1    6    6    0    0  0.19276546878E+02  0.55488936010E+02  0.59828324340E+02  0.83845307993E+02  0.00000000000E+00 0.  1.
</event>
<event>
12    1  0.8562501E-002  0.1824752E+03  0.7818608E-02  0.1166749E+00
         21   -1    0    0  501  502  0.00000000000E+00  0.00000000000E+00  0.19666163790E+03  0.19666163790E+03  0.00000000000E+00 0. -1.
         21   -1    0    0  502  503 -0.00000000000E+00 -0.00000000000E+00 -0.19702525517E+03  0.19702525517E+03  0.00000000000E+00 0. -1.
         -6    2    1    2    0  503  0.52425363589E+02 -0.35053798716E+02 -0.80420215038E+02  0.19442256049E+03  0.16539508302E+03 0.  0.
        -24    2    3    3    0    0  0.71648554525E+02 -0.15626309220E+02 -0.10917619749E+03  0.15447315568E+03  0.81023557194E+02 0.  0.
          6    2    1    2  501    0 -0.52425363589E+02  0.35053798716E+02  0.80056597767E+02  0.19926433258E+03  0.17123091964E+03 0.  0.
         24    2    5    5    0    0 -0.21815798357E+02  0.62403192739E+01 -0.26004520226E+02  0.85079338687E+02  0.77764954553E+02 0.  0.
          5    1    5    5  501    0 -0.30609565233E+02  0.28813479442E+02  0.10606111799E+03  0.11418499390E+03  0.47000000000E+01 0. -1.
        -13    1    6    6    0    0  0.10446978104E+02  0.24402499834E+02  0.14464309422E+02  0.30229746885E+02  0.00000000000E+00 0.  1.
         14    1    6    6    0    0 -0.32262776461E+02 -0.18162180560E+02 -0.40468829649E+02  0.54849591802E+02  0.00000000000E+00 0. -1.
         -5    1    3    3    0  503 -0.19223190936E+02 -0.19427489496E+02  0.28755982454E+02  0.39949404811E+02  0.47000000000E+01 0.  1.
         11    1    4    4    0    0  0.41185066822E+02  0.23785664595E+02 -0.18531350914E+02  0.51042908774E+02  0.00000000000E+00 0. -1.
        -12    1    4    4    0    0  0.30463487703E+02 -0.39411973816E+02 -0.90644846578E+02  0.10343024690E+03  0.00000000000E+00 0.  1.
</event>
<event>
12    1  0.8562501E-002  0.1755407E+03  0.7818608E-02  0.1172270E+00
         21   -1    0    0  503  502  0.00000000000E+00  0.00000000000E+00  0.19019814003E+03  0.19019814003E+03  0.00000000000E+00 0.  1.
         21   -1    0    0  501  503 -0.00000000000E+00 -0.00000000000E+00 -0.18513085933E+03  0.18513085933E+03  0.00000000000E+00 0.  1.
          6    2    1    2  501    0 -0.11421062523E+01  0.34925152945E+02 -0.64208455493E+02  0.18661318111E+03  0.17169939689E+03 0.  0.
         24    2    3    3    0    0 -0.48422508940E+02  0.64433885481E+02 -0.55853317131E+02  0.13006143391E+03  0.85439561018E+02 0.  0.
         -6    2    1    2    0  502  0.11421062523E+01 -0.34925152945E+02  0.69275736192E+02  0.18871581825E+03  0.17202750280E+03 0.  0.
        -24    2    5    5    0    0 -0.56801826315E+02 -0.26930586284E+02  0.80543324956E+02  0.12896248383E+03  0.78691747287E+02 0.  0.
          5    1    3    3  501    0  0.47280402688E+02 -0.29508732536E+02 -0.83551383622E+01  0.56551747199E+02  0.47000000000E+01 0. -1.
        -11    1    4    4    0    0 -0.48488220341E+02  0.62173952650E+02 -0.48362411537E+01  0.78994285416E+02  0.00000000000E+00 0.  1.
         12    1    4    4    0    0  0.65711400874E-01  0.22599328310E+01 -0.51017075977E+02  0.51067148497E+02  0.00000000000E+00 0. -1.
         -5    1    5    5    0  502  0.57943932567E+02 -0.79945666614E+01 -0.11267588764E+02  0.59753334418E+02  0.47000000000E+01 0.  1.
         13    1    6    6    0    0 -0.15912284266E+02  0.23120877337E+02  0.33212468069E+01  0.28263164008E+02  0.00000000000E+00 0. -1.
        -14    1    6    6    0    0 -0.40889542049E+02 -0.50051463621E+02  0.77222078149E+02  0.10069931982E+03  0.00000000000E+00 0.  1.
</event>
<event>
12    1  0.8562501E-002  0.2045298E+03  0.7818608E-02  0.1150742E+00
         21   -1    0    0  501  502  0.00000000000E+00  0.00000000000E+00  0.89445981854E+02  0.89445981854E+02  0.00000000000E+00 0.  1.
         21   -1    0    0  502  503 -0.00000000000E+00 -0.00000000000E+00 -0.52529729258E+03  0.52529729258E+03  0.00000000000E+00 0.  1.
         -6    2    1    2    0  503 -0.42999165982E+02 -0.52290589928E+02 -0.36590989606E+03  0.41919265527E+03  0.19300050809E+03 0.  0.
        -24    2    3    3    0    0  0.50114734675E+02 -0.59116151762E+02 -0.18785373737E+03  0.21808852195E+03  0.79166727423E+02 0.  0.
          6    2    1    2  501    0  0.42999165982E+02  0.52290589928E+02 -0.69941414667E+02  0.19555061917E+03  0.16960250323E+03 0.  0.
         24    2    5    5    0    0  0.45919116500E+02 -0.33339215703E+02 -0.41049138119E+02  0.10500867658E+03  0.78241433101E+02 0.  0.
          5    1    5    5  501    0 -0.29199505179E+01  0.85629805631E+02 -0.28892276548E+02  0.90541942588E+02  0.47000000000E+01 0. -1.
        -13    1    6    6    0    0  0.22644414895E+01  0.17022474868E+02  0.11043956093E+02  0.20417181786E+02  0.00000000000E+00 0.  1.
         14    1    6    6    0    0  0.43654675010E+02 -0.50361690571E+02 -0.52093094212E+02  0.84591494797E+02  0.00000000000E+00 0. -1.
         -5    1    3    3    0  503 -0.93113900656E+02  0.68255618335E+01 -0.17805615869E+03  0.20110413332E+03  0.47000000000E+01 0.  1.
         13    1    4    4    0    0 -0.66660201510E+01 -0.52885789080E+02 -0.81917976019E+02  0.97733808410E+02  0.00000000000E+00 0. -1.
        -14    1    4    4    0    0  0.56780754826E+02 -0.62303626813E+01 -0.10593576135E+03  0.12035471354E+03  0.00000000000E+00 0.  1.
</event>
<event>
12    1  0.8562501E-002  0.2204102E+03  0.7818608E-02  0.1133616E+00
         21   -1    0    0  503  502  0.00000000000E+00  0.00000000000E+00  0.49589238969E+02  0.49589238969E+02  0.00000000000E+00 0.  1.
         21   -1    0    0  501  503 -0.00000000000E+00 -0.00000000000E+00 -0.10628187105E+04  0.10628187105E+04  0.00000000000E+00 0. -1.
          6    2    1    2  501    0 -0.10522737072E+03 -0.88841306041E+02 -0.66325985704E+03  0.69892366328E+03  0.17209030168E+03 0.  0.
         24    2    3    3    0    0 -0.11081633820E+03 -0.12691787137E+02 -0.34383518459E+03  0.37046636445E+03  0.81125524681E+02 0.  0.
         -6    2    1    2    0  502  0.10522737072E+03  0.88841306041E+02 -0.34996961448E+03  0.41348428617E+03  0.17182824752E+03 0.  0.
        -24    2    5    5    0    0 -0.29815132258E+01  0.68738648774E+02 -0.12737252203E+03  0.16511996715E+03  0.79416326587E+02 0.  0.
          5    1    3    3  501    0  0.55889674842E+01 -0.76149518903E+02 -0.31942467245E+03  0.32845729883E+03  0.47000000000E+01 0. -1.
        -11    1    4    4    0    0 -0.99055609887E+01  0.14850454477E+02 -0.14217785352E+03  0.14329409676E+03  0.00000000000E+00 0.  1.
         12    1    4    4    0    0 -0.10091077721E+03 -0.27542241614E+02 -0.20165733108E+03  0.22717226769E+03  0.00000000000E+00 0. -1.
         -5    1    5    5    0  502  0.10820888394E+03  0.20102657266E+02 -0.22259709245E+03  0.24836431902E+03  0.47000000000E+01 0.  1.
         11    1    6    6    0    0  0.89030263052E+01  0.29546340230E+02  0.48607546030E+00  0.30862377869E+02  0.00000000000E+00 0. -1.
        -12    1    6    6    0    0 -0.11884539531E+02  0.39192308545E+02 -0.12785859749E+03  0.13425758928E+03  0.00000000000E+00 0.  1.
</event>
<event>
12    1  0.8562501E-002  0.3593645E+03  0.7818608E-02  0.1058886E+00
         21   -1    0    0  501  502  0.00000000000E+00  0.00000000000E+00  0.10323587598E+04  0.10323587598E+04  0.00000000000E+00 0.  1.
         21   -1    0    0  502  503 -0.00000000000E+00 -0.00000000000E+00 -0.13575329688E+03  0.13575329688E+03  0.00000000000E+00 0. -1.
         -6    2    1    2    0  503 -0.26556248647E+03 -0.16995622455E+03  0.28302022815E+03  0.45703562564E+03  0.17138424979E+03 0.  0.
        -24    2    3    3    0    0 -0.92461376189E+02 -0.12931747625E+03  0.13812081175E+03  0.22761585073E+03  0.86368403456E+02 0.  0.
          6    2    1    2  501    0  0.26556248647E+03  0.16995622455E+03  0.61358523478E+03  0.71107643105E+03  0.17243635918E+03 0.  0.
         24    2    5    5    0    0  0.56455940302E+02  0.39181707286E+02  0.25213801576E+03  0.27347649486E+03  0.80581231483E+02 0.  0.
          5    1    5    5  501    0  0.20910654617E+03  0.13077451727E+03  0.36144721903E+03  0.43759993620E+03  0.47000000000E+01 0. -1.
        -13    1    6    6    0    0  0.59874519944E+02  0.56932836310E+02  0.16555408397E+03  0.18502556771E+03  0.00000000000E+00 0.  1.
         14    1    6    6    0    0 -0.34185796424E+01 -0.17751129024E+02  0.86583931788E+02  0.88450927142E+02  0.00000000000E+00 0. -1.
         -5    1    3    3    0  503 -0.17310111028E+03 -0.40638748303E+02  0.14489941640E+03  0.22941977490E+03  0.47000000000E+01 0.  1.
         13    1    4    4    0    0 -0.67659118551E+02 -0.26815565541E+02  0.37576549718E+02  0.81907435359E+02  0.00000000000E+00 0. -1.
        -14    1    4    4    0    0 -0.24802257638E+02 -0.10250191071E+03  0.10054426203E+03  0.14570841537E+03  0.00000000000E+00 0.  1.
</event>
<event>
12    1  0.8562501E-002  0.3241275E+03  0.7818608E-02  0.1073767E+00
         21   -1    0    0  501  502  0.00000000000E+00  0.00000000000E+00  0.35689818697E+03  0.35689818697E+03  0.00000000000E+00 0.  1.
         21   -1    0    0  502  503 -0.00000000000E+00 -0.00000000000E+00 -0.29459974834E+03  0.29459974834E+03  0.00000000000E+00 0. -1.
         -6    2    1    2    0  503  0.27199603013E+03  0.34703300484E+02  0.21705137069E+02  0.32483844892E+03  0.17280840676E+03 0.  0.
        -24    2    3    3    0    0  0.20361856733E+03 -0.10098240708E+02  0.70592388502E+02  0.22947226589E+03  0.78177618735E+02 0.  0.
          6    2    1    2  501    0 -0.27199603013E+03 -0.34703300484E+02  0.40593301568E+02  0.32665948639E+03  0.17283646735E+03 0.  0.
         24    2    5    5    0    0 -0.18530635948E+03  0.15247148647E+01  0.90030554134E+02  0.22038766494E+03  0.78258868890E+02 0.  0.
          5    1    5    5  501    0 -0.86689670654E+02 -0.36228015349E+02 -0.49437252566E+02  0.10627182146E+03  0.47000000000E+01 0. -1.
        -11    1    6    6    0    0 -0.12976843953E+03 -0.34902981648E+02  0.66404834010E+02  0.14989218794E+03  0.00000000000E+00 0.  1.
         12    1    6    6    0    0 -0.55537919953E+02  0.36427696513E+02  0.23625720124E+02  0.70495476999E+02  0.00000000000E+00 0. -1.
         -5    1    3    3    0  503  0.68377462801E+02  0.44801541192E+02 -0.48887251433E+02  0.95366183026E+02  0.47000000000E+01 0.  1.
         11    1    4    4    0    0  0.19459126049E+02 -0.24250456458E+02  0.23178522492E+02  0.38781260035E+02  0.00000000000E+00 0. -1.
        -12    1    4    4    0    0  0.18415944129E+03  0.14152215750E+02  0.47413866010E+02  0.19069100586E+03  0.00000000000E+00 0.  1.
</event>
<event>
12    1  0.8562501E-002  0.1816193E+03  0.7818608E-02  0.1166986E+00
         21   -1    0    0  501  502  0.00000000000E+00  0.00000000000E+00  0.10527977819E+04  0.10527977819E+04  0.00000000000E+00 0.  1.
         21   -1    0    0  502  503 -0.00000000000E+00 -0.00000000000E+00 -0.39127823182E+02  0.39127823182E+02  0.00000000000E+00 0.  1.
         -6    2    1    2    0  503  0.26966853738E+02  0.51415024459E+02  0.25162897442E+03  0.30854061248E+03  0.16884742475E+03 0.  0.
        -24    2    3    3    0    0 -0.25958838154E+02  0.28400471090E+02  0.23033796784E+03  0.24684624086E+03  0.79981492620E+02 0.  0.
          6    2    1    2  501    0 -0.26966853738E+02 -0.51415024459E+02  0.76204098434E+03  0.78338499263E+03  0.17208971187E+03 0.  0.
         24    2    5    5    0    0 -0.33502951799E+02 -0.72630862557E+02  0.74839895659E+03  0.75690807277E+03  0.80069609926E+02 0.  0.
          5    1    5    5  501    0  0.65360980606E+01  0.21215838099E+02  0.13642027750E+02  0.26476919859E+02  0.47000000000E+01 0. -1.
        -13    1    6    6    0    0  0.56045878144E+01 -0.73815109029E+02  0.48230545748E+03  0.48795351831E+03  0.00000000000E+00 0.  1.
         14    1    6    6    0    0 -0.39107539613E+02  0.11842464716E+01  0.26609349911E+03  0.26895455446E+03  0.00000000000E+00 0. -1.
         -5    1    3    3    0  503  0.52925691892E+02  0.23014553369E+02  0.21291006576E+02  0.61694371624E+02  0.47000000000E+01 0.  1.
         13    1    4    4    0    0 -0.30942213480E+02 -0.22040243427E+02  0.10387866988E+03  0.11060728259E+03  0.00000000000E+00 0. -1.
        -14    1    4    4    0    0  0.49833753254E+01  0.50440714517E+02  0.12645929796E+03  0.13623895827E+03  0.00000000000E+00 0.  1.
</event>
<event>
12    1  0.8562501E-002  0.2245564E+03  0.7818608E-02  0.1130541E+00
         21   -1    0    0  501  502  0.00000000000E+00  0.00000000000E+00  0.13222542375E+04  0.13222542375E+04  0.00000000000E+00 0. -1.
         21   -1    0    0  502  503 -0.00000000000E+00 -0.00000000000E+00 -0.57888760202E+02  0.57888760202E+02  0.00000000000E+00 0. -1.
         -6    2    1    2    0  503  0.51191587489E+02 -0.13519355738E+03  0.22903885921E+03  0.32075597364E+03  0.17183631458E+03 0.  0.
        -24    2    3    3    0    0 -0.18006976342E+02 -0.10656383091E+03  0.87854228315E+02  0.16087072580E+03  0.80504184569E+02 0.  0.
          6    2    1    2  501    0 -0.51191587489E+02  0.13519355738E+03  0.10353266181E+04  0.10593870241E+04  0.17176083386E+03 0.  0.
         24    2    5    5    0    0 -0.38628913340E+02  0.14420876896E+03  0.10273778664E+04  0.10413768193E+04  0.81682541090E+02 0.  0.
          5    1    5    5  501    0 -0.12562674148E+02 -0.90152115782E+01  0.79487517431E+01  0.18010204769E+02  0.47000000000E+01 0. -1.
        -13    1    6    6    0    0  0.14213151589E+02 -0.21005617866E+01  0.72350955255E+02  0.73763722548E+02  0.00000000000E+00 0.  1.
         14    1    6    6    0    0 -0.52842064929E+02  0.14630933075E+03  0.95502691113E+03  0.96761309678E+03  0.00000000000E+00 0. -1.
         -5    1    3    3    0  503  0.69198563830E+02 -0.28629726479E+02  0.14118463090E+03  0.15988524784E+03  0.47000000000E+01 0.  1.
         11    1    4    4    0    0 -0.13045250597E+02  0.41190936547E+01 -0.66829715767E+01  0.15225229219E+02  0.00000000000E+00 0. -1.
        -12    1    4    4    0    0 -0.49617257443E+01 -0.11068292456E+03  0.94537199891E+02  0.14564549658E+03  0.00000000000E+00 0.  1.
</event>
<event>
12    1  0.8562501E-002  0.1772022E+03  0.7818608E-02  0.1170967E+00
         21   -1    0    0  501  502  0.00000000000E+00  0.00000000000E+00  0.17283992202E+02  0.17283992202E+02  0.00000000000E+00 0. -1.
         21   -1    0    0  502  503 -0.00000000000E+00 -0.00000000000E+00 -0.22239443316E+04  0.22239443316E+04  0.00000000000E+00 0. -1.
         -6    2    1    2    0  503 -0.38727107041E+02  0.19353762614E+02 -0.15974718345E+04  0.16072700039E+04  0.17183202982E+03 0.  0.
        -24    2    3    3    0    0 -0.90158701523E+02  0.32142024719E+02 -0.10766255703E+04  0.10837132548E+04  0.78422566097E+02 0.  0.
          6    2    1    2  501    0  0.38727107041E+02 -0.19353762614E+02 -0.60918850493E+03  0.63395831993E+03  0.17005340316E+03 0.  0.
         24    2    5    5    0    0 -0.24658959870E+02  0.30594487506E+02 -0.39680534248E+03  0.40671105623E+03  0.80095670737E+02 0.  0.
          5    1    5    5  501    0  0.63386066910E+02 -0.49948250120E+02 -0.21238316245E+03  0.22724726370E+03  0.47000000000E+01 0. -1.
        -13    1    6    6    0    0 -0.46298145443E+02  0.10689389493E+02 -0.13225200222E+03  0.14052890596E+03  0.00000000000E+00 0.  1.
         14    1    6    6    0    0  0.21639185573E+02  0.19905098013E+02 -0.26455334026E+03  0.26618215027E+03  0.00000000000E+00 0. -1.
         -5    1    3    3    0  503  0.51431594482E+02 -0.12788262105E+02 -0.52084626419E+03  0.52355674906E+03  0.47000000000E+01 0.  1.
         13    1    4    4    0    0 -0.61120445900E+02 -0.19567233477E+02 -0.59452582486E+03  0.59797954979E+03  0.00000000000E+00 0. -1.
        -14    1    4    4    0    0 -0.29038255623E+02  0.51709258196E+02 -0.48209974541E+03  0.48573370502E+03  0.00000000000E+00 0.  1.
</event>
<event>
12    1  0.8562501E-002  0.1785067E+03  0.7818608E-02  0.1170004E+00
         21   -1    0    0  503  502  0.00000000000E+00  0.00000000000E+00  0.49155138143E+02  0.49155138143E+02  0.00000000000E+00 0.  1.
         21   -1    0    0  501  503 -0.00000000000E+00 -0.00000000000E+00 -0.85166462008E+03  0.85166462008E+03  0.00000000000E+00 0.  1.
          6    2    1    2  501    0  0.85728324377E+01  0.33186007866E+02 -0.62465303319E+03  0.64883254155E+03  0.17209721244E+03 0.  0.
         24    2    3    3    0    0  0.49879647563E+01 -0.23784708674E+02 -0.54024503443E+03  0.54682610022E+03  0.81015396640E+02 0.  0.
         -6    2    1    2    0  502 -0.85728324377E+01 -0.33186007866E+02 -0.17785644875E+03  0.25198721667E+03  0.17518514900E+03 0.  0.
        -24    2    5    5    0    0  0.43438020673E+01  0.38976539805E+02 -0.39903641243E+02  0.95694734984E+02  0.77634672973E+02 0.  0.
          5    1    3    3  501    0  0.35848676814E+01  0.56970716540E+02 -0.84407998758E+02  0.10200644133E+03  0.47000000000E+01 0. -1.
        -13    1    4    4    0    0  0.15334549307E+02  0.65559561393E+01 -0.46156746125E+03  0.46186865043E+03  0.00000000000E+00 0.  1.
         14    1    4    4    0    0 -0.10346584551E+02 -0.30340664813E+02 -0.78677573185E+02  0.84957449794E+02  0.00000000000E+00 0. -1.
         -5    1    5    5    0  502 -0.12916634505E+02 -0.72162547671E+02 -0.13795280751E+03  0.15629248169E+03  0.47000000000E+01 0.  1.
         11    1    6    6    0    0  0.40965306788E+02  0.20077209027E+02 -0.18187921303E+02  0.49112637517E+02  0.00000000000E+00 0. -1.
        -12    1    6    6    0    0 -0.36621504721E+02  0.18899330778E+02 -0.21715719940E+02  0.46582097467E+02  0.00000000000E+00 0.  1.
</event>
<event>
12    1  0.8562501E-002  0.1772855E+03  0.7818608E-02  0.1170911E+00
         21   -1    0    0  501  502  0.00000000000E+00  0.00000000000E+00  0.19163053463E+03  0.19163053463E+03  0.00000000000E+00 0.  1.
         21   -1    0    0  502  503 -0.00000000000E+00 -0.00000000000E+00 -0.19471949461E+03  0.19471949461E+03  0.00000000000E+00 0. -1.
         -6    2    1    2    0  503  0.33211616613E+02  0.16831807442E+02 -0.80329472355E+02  0.19296897250E+03  0.17145809692E+03 0.  0.
        -24    2    3    3    0    0 -0.32609349044E+01 -0.47990057287E+02 -0.73537893321E+02  0.11813357508E+03  0.78955940323E+02 0.  0.
          6    2    1    2  501    0 -0.33211616613E+02 -0.16831807442E+02  0.77240512373E+02  0.19338105675E+03  0.17333151801E+03 0.  0.
         24    2    5    5    0    0 -0.15181636729E+02  0.38224385786E+02  0.97015317054E+02  0.13198563764E+03  0.79477361790E+02 0.  0.
          5    1    5    5  501    0 -0.18029979884E+02 -0.55056193228E+02 -0.19774804682E+02  0.61395419109E+02  0.47000000000E+01 0. -1.
        -11    1    6    6    0    0 -0.32627854674E+02 -0.12386859331E+02  0.48407878274E+02  0.59676912317E+02  0.00000000000E+00 0.  1.
         12    1    6    6    0    0  0.17446217945E+02  0.50611245116E+02  0.48607438780E+02  0.72308725321E+02  0.00000000000E+00 0. -1.
         -5    1    3    3    0  503  0.36472551518E+02  0.64821864729E+02 -0.67915790345E+01  0.74835397419E+02  0.47000000000E+01 0.  1.
         11    1    4    4    0    0  0.30871284351E+02 -0.14120772106E+02 -0.58703776195E+02  0.67812725516E+02  0.00000000000E+00 0. -1.
        -12    1    4    4    0    0 -0.34132219256E+02 -0.33869285180E+02 -0.14834117126E+02  0.50320849564E+02  0.00000000000E+00 0.  1.
</event>
<event>
12    1  0.8562501E-002  0.1906281E+03  0.7818608E-02  0.1158178E+00
         21   -1    0    0  501  502  0.00000000000E+00  0.00000000000E+00  0.89021973534E+02  0.89021973534E+02  0.00000000000E+00 0. -1.
         21   -1    0    0  502  503 -0.00000000000E+00 -0.00000000000E+00 -0.50139616011E+03  0.50139616011E+03  0.00000000000E+00 0. -1.
         -6    2    1    2    0  503 -0.78362244790E+02  0.61314874054E+01 -0.33472384931E+03  0.38458165058E+03  0.17229264095E+03 0.  0.
        -24    2    3    3    0    0 -0.75312262481E+02  0.65820111285E+02 -0.25620664565E+03  0.28579361749E+03  0.77665453022E+02 0.  0.
          6    2    1    2  501    0  0.78362244790E+02 -0.61314874054E+01 -0.77650337267E+02  0.20583648306E+03  0.17366878342E+03 0.  0.
         24    2    5    5    0    0  0.11554146170E+03 -0.53551783131E+01 -0.29458753886E+02  0.14478391935E+03  0.81951557734E+02 0.  0.
          5    1    5    5  501    0 -0.37179216913E+02 -0.77630909230E+00 -0.48191583381E+02  0.61052563704E+02  0.47000000000E+01 0. -1.
        -11    1    6    6    0    0  0.44322646970E+02 -0.11747842990E+02  0.27410571996E+02  0.53421421794E+02  0.00000000000E+00 0.  1.
         12    1    6    6    0    0  0.71218814734E+02  0.63926646767E+01 -0.56869325882E+02  0.91362497558E+02  0.00000000000E+00 0. -1.
         -5    1    3    3    0  503 -0.30499823092E+01 -0.59688623879E+02 -0.78517203658E+02  0.98788033096E+02  0.47000000000E+01 0.  1.
         13    1    4    4    0    0 -0.30633710351E+02 -0.18854612066E+01 -0.21523438517E+02  0.37486498629E+02  0.00000000000E+00 0. -1.
        -14    1    4    4    0    0 -0.44678552130E+02  0.67705572491E+02 -0.23468320713E+03  0.24830711886E+03  0.00000000000E+00 0.  1.
</event>
<event>
12    1  0.8562501E-002  0.1803722E+03  0.7818608E-02  0.1167756E+00
         21   -1    0    0  501  502  0.00000000000E+00  0.00000000000E+00  0.33988153004E+03  0.33988153004E+03  0.00000000000E+00 0.  1.
         21   -1    0    0  502  503 -0.00000000000E+00 -0.00000000000E+00 -0.43324119222E+03  0.43324119222E+03  0.00000000000E+00 0.  1.
         -6    2    1    2    0  503 -0.46519495892E+02 -0.14081697392E+02 -0.38825719876E+03  0.42810955512E+03  0.17370026221E+03 0.  0.
        -24    2    3    3    0    0 -0.47358782575E+02 -0.58505531975E+02 -0.15270132567E+03  0.18835376096E+03  0.80583452700E+02 0.  0.
          6    2    1    2  501    0  0.46519495892E+02  0.14081697392E+02  0.29489753658E+03  0.34501316714E+03  0.17235768251E+03 0.  0.
         24    2    5    5    0    0  0.92000203195E+02  0.19030907848E+02  0.26221975554E+03  0.28859582234E+03  0.75512486613E+02 0.  0.
          5    1    5    5  501    0 -0.45480707303E+02 -0.49492104561E+01  0.32677781039E+02  0.56417344802E+02  0.47000000000E+01 0. -1.
        -11    1    6    6    0    0  0.26652277217E+02 -0.11902945863E+02  0.16432220032E+03  0.16689460602E+03  0.00000000000E+00 0.  1.
         12    1    6    6    0    0  0.65347925978E+02  0.30933853711E+02  0.97897555221E+02  0.12170121632E+03  0.00000000000E+00 0. -1.
         -5    1    3    3    0  503  0.83928668294E+00  0.44423834583E+02 -0.23555587309E+03  0.23975579415E+03  0.47000000000E+01 0.  1.
         11    1    4    4    0    0 -0.59505208869E+02 -0.15266436637E+02 -0.11200292385E+03  0.12774423244E+03  0.00000000000E+00 0. -1.
        -12    1    4    4    0    0  0.12146426294E+02 -0.43239095338E+02 -0.40698401818E+02  0.60609528524E+02  0.00000000000E+00 0.  1.
</event>
<event>
12    1  0.8562501E-002  0.1798021E+03  0.7818608E-02  0.1170722E+00
         21   -1    0    0  503  502  0.00000000000E+00  0.00000000000E+00  0.45133467065E+02  0.45133467065E+02  0.00000000000E+00 0.  1.
         21   -1    0    0  501  503 -0.00000000000E+00 -0.00000000000E+00 -0.19981123241E+04  0.19981123241E+04  0.00000000000E+00 0.  1.
          6    2    1    2  501    0  0.48835299949E+02  0.14055157658E+02 -0.18184156721E+04  0.18272833220E+04  0.17247129744E+03 0.  0.
         24    2    3    3    0    0  0.73612381579E+02 -0.12619617473E+02 -0.77255917460E+03  0.78078279610E+03  0.84829587764E+02 0.  0.
         -6    2    1    2    0  502 -0.48835299949E+02 -0.14055157658E+02 -0.13456318499E+03  0.21596246919E+03  0.16109035777E+03 0.  0.
        -24    2    5    5    0    0 -0.82149926831E+02  0.24518187553E+01 -0.13736998113E+03  0.17838171961E+03  0.78707714245E+02 0.  0.
          5    1    3    3  501    0 -0.24777081630E+02  0.26674775131E+02 -0.10458564974E+04  0.10465005259E+04  0.47000000000E+01 0. -1.
        -11    1    4    4    0    0  0.15266426134E+02 -0.19072703053E+01 -0.55693327036E+03  0.55714573415E+03  0.00000000000E+00 0.  1.
         12    1    4    4    0    0  0.58345955445E+02 -0.10712347168E+02 -0.21562590424E+03  0.22363706195E+03  0.00000000000E+00 0. -1.
         -5    1    5    5    0  502  0.33314626882E+02 -0.16506976413E+02  0.28067961423E+01  0.37580749582E+02  0.47000000000E+01 0.  1.
         13    1    6    6    0    0  0.83095650838E+01  0.70095535419E+01 -0.54642263171E+02  0.55713190872E+02  0.00000000000E+00 0. -1.
        -14    1    6    6    0    0 -0.90459491915E+02 -0.45577347867E+01 -0.82727717961E+02  0.12266852874E+03  0.00000000000E+00 0.  1.
</event>
<event>
12    1  0.8562501E-002  0.3550479E+03  0.7818608E-02  0.1060656E+00
         21   -1    0    0  503  502  0.00000000000E+00  0.00000000000E+00  0.19976266692E+03  0.19976266692E+03  0.00000000000E+00 0.  1.
         21   -1    0    0  501  503 -0.00000000000E+00 -0.00000000000E+00 -0.79433005638E+03  0.79433005638E+03  0.00000000000E+00 0. -1.
          6    2    1    2  501    0 -0.28695819170E+03 -0.11921343595E+03 -0.52346826265E+03  0.63199594423E+03  0.16983228325E+03 0.  0.
         24    2    3    3    0    0 -0.11220351329E+03 -0.92328188921E+01 -0.14539570299E+03  0.20118753656E+03  0.81618876988E+02 0.  0.
         -6    2    1    2    0  502  0.28695819170E+03  0.11921343595E+03 -0.71099126813E+02  0.36209677907E+03  0.17176188309E+03 0.  0.
        -24    2    5    5    0    0  0.29781975937E+03  0.89439666925E+02 -0.74655914054E+02  0.32986028252E+03  0.80859367969E+02 0.  0.
          5    1    3    3  501    0 -0.17475467841E+03 -0.10998061706E+03 -0.37807255966E+03  0.43080840767E+03  0.47000000000E+01 0. -1.
        -13    1    4    4    0    0 -0.10979836837E+03 -0.31735249396E+02 -0.10668630601E+03  0.15634825116E+03  0.00000000000E+00 0.  1.
         14    1    4    4    0    0 -0.24051449179E+01  0.22502430504E+02 -0.38709396982E+02  0.44839285402E+02  0.00000000000E+00 0. -1.
         -5    1    5    5    0  502 -0.10861567672E+02  0.29773769027E+02  0.35567872412E+01  0.32236496551E+02  0.47000000000E+01 0.  1.
         13    1    6    6    0    0  0.55599847387E+02 -0.10440312857E+02 -0.30143485803E+02  0.64101270645E+02  0.00000000000E+00 0. -1.
        -14    1    6    6    0    0  0.24221991198E+03  0.99879979782E+02 -0.44512428251E+02  0.26575901187E+03  0.00000000000E+00 0.  1.
</event>
<event>
12    1  0.8562501E-002  0.1769815E+03  0.7818608E-02  0.1171598E+00
         21   -1    0    0  501  502  0.00000000000E+00  0.00000000000E+00  0.11842310962E+03  0.11842310962E+03  0.00000000000E+00 0. -1.
         21   -1    0    0  502  503 -0.00000000000E+00 -0.00000000000E+00 -0.25954285211E+03  0.25954285211E+03  0.00000000000E+00 0. -1.
         -6    2    1    2    0  503  0.42039206292E+01  0.33438204847E+02 -0.72561018182E+02  0.18816933790E+03  0.17031386284E+03 0.  0.
        -24    2    3    3    0    0 -0.46395034279E+02 -0.64943043167E+01 -0.74003757046E+02  0.12352391253E+03  0.87102960430E+02 0.  0.
          6    2    1    2  501    0 -0.42039206292E+01 -0.33438204847E+02 -0.68558724306E+02  0.18979662383E+03  0.17374312432E+03 0.  0.
         24    2    5    5    0    0  0.22474843098E+02 -0.26368649251E+02 -0.10771128695E+03  0.14166401314E+03  0.85244044058E+02 0.  0.
          5    1    5    5  501    0 -0.26678763727E+02 -0.70695555966E+01  0.39152562643E+02  0.48132610690E+02  0.47000000000E+01 0. -1.
        -13    1    6    6    0    0 -0.21140923961E+02 -0.11337654493E+01 -0.82778928925E+02  0.85443403279E+02  0.00000000000E+00 0.  1.
         14    1    6    6    0    0  0.43615767058E+02 -0.25234883801E+02 -0.24932358024E+02  0.56220609861E+02  0.00000000000E+00 0. -1.
         -5    1    3    3    0  503  0.50598954908E+02  0.39932509164E+02  0.14427388636E+01  0.64645425371E+02  0.47000000000E+01 0.  1.
         13    1    4    4    0    0  0.19593812616E+02  0.19548066726E+02 -0.25058189132E+02  0.37335736877E+02  0.00000000000E+00 0. -1.
        -14    1    4    4    0    0 -0.65988846895E+02 -0.26042371043E+02 -0.48945567914E+02  0.86188175653E+02  0.00000000000E+00 0.  1.
</event>
<event>
12    1  0.8562501E-002  0.1801966E+03  0.7818608E-02  0.1167717E+00
         21   -1    0    0  503  502  0.00000000000E+00  0.00000000000E+00  0.13592697136E+04  0.13592697136E+04  0.00000000000E+00 0.  1.
         21   -1    0    0  501  503 -0.00000000000E+00 -0.00000000000E+00 -0.23864704733E+02  0.23864704733E+02  0.00000000000E+00 0.  1.
          6    2    1    2  501    0 -0.26438343040E+01 -0.52486825776E+02  0.64100464709E+03  0.66573446988E+03  0.17191151811E+03 0.  0.
         24    2    3    3    0    0 -0.42400774002E+02 -0.66777011940E+02  0.58415565103E+03  0.59475051375E+03  0.78951592876E+02 0.  0.
         -6    2    1    2    0  502  0.26438343040E+01  0.52486825776E+02  0.69440036174E+03  0.71739994841E+03  0.17236289293E+03 0.  0.
        -24    2    5    5    0    0 -0.37189283476E+02  0.74387111474E+02  0.61478499325E+03  0.62560127366E+03  0.80621836540E+02 0.  0.
          5    1    3    3  501    0  0.39756939698E+02  0.14290186164E+02  0.56848996054E+02  0.70983956125E+02  0.47000000000E+01 0. -1.
        -11    1    4    4    0    0 -0.33174558991E+02 -0.53013549052E+02  0.18564468078E+03  0.19589521497E+03  0.00000000000E+00 0.  1.
         12    1    4    4    0    0 -0.92262150112E+01 -0.13763462888E+02  0.39851097025E+03  0.39885529878E+03  0.00000000000E+00 0. -1.
         -5    1    5    5    0  502  0.39833117780E+02 -0.21900285698E+02  0.79615368492E+02  0.91798674750E+02  0.47000000000E+01 0.  1.
         13    1    6    6    0    0 -0.31827548080E+02 -0.67288355576E+01  0.12766229414E+03  0.13174191204E+03  0.00000000000E+00 0. -1.
        -14    1    6    6    0    0 -0.53617353959E+01  0.81115947031E+02  0.48712269911E+03  0.49385936162E+03  0.00000000000E+00 0.  1.
</event>
<event>
12    1  0.8562501E-002  0.2085477E+03  0.7818608E-02  0.1143694E+00
         21   -1    0    0  503  502  0.00000000000E+00  0.00000000000E+00  0.71102045103E+02  0.71102045103E+02  0.00000000000E+00 0.  1.
         21   -1    0    0  501  503 -0.00000000000E+00 -0.00000000000E+00 -0.68429687558E+03  0.68429687558E+03  0.00000000000E+00 0. -1.
          6    2    1    2  501    0  0.13490657170E+02  0.11629762215E+03 -0.43785739115E+03  0.48293727275E+03  0.16673985630E+03 0.  0.
         24    2    3    3    0    0 -0.55432872088E+02  0.69661920382E+02 -0.27687685626E+03  0.30165802910E+03  0.80069885291E+02 0.  0.
         -6    2    1    2    0  502 -0.13490657170E+02 -0.11629762215E+03 -0.17533743932E+03  0.27246164793E+03  0.17258330515E+03 0.  0.
        -24    2    5    5    0    0 -0.23279924617E+02 -0.21837448820E+02 -0.15105328695E+03  0.17432722910E+03  0.80957138333E+02 0.  0.
          5    1    3    3  501    0  0.68923529258E+02  0.46635701764E+02 -0.16098053490E+03  0.18127924365E+03  0.47000000000E+01 0. -1.
        -13    1    4    4    0    0 -0.32944009457E+02  0.10596245311E+02 -0.26945824957E+02  0.43859613045E+02  0.00000000000E+00 0.  1.
         14    1    4    4    0    0 -0.22488862631E+02  0.59065675071E+02 -0.24993103130E+03  0.25779841605E+03  0.00000000000E+00 0. -1.
         -5    1    5    5    0  502  0.97892674477E+01 -0.94460173326E+02 -0.24284152375E+02  0.98134418827E+02  0.47000000000E+01 0.  1.
         11    1    6    6    0    0  0.26242531856E+02  0.68340408476E+01 -0.70346464207E+02  0.75392304773E+02  0.00000000000E+00 0. -1.
        -12    1    6    6    0    0 -0.49522456473E+02 -0.28671489668E+02 -0.80706822741E+02  0.98934924328E+02  0.00000000000E+00 0.  1.
</event>
<event>
12    1  0.8562501E-002  0.2353341E+03  0.7818608E-02  0.1124235E+00
         21   -1    0    0  501  502  0.00000000000E+00  0.00000000000E+00  0.15616830575E+03  0.15616830575E+03  0.00000000000E+00 0. -1.
         21   -1    0    0  502  503 -0.00000000000E+00 -0.00000000000E+00 -0.36616398615E+03  0.36616398615E+03  0.00000000000E+00 0. -1.
         -6    2    1    2    0  503  0.12979762527E+03  0.74526636740E+02 -0.16838821071E+03  0.28334838112E+03  0.17184316242E+03 0.  0.
        -24    2    3    3    0    0  0.79417446579E+02  0.73983498148E+02 -0.18730887200E+03  0.22932487857E+03  0.75661070474E+02 0.  0.
          6    2    1    2  501    0 -0.12979762527E+03 -0.74526636740E+02 -0.41607469687E+02  0.23898391077E+03  0.18160529994E+03 0.  0.
         24    2    5    5    0    0 -0.69451298326E+02  0.17922305756E+02 -0.64604977620E+02  0.12611468771E+03  0.81156758437E+02 0.  0.
          5    1    5    5  501    0 -0.60346326941E+02 -0.92448942495E+02  0.22997507933E+02  0.11286922306E+03  0.47000000000E+01 0. -1.
        -13    1    6    6    0    0 -0.68992490386E+02  0.26597257838E+02 -0.14610868199E+02  0.75371448995E+02  0.00000000000E+00 0.  1.
         14    1    6    6    0    0 -0.45880794048E+00 -0.86749520826E+01 -0.49994109422E+02  0.50743238715E+02  0.00000000000E+00 0. -1.
         -5    1    3    3    0  503  0.50380178688E+02  0.54313859204E+00  0.18920661284E+02  0.54023502548E+02  0.47000000000E+01 0.  1.
         13    1    4    4    0    0  0.85836644284E+02  0.39409774369E+02 -0.11419594206E+03  0.14819505052E+03  0.00000000000E+00 0. -1.
        -14    1    4    4    0    0 -0.64191977042E+01  0.34573723779E+02 -0.73112929940E+02  0.81129828050E+02  0.00000000000E+00 0.  1.
</event>
<event>
12    1  0.8562501E-002  0.2360788E+03  0.7818608E-02  0.1122485E+00
         21   -1    0    0  501  502  0.00000000000E+00  0.00000000000E+00  0.71437845645E+03  0.71437845645E+03  0.00000000000E+00 0.  1.
         21   -1    0    0  502  503 -0.00000000000E+00 -0.00000000000E+00 -0.89268058170E+02  0.89268058170E+02  0.00000000000E+00 0.  1.
         -6    2    1    2    0  503 -0.14376653612E+03 -0.72967514835E+02  0.16908545110E+03  0.29013705771E+03  0.17203647100E+03 0.  0.
        -24    2    3    3    0    0 -0.10179406495E+03  0.31604827412E+01  0.43040302732E+02  0.13694884087E+03  0.80811490808E+02 0.  0.
          6    2    1    2  501    0  0.14376653612E+03  0.72967514835E+02  0.45602494718E+03  0.51350945692E+03  0.17245328284E+03 0.  0.
         24    2    5    5    0    0  0.16651874928E+03  0.30866589995E+02  0.34201175437E+03  0.38977082426E+03  0.79170796880E+02 0.  0.
          5    1    5    5  501    0 -0.22752213160E+02  0.42100924840E+02  0.11401319282E+03  0.12373863266E+03  0.47000000000E+01 0. -1.
        -11    1    6    6    0    0  0.14290580464E+03  0.36516964465E+02  0.33240444658E+03  0.36365955755E+03  0.00000000000E+00 0.  1.
         12    1    6    6    0    0  0.23612944635E+02 -0.56503744693E+01  0.96073077876E+01  0.26111266704E+02  0.00000000000E+00 0. -1.
         -5    1    3    3    0  503 -0.41972471172E+02 -0.76127997576E+02  0.12604514837E+03  0.15318821684E+03  0.47000000000E+01 0.  1.
         13    1    4    4    0    0 -0.60395083244E+02  0.21690806095E+02  0.60645941266E+02  0.88294888534E+02  0.00000000000E+00 0. -1.
        -14    1    4    4    0    0 -0.41398981702E+02 -0.18530323354E+02 -0.17605638535E+02  0.48653952334E+02  0.00000000000E+00 0.  1.
</event>
<event>
12    1  0.8562501E-002  0.1768301E+03  0.7818608E-02  0.1172189E+00
         21   -1    0    0  501  502  0.00000000000E+00  0.00000000000E+00  0.55624867440E+02  0.55624867440E+02  0.00000000000E+00 0. -1.
         21   -1    0    0  502  503 -0.00000000000E+00 -0.00000000000E+00 -0.96528226783E+03  0.96528226783E+03  0.00000000000E+00 0. -1.
         -6    2    1    2    0  503  0.35492784769E+02  0.14285130814E+02 -0.78744690742E+03  0.80595526710E+03  0.16741403117E+03 0.  0.
        -24    2    3    3    0    0  0.40524840131E+02  0.69273880532E+02 -0.47773116155E+03  0.49132053060E+03  0.82022362057E+02 0.  0.
          6    2    1    2  501    0 -0.35492784769E+02 -0.14285130814E+02 -0.12221049297E+03  0.21495186817E+03  0.17264153123E+03 0.  0.
         24    2    5    5    0    0  0.30219085936E+02 -0.38757874673E+02 -0.11125990830E+03  0.14382542830E+03  0.76756893034E+02 0.  0.
          5    1    5    5  501    0 -0.65711870705E+02  0.24472743859E+02 -0.10950584677E+02  0.71126439868E+02  0.47000000000E+01 0. -1.
        -13    1    6    6    0    0  0.11333990251E+02 -0.31663809670E+02 -0.30702736724E+01  0.33771034309E+02  0.00000000000E+00 0.  1.
         14    1    6    6    0    0  0.18885095686E+02 -0.70940650024E+01 -0.10818963462E+03  0.11005439399E+03  0.00000000000E+00 0. -1.
         -5    1    3    3    0  503 -0.50320553622E+01 -0.54988749718E+02 -0.30971574587E+03  0.31463473651E+03  0.47000000000E+01 0.  1.
         11    1    4    4    0    0 -0.25803361943E+01  0.30515175715E+01 -0.25425962442E+03  0.25429102718E+03  0.00000000000E+00 0. -1.
        -12    1    4    4    0    0  0.43105176325E+02  0.66222362960E+02 -0.22347153713E+03  0.23702950342E+03  0.00000000000E+00 0.  1.
</event>
<event>
12    1  0.8562501E-002  0.2077360E+03  0.7818608E-02  0.1143922E+00
         21   -1    0    0  501  502  0.00000000000E+00  0.00000000000E+00  0.28698569784E+03  0.28698569784E+03  0.00000000000E+00 0. -1.
         21   -1    0    0  502  503 -0.00000000000E+00 -0.00000000000E+00 -0.20236535008E+03  0.20236535008E+03  0.00000000000E+00 0. -1.
         -6    2    1    2    0  503  0.90285100810E+02  0.74515166758E+02 -0.83828456382E+02  0.22401214210E+03  0.17161095596E+03 0.  0.
        -24    2    3    3    0    0  0.12763980974E+03  0.44310723272E+02 -0.79682606547E+02  0.17556670107E+03  0.78860557388E+02 0.  0.
          6    2    1    2  501    0 -0.90285100810E+02 -0.74515166758E+02  0.16844880414E+03  0.26533890582E+03  0.16830278018E+03 0.  0.
         24    2    5    5    0    0 -0.46262539281E+02  0.11678347181E+02  0.33429103218E+02  0.99147096733E+02  0.80224905827E+02 0.  0.
          5    1    5    5  501    0 -0.44022561530E+02 -0.86193513939E+02  0.13501970093E+03  0.16619180909E+03  0.47000000000E+01 0. -1.
        -11    1    6    6    0    0 -0.21663437577E+02 -0.19944597963E+02 -0.17572508110E+02  0.34291173162E+02  0.00000000000E+00 0.  1.
         12    1    6    6    0    0 -0.24599101704E+02  0.31622945144E+02  0.51001611328E+02  0.64855923571E+02  0.00000000000E+00 0. -1.
         -5    1    3    3    0  503 -0.37354708931E+02  0.30204443485E+02 -0.41458498352E+01  0.48445441029E+02  0.47000000000E+01 0.  1.
         13    1    4    4    0    0  0.20300966526E+01  0.27960382672E+02 -0.48686582814E+01  0.28453613568E+02  0.00000000000E+00 0. -1.
        -14    1    4    4    0    0  0.12560971309E+03  0.16350340600E+02 -0.74813948266E+02  0.14711308750E+03  0.00000000000E+00 0.  1.
</event>
<event>
12    1  0.8562501E-002  0.1860806E+03  0.7818608E-02  0.1163278E+00
         21   -1    0    0  501  502  0.00000000000E+00  0.00000000000E+00  0.42292515046E+03  0.42292515046E+03  0.00000000000E+00 0. -1.
         21   -1    0    0  502  503 -0.00000000000E+00 -0.00000000000E+00 -0.88452922945E+02  0.88452922945E+02  0.00000000000E+00 0. -1.
         -6    2    1    2    0  503  0.34462829050E+01 -0.56047260562E+02  0.84123027662E+02  0.19944746729E+03  0.17189949430E+03 0.  0.
        -24    2    3    3    0    0  0.22552132679E+02 -0.56883671634E+02 -0.10612413035E+02  0.10268679964E+03  0.81777776462E+02 0.  0.
          6    2    1    2  501    0 -0.34462829050E+01  0.56047260562E+02  0.25034919985E+03  0.31193060612E+03  0.17740577467E+03 0.  0.
         24    2    5    5    0    0 -0.37480019108E+02  0.95122980202E+02  0.13827492136E+03  0.18836709628E+03  0.76870513773E+02 0.  0.
          5    1    5    5  501    0  0.34033736203E+02 -0.39075719639E+02  0.11207427849E+03  0.12356350984E+03  0.47000000000E+01 0. -1.
        -13    1    6    6    0    0 -0.26224961125E+02  0.89984084210E+01  0.33844930107E+01  0.27931608136E+02  0.00000000000E+00 0.  1.
         14    1    6    6    0    0 -0.11255057983E+02  0.86124571781E+02  0.13489042835E+03  0.16043548814E+03  0.00000000000E+00 0. -1.
         -5    1    3    3    0  503 -0.19105849774E+02  0.83641107163E+00  0.94735440697E+02  0.96760667645E+02  0.47000000000E+01 0.  1.
         13    1    4    4    0    0 -0.18487760525E+02 -0.47641824227E+02  0.15219103576E+02  0.53321307360E+02  0.00000000000E+00 0. -1.
        -14    1    4    4    0    0  0.41039893204E+02 -0.92418474071E+01 -0.25831516611E+02  0.49365492281E+02  0.00000000000E+00 0.  1.
</event>
<event>
12    1  0.8562501E-002  0.2454715E+03  0.7818608E-02  0.1116354E+00
         21   -1    0    0  501  502  0.00000000000E+00  0.00000000000E+00  0.18656104733E+03  0.18656104733E+03  0.00000000000E+00 0. -1.
         21   -1    0    0  502  503 -0.00000000000E+00 -0.00000000000E+00 -0.64785315953E+03  0.64785315953E+03  0.00000000000E+00 0. -1.
         -6    2    1    2    0  503  0.28902574722E+02 -0.17146355051E+03 -0.52642741499E+03  0.58044791168E+03  0.17192686510E+03 0.  0.
        -24    2    3    3    0    0  0.70002347316E+02 -0.14210989036E+03 -0.48002841887E+03  0.51170356273E+03  0.79483983420E+02 0.  0.
          6    2    1    2  501    0 -0.28902574722E+02  0.17146355051E+03  0.65135302791E+02  0.25396629519E+03  0.17326616358E+03 0.  0.
         24    2    5    5    0    0 -0.34399302258E+02  0.41494341084E+02 -0.22087381338E+02  0.97275210442E+02  0.77907135837E+02 0.  0.
          5    1    5    5  501    0  0.54967275352E+01  0.12996920942E+03  0.87222684129E+02  0.15669108474E+03  0.47000000000E+01 0. -1.
        -11    1    6    6    0    0 -0.14590961148E+02 -0.12036251520E+02  0.19105907643E+02  0.26884999623E+02  0.00000000000E+00 0.  1.
         12    1    6    6    0    0 -0.19808341110E+02  0.53530592604E+02 -0.41193288981E+02  0.70390210819E+02  0.00000000000E+00 0. -1.
         -5    1    3    3    0  503 -0.41099772594E+02 -0.29353660152E+02 -0.46398996114E+02  0.68744348945E+02  0.47000000000E+01 0.  1.
         11    1    4    4    0    0  0.56730838434E+02 -0.32526776378E+02 -0.21128970758E+03  0.22117802726E+03  0.00000000000E+00 0. -1.
        -12    1    4    4    0    0  0.13271508882E+02 -0.10958311398E+03 -0.26873871129E+03  0.29052553547E+03  0.00000000000E+00 0.  1.
</event>
<event>
12    1  0.8562501E-002  0.2720853E+03  0.7818608E-02  0.1100166E+00
         21   -1    0    0  501  502  0.00000000000E+00  0.00000000000E+00  0.46389809258E+03  0.46389809258E+03  0.00000000000E+00 0. -1.
         21   -1    0    0  502  503 -0.00000000000E+00 -0.00000000000E+00 -0.24865582147E+03  0.24865582147E+03  0.00000000000E+00 0. -1.
         -6    2    1    2    0  503 -0.19741440561E+03 -0.73327539891E+02  0.32128654487E+03  0.42101719797E+03  0.17228192424E+03 0.  0.
        -24    2    3    3    0    0 -0.88692905272E+02 -0.50413371343E+02  0.26342406669E+03  0.29565540101E+03  0.87246419846E+02 0.  0.
          6    2    1    2  501    0  0.19741440561E+03  0.73327539891E+02 -0.10604427377E+03  0.29153671608E+03  0.17146105440E+03 0.  0.
         24    2    5    5    0    0  0.51394708385E+02 -0.22143317763E+02 -0.38406501365E+02  0.10436461642E+03  0.79279071897E+02 0.  0.
          5    1    5    5  501    0  0.14601969723E+03  0.95470857654E+02 -0.67637772402E+02  0.18717209967E+03  0.47000000000E+01 0. -1.
        -13    1    6    6    0    0  0.92399073927E+00  0.64214443682E+01 -0.45480903446E+02  0.45941280837E+02  0.00000000000E+00 0.  1.
         14    1    6    6    0    0  0.50470717646E+02 -0.28564762131E+02  0.70744020807E+01  0.58423335578E+02  0.00000000000E+00 0. -1.
         -5    1    3    3    0  503 -0.10872150034E+03 -0.22914168548E+02  0.57862478180E+02  0.12536179696E+03  0.47000000000E+01 0.  1.
         11    1    4    4    0    0 -0.73618508158E+02 -0.58652332640E+02  0.12660067252E+03  0.15775776098E+03  0.00000000000E+00 0. -1.
        -12    1    4    4    0    0 -0.15074397114E+02  0.82389612972E+01  0.13682339417E+03  0.13789764002E+03  0.00000000000E+00 0.  1.
</event>
<event>
12    1  0.8562501E-002  0.1756887E+03  0.7818608E-02  0.1172238E+00
         21   -1    0    0  501  502  0.00000000000E+00  0.00000000000E+00  0.17019183576E+03  0.17019183576E+03  0.00000000000E+00 0. -1.
         21   -1    0    0  502  503 -0.00000000000E+00 -0.00000000000E+00 -0.29265340168E+03  0.29265340168E+03  0.00000000000E+00 0. -1.
         -6    2    1    2    0  503 -0.29158802797E+02  0.17848138461E+02 -0.20454204364E+03  0.26963674373E+03  0.17233030530E+03 0.  0.
        -24    2    3    3    0    0 -0.39331974041E+02 -0.50802233593E+02 -0.97104341204E+02  0.14164722501E+03  0.80664813596E+02 0.  0.
          6    2    1    2  501    0  0.29158802797E+02 -0.17848138461E+02  0.82080477725E+02  0.19320849370E+03  0.17153286970E+03 0.  0.
         24    2    5    5    0    0  0.58126493428E+02 -0.68068793887E+02  0.51265379467E+02  0.12738371408E+03  0.74742367783E+02 0.  0.
          5    1    5    5  501    0 -0.28967690631E+02  0.50220655425E+02  0.30815098259E+02  0.65824779624E+02  0.47000000000E+01 0. -1.
        -11    1    6    6    0    0  0.51454314268E+02 -0.36656785264E+01  0.27128727108E+02  0.58283372331E+02  0.00000000000E+00 0.  1.
         12    1    6    6    0    0  0.66721791604E+01 -0.64403115360E+02  0.24136652359E+02  0.69100341750E+02  0.00000000000E+00 0. -1.
         -5    1    3    3    0  503  0.10173171243E+02  0.68650372054E+02 -0.10743770244E+03  0.12798951872E+03  0.47000000000E+01 0.  1.
         13    1    4    4    0    0  0.12896306130E+02 -0.83754472175E+01 -0.65545320980E+02  0.67324972560E+02  0.00000000000E+00 0. -1.
        -14    1    4    4    0    0 -0.52228280171E+02 -0.42426786375E+02 -0.31559020224E+02  0.74322252450E+02  0.00000000000E+00 0.  1.
</event>
<event>
12    1  0.8562501E-002  0.2391733E+03  0.7818608E-02  0.1121625E+00
         21   -1    0    0  503  502  0.00000000000E+00  0.00000000000E+00  0.23573377828E+04  0.23573377828E+04  0.00000000000E+00 0. -1.
         21   -1    0    0  501  503 -0.00000000000E+00 -0.00000000000E+00 -0.24963353301E+02  0.24963353301E+02  0.00000000000E+00 0. -1.
          6    2    1    2  501    0  0.14750059474E+03 -0.46913625458E+02  0.14712395154E+04  0.14905534455E+04  0.18233636056E+03 0.  0.
         24    2    3    3    0    0  0.17933522814E+03 -0.37706323665E+02  0.13532154560E+04  0.13678750575E+04  0.79417954521E+02 0.  0.
         -6    2    1    2    0  502 -0.14750059474E+03  0.46913625458E+02  0.86113491413E+03  0.89174769068E+03  0.17234642378E+03 0.  0.
        -24    2    5    5    0    0 -0.73695309976E+02  0.63082398254E+02  0.72668876178E+03  0.73745411610E+03  0.79697108971E+02 0.  0.
          5    1    3    3  501    0 -0.31834633397E+02 -0.92073017932E+01  0.11802405938E+03  0.12267838800E+03  0.47000000000E+01 0. -1.
        -11    1    4    4    0    0  0.98817090617E+02 -0.48856640617E+02  0.96260197818E+03  0.96889336726E+03  0.00000000000E+00 0.  1.
         12    1    4    4    0    0  0.80518137523E+02  0.11150316952E+02  0.39061347784E+03  0.39898169019E+03  0.00000000000E+00 0. -1.
         -5    1    5    5    0  502 -0.73805284766E+02 -0.16168772795E+02  0.13444615236E+03  0.15429357458E+03  0.47000000000E+01 0.  1.
         11    1    6    6    0    0 -0.42084098688E+02 -0.32066919099E+01  0.14107223959E+03  0.14725057222E+03  0.00000000000E+00 0. -1.
        -12    1    6    6    0    0 -0.31611211289E+02  0.66289090164E+02  0.58561652219E+03  0.59020354388E+03  0.00000000000E+00 0.  1.
</event>
<event>
12    1  0.8562501E-002  0.2079172E+03  0.7818608E-02  0.1143398E+00
         21   -1    0    0  501  502  0.00000000000E+00  0.00000000000E+00  0.38588445493E+03  0.38588445493E+03  0.00000000000E+00 0. -1.
         21   -1    0    0  502  503 -0.00000000000E+00 -0.00000000000E+00 -0.27533816057E+03  0.27533816057E+03  0.00000000000E+00 0. -1.
         -6    2    1    2    0  503  0.40604460398E+02  0.10876045332E+03 -0.19975084858E+03  0.28770704964E+03  0.17145666070E+03 0.  0.
        -24    2    3    3    0    0 -0.20733143696E+01  0.79217484847E+01 -0.35699513706E+02  0.90413442744E+02  0.82662461967E+02 0.  0.
          6    2    1    2  501    0 -0.40604460398E+02 -0.10876045332E+03  0.31029714293E+03  0.37351556586E+03  0.17248768831E+03 0.  0.
         24    2    5    5    0    0  0.11759647675E+02 -0.12499035843E+03  0.25527369816E+03  0.29570117703E+03  0.80707162685E+02 0.  0.
          5    1    5    5  501    0 -0.52364108073E+02  0.16229905119E+02  0.55023444770E+02  0.77814388829E+02  0.47000000000E+01 0. -1.
        -13    1    6    6    0    0  0.22035640078E+02 -0.15434785691E+02  0.13577345218E+02  0.30135466583E+02  0.00000000000E+00 0.  1.
         14    1    6    6    0    0 -0.10275992403E+02 -0.10955557274E+03  0.24169635294E+03  0.26556571045E+03  0.00000000000E+00 0. -1.
         -5    1    3    3    0  503  0.42677774768E+02  0.10083870483E+03 -0.16405133487E+03  0.19729360690E+03  0.47000000000E+01 0.  1.
         11    1    4    4    0    0 -0.32872516622E+02  0.24309130154E+00 -0.46445277482E+02  0.56901891382E+02  0.00000000000E+00 0. -1.
        -12    1    4    4    0    0  0.30799202253E+02  0.76786571832E+01  0.10745763776E+02  0.33511551362E+02  0.00000000000E+00 0.  1.
</event>
<event>
12    1  0.8562501E-002  0.1847923E+03  0.7818608E-02  0.1163654E+00
         21   -1    0    0  503  502  0.00000000000E+00  0.00000000000E+00  0.12272455701E+03  0.12272455701E+03  0.00000000000E+00 0. -1.
         21   -1    0    0  501  503 -0.00000000000E+00 -0.00000000000E+00 -0.33644807952E+03  0.33644807952E+03  0.00000000000E+00 0. -1.
          6    2    1    2  501    0 -0.15791572201E+02 -0.62129268798E+02 -0.20488588242E+03  0.27591017962E+03  0.17331700035E+03 0.  0.
         24    2    3    3    0    0 -0.68845874111E+02 -0.72606935975E+02 -0.12019024326E+03  0.17531205959E+03  0.79228165003E+02 0.  0.
         -6    2    1    2    0  502  0.15791572201E+02  0.62129268798E+02 -0.88376400962E+01  0.18326245692E+03  0.17145729625E+03 0.  0.
        -24    2    5    5    0    0 -0.13630333265E+01  0.57180625881E+02  0.56893589042E+02  0.11498761498E+03  0.81937715909E+02 0.  0.
          5    1    3    3  501    0  0.53054301910E+02  0.10477667177E+02 -0.84695639155E+02  0.10059812003E+03  0.47000000000E+01 0. -1.
        -13    1    4    4    0    0 -0.90202687750E+01  0.13243257533E+02 -0.41199145164E+02  0.44205414613E+02  0.00000000000E+00 0.  1.
         14    1    4    4    0    0 -0.59825605336E+02 -0.85850193508E+02 -0.78991098097E+02  0.13110664498E+03  0.00000000000E+00 0. -1.
         -5    1    5    5    0  502  0.17154605527E+02  0.49486429171E+01 -0.65731229138E+02  0.68274841937E+02  0.47000000000E+01 0.  1.
         11    1    6    6    0    0 -0.10337333075E+02  0.69761815468E+02  0.66383774137E+02  0.96852345460E+02  0.00000000000E+00 0. -1.
        -12    1    6    6    0    0  0.89742997482E+01 -0.12581189587E+02 -0.94901850944E+01  0.18135269519E+02  0.00000000000E+00 0.  1.
</event>
<event>
12    1  0.8562501E-002  0.1868578E+03  0.7818608E-02  0.1161667E+00
         21   -1    0    0  501  502  0.00000000000E+00  0.00000000000E+00  0.30095479916E+02  0.30095479916E+02  0.00000000000E+00 0. -1.
         21   -1    0    0  502  503 -0.00000000000E+00 -0.00000000000E+00 -0.12440325057E+04  0.12440325057E+04  0.00000000000E+00 0. -1.
         -6    2    1    2    0  503  0.69254557684E+02  0.12309533661E+02 -0.78334793808E+03  0.80532591420E+03  0.17311301975E+03 0.  0.
        -24    2    3    3    0    0  0.31373994186E+02  0.66985335245E+02 -0.33998356743E+03  0.35697511902E+03  0.79818837580E+02 0.  0.
          6    2    1    2  501    0 -0.69254557684E+02 -0.12309533661E+02 -0.43058908770E+03  0.46880207141E+03  0.17152463769E+03 0.  0.
         24    2    5    5    0    0 -0.11173773948E+03 -0.27391988423E+02 -0.33350171501E+03  0.36165568037E+03  0.79597699560E+02 0.  0.
          5    1    5    5  501    0  0.42483181800E+02  0.15082454762E+02 -0.97087372687E+02  0.10714639104E+03  0.47000000000E+01 0. -1.
        -13    1    6    6    0    0  0.12669555835E+02 -0.29041159076E+01 -0.35295574833E+02  0.37612885253E+02  0.00000000000E+00 0.  1.
         14    1    6    6    0    0 -0.12440729532E+03 -0.24487872516E+02 -0.29820614018E+03  0.32404279512E+03  0.00000000000E+00 0. -1.
         -5    1    3    3    0  503  0.37880563499E+02 -0.54675801584E+02 -0.44336437065E+03  0.44835079517E+03  0.47000000000E+01 0.  1.
         13    1    4    4    0    0  0.40264847357E+02  0.93851509019E+01 -0.21670538569E+03  0.22061405934E+03  0.00000000000E+00 0. -1.
        -14    1    4    4    0    0 -0.88908531712E+01  0.57600184343E+02 -0.12327818174E+03  0.13636105968E+03  0.00000000000E+00 0.  1.
</event>
<event>
12    1  0.8562501E-002  0.1890326E+03  0.7818608E-02  0.1159344E+00
         21   -1    0    0  501  502  0.00000000000E+00  0.00000000000E+00  0.58020345086E+02  0.58020345086E+02  0.00000000000E+00 0.  1.
         21   -1    0    0  502  503 -0.00000000000E+00 -0.00000000000E+00 -0.71426409950E+03  0.71426409950E+03  0.00000000000E+00 0.  1.
         -6    2    1    2    0  503  0.20930481747E+02  0.76587671231E+02 -0.47153613645E+03  0.50801541862E+03  0.17155052063E+03 0.  0.
        -24    2    3    3    0    0 -0.47337617018E+01  0.31917683899E+00 -0.10117226521E+03  0.12898108806E+03  0.79861025879E+02 0.  0.
          6    2    1    2  501    0 -0.20930481747E+02 -0.76587671231E+02 -0.18470761797E+03  0.26426902597E+03  0.17151518154E+03 0.  0.
         24    2    5    5    0    0 -0.55864083577E+02 -0.44999495600E+02 -0.18794421040E+03  0.21682711510E+03  0.80902541256E+02 0.  0.
          5    1    5    5  501    0  0.34933601829E+02 -0.31588175631E+02  0.32365924301E+01  0.47441910871E+02  0.47000000000E+01 0. -1.
        -13    1    6    6    0    0  0.16406854821E+02  0.76005089432E+01 -0.41348427712E+02  0.45129204464E+02  0.00000000000E+00 0.  1.
         14    1    6    6    0    0 -0.72270938398E+02 -0.52600004543E+02 -0.14659578268E+03  0.17169791063E+03  0.00000000000E+00 0. -1.
         -5    1    3    3    0  503  0.25664243449E+02  0.76268494392E+02 -0.37036387124E+03  0.37903433057E+03  0.47000000000E+01 0.  1.
         13    1    4    4    0    0  0.21740533533E+02 -0.31480096550E+02 -0.42458132259E+02  0.57151905236E+02  0.00000000000E+00 0. -1.
        -14    1    4    4    0    0 -0.26474295235E+02  0.31799273389E+02 -0.58714132955E+02  0.71829182822E+02  0.00000000000E+00 0.  1.
</event>
<event>
12    1  0.8562501E-002  0.2666982E+03  0.7818608E-02  0.1103706E+00
         21   -1    0    0  503  502  0.00000000000E+00  0.00000000000E+00  0.43936712600E+03  0.43936712600E+03  0.00000000000E+00 0.  1.
         21   -1    0    0  501  503 -0.00000000000E+00 -0.00000000000E+00 -0.20361990497E+03  0.20361990497E+03  0.00000000000E+00 0.  1.
          6    2    1    2  501    0 -0.19881522929E+03 -0.83661797327E+00 -0.30757383365E+02  0.26846595249E+03  0.17776320117E+03 0.  0.
         24    2    3    3    0    0 -0.18612051231E+03 -0.12123288579E+02 -0.72391930657E+02  0.22325455680E+03  0.99066574986E+02 0.  0.
         -6    2    1    2    0  502  0.19881522929E+03  0.83661797327E+00  0.26650460440E+03  0.37452107847E+03  0.17237499450E+03 0.  0.
        -24    2    5    5    0    0  0.12904484378E+02  0.82984880779E+01  0.78034195402E+02  0.10964059666E+03  0.75474062850E+02 0.  0.
          5    1    3    3  501    0 -0.12694716978E+02  0.11286670605E+02  0.41634547292E+02  0.45211395695E+02  0.47000000000E+01 0. -1.
        -13    1    4    4    0    0 -0.55671337489E+02 -0.49053047020E+02 -0.13395027837E+02  0.75398448329E+02  0.00000000000E+00 0.  1.
         14    1    4    4    0    0 -0.13044917482E+03  0.36929758441E+02 -0.58996902819E+02  0.14785610847E+03  0.00000000000E+00 0. -1.
         -5    1    5    5    0  502  0.18591074491E+03 -0.74618701047E+01  0.18847040899E+03  0.26488048181E+03  0.47000000000E+01 0.  1.
         13    1    6    6    0    0  0.18175851272E+02 -0.12179909358E+02  0.84691003528E+02  0.87471583043E+02  0.00000000000E+00 0. -1.
        -14    1    6    6    0    0 -0.52713668938E+01  0.20478397435E+02 -0.66568081260E+01  0.22169013620E+02  0.00000000000E+00 0.  1.
</event>
<event>
12    1  0.8562501E-002  0.3005790E+03  0.7818608E-02  0.1084975E+00
         21   -1    0    0  501  502  0.00000000000E+00  0.00000000000E+00  0.52714588338E+03  0.52714588338E+03  0.00000000000E+00 0. -1.
         21   -1    0    0  502  503 -0.00000000000E+00 -0.00000000000E+00 -0.26006232074E+03  0.26006232074E+03  0.00000000000E+00 0. -1.
         -6    2    1    2    0  503 -0.13050686923E+03  0.20842154372E+03 -0.96404373320E+02  0.31566049278E+03  0.17284721780E+03 0.  0.
        -24    2    3    3    0    0 -0.22852608318E+02  0.13873518452E+03 -0.93417671200E+02  0.18729913200E+03  0.81144380108E+02 0.  0.
          6    2    1    2  501    0  0.13050686923E+03 -0.20842154372E+03  0.36348793597E+03  0.47154771134E+03  0.17251719241E+03 0.  0.
         24    2    5    5    0    0  0.11220345945E+03 -0.95550626164E+02  0.12831864427E+03  0.21001082179E+03  0.76937197304E+02 0.  0.
          5    1    5    5  501    0  0.18303409781E+02 -0.11287091756E+03  0.23516929170E+03  0.26153688955E+03  0.47000000000E+01 0. -1.
        -11    1    6    6    0    0  0.46453829563E+02 -0.72933378078E+02  0.34186962285E+02  0.92983785195E+02  0.00000000000E+00 0.  1.
         12    1    6    6    0    0  0.65749629891E+02 -0.22617248087E+02  0.94131681981E+02  0.11702703660E+03  0.00000000000E+00 0. -1.
         -5    1    3    3    0  503 -0.10765426092E+03  0.69686359198E+02 -0.29867021196E+01  0.12836136078E+03  0.47000000000E+01 0.  1.
         11    1    4    4    0    0 -0.51770157363E+02  0.65114734935E+02 -0.50351978051E+02  0.97238879018E+02  0.00000000000E+00 0. -1.
        -12    1    4    4    0    0  0.28917549045E+02  0.73620449587E+02 -0.43065693149E+02  0.90060252979E+02  0.00000000000E+00 0.  1.
</event>
<event>
12    1  0.8562501E-002  0.1846497E+03  0.7818608E-02  0.1165242E+00
         21   -1    0    0  501  502  0.00000000000E+00  0.00000000000E+00  0.41893987307E+03  0.41893987307E+03  0.00000000000E+00 0.  1.
         21   -1    0    0  502  503 -0.00000000000E+00 -0.00000000000E+00 -0.12031392511E+03  0.12031392511E+03  0.00000000000E+00 0.  1.
         -6    2    1    2    0  503  0.52825735735E+02  0.14172748309E+02 -0.84967693220E+01  0.18484504860E+03  0.17636346490E+03 0.  0.
        -24    2    3    3    0    0  0.54432805992E+02  0.22080780873E+02 -0.70558227547E+02  0.12208491595E+03  0.80472181372E+02 0.  0.
          6    2    1    2  501    0 -0.52825735735E+02 -0.14172748309E+02  0.30712271727E+03  0.35440874958E+03  0.16819563954E+03 0.  0.
         24    2    5    5    0    0  0.24979433666E+01  0.33439208254E+02  0.15943506615E+03  0.18960177104E+03  0.96978713625E+02 0.  0.
          5    1    5    5  501    0 -0.55323679101E+02 -0.47611956564E+02  0.14768765113E+03  0.16480697853E+03  0.47000000000E+01 0. -1.
        -11    1    6    6    0    0  0.38019667041E+02  0.41091914200E+01  0.12860791363E+03  0.13417293313E+03  0.00000000000E+00 0.  1.
         12    1    6    6    0    0 -0.35521723674E+02  0.29330016834E+02  0.30827152513E+02  0.55428837913E+02  0.00000000000E+00 0. -1.
         -5    1    3    3    0  503 -0.16070702575E+01 -0.79080325639E+01  0.62061458225E+02  0.62760132655E+02  0.47000000000E+01 0.  1.
         11    1    4    4    0    0  0.40862301896E+02 -0.63022483310E+01  0.36272701953E+01  0.41504254472E+02  0.00000000000E+00 0. -1.
        -12    1    4    4    0    0  0.13570504097E+02  0.28383029204E+02 -0.74185497743E+02  0.80580661474E+02  0.00000000000E+00 0.  1.
</event>
<event>
12    1  0.8562501E-002  0.1761750E+03  0.7818608E-02  0.1171932E+00
         21   -1    0    0  501  502  0.00000000000E+00  0.00000000000E+00  0.56589743964E+02  0.56589743964E+02  0.00000000000E+00 0.  1.
         21   -1    0    0  502  503 -0.00000000000E+00 -0.00000000000E+00 -0.66373147493E+03  0.66373147493E+03  0.00000000000E+00 0.  1.
         -6    2    1    2    0  503  0.24654187967E+02 -0.97172287083E+01 -0.45772932559E+03  0.49046280933E+03  0.17417054377E+03 0.  0.
        -24    2    3    3    0    0 -0.22516574047E+02 -0.40710791517E+02 -0.13588646966E+03  0.16367450532E+03  0.78484688975E+02 0.  0.
          6    2    1    2  501    0 -0.24654187967E+02  0.97172287083E+01 -0.14941240538E+03  0.22985840956E+03  0.17265157992E+03 0.  0.
         24    2    5    5    0    0 -0.50903941118E+02 -0.45735588817E+02 -0.61157079556E+02  0.12227050574E+03  0.80789435507E+02 0.  0.
          5    1    5    5  501    0  0.26249753151E+02  0.55452817525E+02 -0.88255325824E+02  0.10758790382E+03  0.47000000000E+01 0. -1.
        -11    1    6    6    0    0 -0.25204074467E+02  0.21908682031E+02 -0.22040718994E+02  0.40012860580E+02  0.00000000000E+00 0.  1.
         12    1    6    6    0    0 -0.25699866651E+02 -0.67644270848E+02 -0.39116360562E+02  0.82257645165E+02  0.00000000000E+00 0. -1.
         -5    1    3    3    0  503  0.47170762014E+02  0.30993562809E+02 -0.32184285593E+03  0.32678830401E+03  0.47000000000E+01 0.  1.
         13    1    4    4    0    0 -0.26866238953E+02  0.20647788755E+01 -0.11051131669E+03  0.11374888669E+03  0.00000000000E+00 0. -1.
        -14    1    4    4    0    0  0.43496649058E+01 -0.42775570392E+02 -0.25375152964E+02  0.49925618625E+02  0.00000000000E+00 0.  1.
</event>
<event>
12    1  0.8562501E-002  0.2651909E+03  0.7818608E-02  0.1104158E+00
         21   -1    0    0  501  502  0.00000000000E+00  0.00000000000E+00  0.23376492021E+03  0.23376492021E+03  0.00000000000E+00 0.  1.
         21   -1    0    0  502  503 -0.00000000000E+00 -0.00000000000E+00 -0.32152306075E+03  0.32152306075E+03  0.00000000000E+00 0.  1.
         -6    2    1    2    0  503  0.16192054734E+02  0.19931046646E+03  0.27710119818E+02  0.26663475067E+03  0.17418207385E+03 0.  0.
        -24    2    3    3    0    0 -0.34373204713E+02  0.19230674376E+03  0.37861965088E+02  0.21437532514E+03  0.79748672292E+02 0.  0.
          6    2    1    2  501    0 -0.16192054734E+02 -0.19931046646E+03 -0.11546826036E+03  0.28865323028E+03  0.17320774672E+03 0.  0.
         24    2    5    5    0    0  0.58561566809E+02 -0.93811043037E+02 -0.70539244449E+02  0.15168995510E+03  0.76184569101E+02 0.  0.
          5    1    5    5  501    0 -0.74753621544E+02 -0.10549942342E+03 -0.44929015910E+02  0.13696327517E+03  0.47000000000E+01 0. -1.
        -11    1    6    6    0    0  0.99837376238E+01 -0.82301425704E+02 -0.54662154569E+02  0.99303327396E+02  0.00000000000E+00 0.  1.
         12    1    6    6    0    0  0.48577829186E+02 -0.11509617333E+02 -0.15877089881E+02  0.52386627708E+02  0.00000000000E+00 0. -1.
         -5    1    3    3    0  503  0.50565259448E+02  0.70037226975E+01 -0.10151845270E+02  0.52259425533E+02  0.47000000000E+01 0.  1.
         13    1    4    4    0    0  0.19582878105E+02  0.15452579890E+02  0.11973167295E+02  0.27669985096E+02  0.00000000000E+00 0. -1.
        -14    1    4    4    0    0 -0.53956082818E+02  0.17685416387E+03  0.25888797793E+02  0.18670534005E+03  0.00000000000E+00 0.  1.
</event>
<event>
12    1  0.8562501E-002  0.2087362E+03  0.7818608E-02  0.1142834E+00
         21   -1    0    0  503  502  0.00000000000E+00  0.00000000000E+00  0.44828040326E+02  0.44828040326E+02  0.00000000000E+00 0. -1.
         21   -1    0    0  501  503 -0.00000000000E+00 -0.00000000000E+00 -0.15252005070E+04  0.15252005070E+04  0.00000000000E+00 0.  1.
          6    2    1    2  501    0 -0.95732182973E+02  0.67282337879E+02 -0.12141046394E+04  0.12316953352E+04  0.17126517323E+03 0.  0.
         24    2    3    3    0    0 -0.10124515597E+03 -0.52013014601E+00 -0.95728530626E+03  0.96597776446E+03  0.80417856857E+02 0.  0.
         -6    2    1    2    0  502  0.95732182973E+02 -0.67282337879E+02 -0.26626782726E+03  0.33833321208E+03  0.17285613301E+03 0.  0.
        -24    2    5    5    0    0 -0.43508249801E+01  0.58525175747E+01 -0.71398795643E+02  0.10733246523E+03  0.79807821881E+02 0.  0.
          5    1    3    3  501    0  0.55129729995E+01  0.67802468025E+02 -0.25681933312E+03  0.26571757075E+03  0.47000000000E+01 0. -1.
        -11    1    4    4    0    0 -0.11927375214E+02 -0.30339898987E+02 -0.33887004416E+03  0.34043454375E+03  0.00000000000E+00 0.  1.
         12    1    4    4    0    0 -0.89317780758E+02  0.29819768841E+02 -0.61841526211E+03  0.62554322071E+03  0.00000000000E+00 0. -1.
         -5    1    5    5    0  502  0.10008300795E+03 -0.73134855453E+02 -0.19486903161E+03  0.23100074685E+03  0.47000000000E+01 0.  1.
         13    1    6    6    0    0 -0.32382855604E+02  0.42995685303E+01 -0.72199706560E+02  0.79246029894E+02  0.00000000000E+00 0. -1.
        -14    1    6    6    0    0  0.28032030624E+02  0.15529490443E+01  0.80091091705E+00  0.28086435337E+02  0.00000000000E+00 0.  1.
</event>
<event>
12    1  0.8562501E-002  0.1879574E+03  0.7818608E-02  0.1160430E+00
         21   -1    0    0  501  502  0.00000000000E+00  0.00000000000E+00  0.21372750929E+03  0.21372750929E+03  0.00000000000E+00 0. -1.
         21   -1    0    0  502  503 -0.00000000000E+00 -0.00000000000E+00 -0.28154022362E+03  0.28154022362E+03  0.00000000000E+00 0.  1.
         -6    2    1    2    0  503  0.74304448474E+02  0.15836781126E+02 -0.19329923142E+03  0.26927026042E+03  0.17137656076E+03 0.  0.
        -24    2    3    3    0    0  0.24943439545E+02 -0.26025675257E+02 -0.28509273086E+02  0.92163527559E+02  0.79886333070E+02 0.  0.
          6    2    1    2  501    0 -0.74304448474E+02 -0.15836781126E+02  0.12548651708E+03  0.22599747249E+03  0.17191869271E+03 0.  0.
         24    2    5    5    0    0 -0.10688220901E+03 -0.32471300528E+02  0.60448668267E+02  0.15123097267E+03  0.82088815559E+02 0.  0.
          5    1    5    5  501    0  0.32577760533E+02  0.16634519402E+02  0.65037848814E+02  0.74766499821E+02  0.47000000000E+01 0. -1.
        -13    1    6    6    0    0 -0.24602351286E+02  0.18693953618E+02 -0.88117204254E+01  0.32130764191E+02  0.00000000000E+00 0.  1.
         14    1    6    6    0    0 -0.82279857722E+02 -0.51165254146E+02  0.69260388693E+02  0.11910020848E+03  0.00000000000E+00 0. -1.
         -5    1    3    3    0  503  0.49361008929E+02  0.41862456383E+02 -0.16478995833E+03  0.17710673286E+03  0.47000000000E+01 0.  1.
         13    1    4    4    0    0  0.33777363315E+01 -0.52400711323E+02 -0.24217147120E+02  0.57824855076E+02  0.00000000000E+00 0. -1.
        -14    1    4    4    0    0  0.21565703213E+02  0.26375036066E+02 -0.42921259656E+01  0.34338672483E+02  0.00000000000E+00 0.  1.
</event>
<event>
12    1  0.8562501E-002  0.2204912E+03  0.7818608E-02  0.1133554E+00
         21   -1    0    0  503  502  0.00000000000E+00  0.00000000000E+00  0.59120461836E+03  0.59120461836E+03  0.00000000000E+00 0.  1.
         21   -1    0    0  501  503 -0.00000000000E+00 -0.00000000000E+00 -0.92763280350E+02  0.92763280350E+02  0.00000000000E+00 0. -1.
          6    2    1    2  501    0 -0.10329165086E+03  0.91479247098E+02  0.36494169301E+03  0.42637871773E+03  0.17198474889E+03 0.  0.
         24    2    3    3    0    0 -0.33131933430E+02  0.83962497789E+02  0.17384558592E+03  0.22261733862E+03  0.10577696188E+03 0.  0.
         -6    2    1    2    0  502  0.10329165086E+03 -0.91479247098E+02  0.13349964500E+03  0.25758918098E+03  0.17173355279E+03 0.  0.
        -24    2    5    5    0    0  0.88116161020E+02 -0.12621813688E+03  0.13546860603E+03  0.21933930826E+03  0.77862141117E+02 0.  0.
          5    1    3    3  501    0 -0.70159717434E+02  0.75167493085E+01  0.19109610710E+03  0.20376137911E+03  0.47000000000E+01 0. -1.
        -13    1    4    4    0    0 -0.46239898634E+01  0.33431420353E+02  0.15925622540E+03  0.16279307871E+03  0.00000000000E+00 0.  1.
         14    1    4    4    0    0 -0.28507943567E+02  0.50531077437E+02  0.14589360518E+02  0.59824259909E+02  0.00000000000E+00 0. -1.
         -5    1    5    5    0  502  0.15175489845E+02  0.34738889779E+02 -0.19689610319E+01  0.38249872714E+02  0.47000000000E+01 0.  1.
         13    1    6    6    0    0  0.15860380221E+01 -0.42473631235E+02  0.66817769252E+01  0.43025236894E+02  0.00000000000E+00 0. -1.
        -14    1    6    6    0    0  0.86530122998E+02 -0.83744505642E+02  0.12878682911E+03  0.17631407137E+03  0.00000000000E+00 0.  1.
</event>
<event>
12    1  0.8562501E-002  0.2067512E+03  0.7818608E-02  0.1144256E+00
         21   -1    0    0  503  502  0.00000000000E+00  0.00000000000E+00  0.17158175348E+04  0.17158175348E+04  0.00000000000E+00 0. -1.
         21   -1    0    0  501  503 -0.00000000000E+00 -0.00000000000E+00 -0.26651151080E+02  0.26651151080E+02  0.00000000000E+00 0.  1.
          6    2    1    2  501    0  0.11319199340E+03 -0.23329470216E+02  0.10713911113E+04  0.10911576381E+04  0.17143332888E+03 0.  0.
         24    2    3    3    0    0  0.12106328518E+03 -0.26352135957E+02  0.10718198535E+04  0.10814949489E+04  0.74045742694E+02 0.  0.
         -6    2    1    2    0  502 -0.11319199340E+03  0.23329470216E+02  0.61777527243E+03  0.65131104780E+03  0.17088915179E+03 0.  0.
        -24    2    5    5    0    0 -0.12754333798E+03  0.10444668206E+02  0.61259746597E+03  0.63079571466E+03  0.79064430436E+02 0.  0.
          5    1    3    3  501    0 -0.78712917755E+01  0.30226657406E+01 -0.42874222900E+00  0.96626891854E+01  0.47000000000E+01 0. -1.
        -13    1    4    4    0    0  0.69043297728E+01 -0.31256541787E+01  0.69863399736E+01  0.10307687902E+02  0.00000000000E+00 0.  1.
         14    1    4    4    0    0  0.11415895541E+03 -0.23226481778E+02  0.10648335136E+04  0.10711872610E+04  0.00000000000E+00 0. -1.
         -5    1    5    5    0  502  0.14351344580E+02  0.12884802010E+02  0.51778064653E+01  0.20515333141E+02  0.47000000000E+01 0.  1.
         11    1    6    6    0    0 -0.40748185224E+02  0.41573046318E+02  0.23917837662E+03  0.24616057487E+03  0.00000000000E+00 0. -1.
        -12    1    6    6    0    0 -0.86795152761E+02 -0.31128378112E+02  0.37341908935E+03  0.38463513978E+03  0.00000000000E+00 0.  1.
</event>
<event>
12    1  0.8562501E-002  0.4316325E+03  0.7818608E-02  0.1033380E+00
         21   -1    0    0  503  502  0.00000000000E+00  0.00000000000E+00  0.57500447585E+03  0.57500447585E+03  0.00000000000E+00 0.  1.
         21   -1    0    0  501  503 -0.00000000000E+00 -0.00000000000E+00 -0.43857642680E+03  0.43857642680E+03  0.00000000000E+00 0. -1.
          6    2    1    2  501    0 -0.27057546076E+03 -0.28889641805E+03 -0.19120592029E+03  0.47168547689E+03  0.17104170492E+03 0.  0.
         24    2    3    3    0    0 -0.26879932535E+03 -0.29454368620E+03 -0.20562530487E+03  0.45540496872E+03  0.78120798408E+02 0.  0.
         -6    2    1    2    0  502  0.27057546076E+03  0.28889641805E+03  0.32763396934E+03  0.54189542576E+03  0.17214649071E+03 0.  0.
        -24    2    5    5    0    0  0.23639017766E+03  0.23135538073E+03  0.19120045247E+03  0.38985661795E+03  0.77620494978E+02 0.  0.
          5    1    3    3  501    0 -0.17761354115E+01  0.56472681473E+01  0.14419384578E+02  0.16280508166E+02  0.47000000000E+01 0. -1.
        -11    1    4    4    0    0 -0.52001240237E+02 -0.70004877344E+02 -0.11803945300E+02  0.88000823648E+02  0.00000000000E+00 0.  1.
         12    1    4    4    0    0 -0.21679808511E+03 -0.22453880886E+03 -0.19382135957E+03  0.36740414507E+03  0.00000000000E+00 0. -1.
         -5    1    5    5    0  502  0.34185283098E+02  0.57541037320E+02  0.13643351687E+03  0.15203880782E+03  0.47000000000E+01 0.  1.
         11    1    6    6    0    0  0.10504871577E+03  0.75829059365E+02  0.37789472884E+02  0.13495674562E+03  0.00000000000E+00 0. -1.
        -12    1    6    6    0    0  0.13134146189E+03  0.15552632137E+03  0.15341097959E+03  0.25489987232E+03  0.00000000000E+00 0.  1.
</event>
<event>
12    1  0.8562501E-002  0.1838985E+03  0.7818608E-02  0.1164867E+00
         21   -1    0    0  501  502  0.00000000000E+00  0.00000000000E+00  0.14957968735E+03  0.14957968735E+03  0.00000000000E+00 0. -1.
         21   -1    0    0  502  503 -0.00000000000E+00 -0.00000000000E+00 -0.50749629789E+03  0.50749629789E+03  0.00000000000E+00 0. -1.
         -6    2    1    2    0  503  0.37075037622E+02 -0.41649123707E+02 -0.42605731415E+03  0.46405118646E+03  0.17524115040E+03 0.  0.
        -24    2    3    3    0    0  0.57429939446E+02  0.30048664610E+02 -0.30787654562E+03  0.32425247786E+03  0.78425645434E+02 0.  0.
          6    2    1    2  501    0 -0.37075037622E+02  0.41649123707E+02  0.68140703615E+02  0.19302479878E+03  0.17177371607E+03 0.  0.
         24    2    5    5    0    0 -0.41469631246E+02 -0.39385597412E+02  0.26545910340E+02  0.10171129864E+03  0.79809443775E+02 0.  0.
          5    1    5    5  501    0  0.43945936241E+01  0.81034721120E+02  0.41594793275E+02  0.91313500139E+02  0.47000000000E+01 0. -1.
        -13    1    6    6    0    0 -0.36512315450E+02  0.16578976601E+02  0.13131356614E+01  0.40121515050E+02  0.00000000000E+00 0.  1.
         14    1    6    6    0    0 -0.49573157956E+01 -0.55964574013E+02  0.25232774678E+02  0.61589783588E+02  0.00000000000E+00 0. -1.
         -5    1    3    3    0  503 -0.20354901825E+02 -0.71697788318E+02 -0.11818076853E+03  0.13979870861E+03  0.47000000000E+01 0.  1.
         13    1    4    4    0    0  0.40575094039E+02 -0.20607386594E+02 -0.18033237551E+03  0.18598593574E+03  0.00000000000E+00 0. -1.
        -14    1    4    4    0    0  0.16854845407E+02  0.50656051204E+02 -0.12754417012E+03  0.13826654211E+03  0.00000000000E+00 0.  1.
</event>
<event>
12    1  0.8562501E-002  0.2364726E+03  0.7818608E-02  0.1122236E+00
         21   -1    0    0  503  502  0.00000000000E+00  0.00000000000E+00  0.67781402296E+03  0.67781402296E+03  0.00000000000E+00 0.  1.
         21   -1    0    0  501  503 -0.00000000000E+00 -0.00000000000E+00 -0.99536506991E+02  0.99536506991E+02  0.00000000000E+00 0. -1.
          6    2    1    2  501    0 -0.33195900570E+01 -0.16270726378E+03  0.12786570596E+03  0.26882881867E+03  0.17156521099E+03 0.  0.
         24    2    3    3    0    0  0.53661959306E+02 -0.86144442572E+02  0.11313576968E+03  0.17214467529E+03  0.80830786134E+02 0.  0.
         -6    2    1    2    0  502  0.33195900570E+01  0.16270726378E+03  0.45041181002E+03  0.50852171129E+03  0.17099373931E+03 0.  0.
        -24    2    5    5    0    0  0.20961143273E+02  0.73517574664E+02  0.37228102574E+03  0.38855282158E+03  0.80845097106E+02 0.  0.
          5    1    3    3  501    0 -0.56981549363E+02 -0.76562821204E+02  0.14729936280E+02  0.96684143381E+02  0.47000000000E+01 0. -1.
        -11    1    4    4    0    0  0.43946245335E+02 -0.81931806139E+02  0.45181996851E+02  0.10337072204E+03  0.00000000000E+00 0.  1.
         12    1    4    4    0    0  0.97157139715E+01 -0.42126364330E+01  0.67953772825E+02  0.68773953245E+02  0.00000000000E+00 0. -1.
         -5    1    5    5    0  502 -0.17641553216E+02  0.89189689112E+02  0.78130784280E+02  0.11996888970E+03  0.47000000000E+01 0.  1.
         13    1    6    6    0    0 -0.17221547140E+02  0.90950979092E+00  0.18120179645E+02  0.25014991591E+02  0.00000000000E+00 0. -1.
        -14    1    6    6    0    0  0.38182690413E+02  0.72608064873E+02  0.35416084609E+03  0.36353782999E+03  0.00000000000E+00 0.  1.
</event>
<event>
12    1  0.8562501E-002  0.2448870E+03  0.7818608E-02  0.1116673E+00
         21   -1    0    0  501  502  0.00000000000E+00  0.00000000000E+00  0.15075405559E+04  0.15075405559E+04  0.00000000000E+00 0. -1.
         21   -1    0    0  502  503 -0.00000000000E+00 -0.00000000000E+00 -0.42379817539E+02  0.42379817539E+02  0.00000000000E+00 0. -1.
         -6    2    1    2    0  503 -0.26554711110E+02 -0.17146501558E+03  0.53638359257E+03  0.58940143444E+03  0.17199211695E+03 0.  0.
        -24    2    3    3    0    0 -0.24812674169E+01 -0.11699458117E+03  0.19196748570E+03  0.23984299357E+03  0.83541949256E+02 0.  0.
          6    2    1    2  501    0  0.26554711110E+02  0.17146501558E+03  0.92877714580E+03  0.96051893901E+03  0.17281273500E+03 0.  0.
         24    2    5    5    0    0 -0.49073565240E+01  0.17846337818E+03  0.63043277554E+03  0.66040180846E+03  0.82533657655E+02 0.  0.
          5    1    5    5  501    0  0.31462067634E+02 -0.69983626028E+01  0.29834437026E+03  0.30011713054E+03  0.47000000000E+01 0. -1.
        -11    1    6    6    0    0 -0.89892454775E+01 -0.55944425282E+01  0.17867871089E+02  0.20769331687E+02  0.00000000000E+00 0.  1.
         12    1    6    6    0    0  0.40818889535E+01  0.18405782071E+03  0.61256490445E+03  0.63963247678E+03  0.00000000000E+00 0. -1.
         -5    1    3    3    0  503 -0.24073443693E+02 -0.54470434407E+02  0.34441610687E+03  0.34955844087E+03  0.47000000000E+01 0.  1.
         13    1    4    4    0    0 -0.16943699043E+02 -0.31308881721E+02  0.12546619265E+03  0.13041894230E+03  0.00000000000E+00 0. -1.
        -14    1    4    4    0    0  0.14462431626E+02 -0.85685699452E+02  0.66501293053E+02  0.10942405127E+03  0.00000000000E+00 0.  1.
</event>
<event>
12    1  0.8562501E-002  0.1763607E+03  0.7818608E-02  0.1171397E+00
         21   -1    0    0  503  502  0.00000000000E+00  0.00000000000E+00  0.35500299015E+03  0.35500299015E+03  0.00000000000E+00 0.  1.
         21   -1    0    0  501  503 -0.00000000000E+00 -0.00000000000E+00 -0.88826981166E+02  0.88826981166E+02  0.00000000000E+00 0.  1.
          6    2    1    2  501    0 -0.38790605996E+02 -0.90556159458E+00  0.10660309688E+03  0.20599257892E+03  0.17193949852E+03 0.  0.
         24    2    3    3    0    0 -0.91505643440E+02 -0.87806916619E+01  0.64063447349E+02  0.13763612620E+03  0.79932437856E+02 0.  0.
         -6    2    1    2    0  502  0.38790605996E+02  0.90556159458E+00  0.15957291211E+03  0.23783739240E+03  0.17203947160E+03 0.  0.
        -24    2    5    5    0    0  0.11634157112E+02  0.67064829178E+02  0.93125643233E+02  0.14010382117E+03  0.79521383010E+02 0.  0.
          5    1    3    3  501    0  0.52715037444E+02  0.78751300673E+01  0.42539649528E+02  0.68356452719E+02  0.47000000000E+01 0. -1.
        -11    1    4    4    0    0 -0.51721369321E+02 -0.36100148197E+02  0.63312855075E+02  0.89369113020E+02  0.00000000000E+00 0.  1.
         12    1    4    4    0    0 -0.39784274119E+02  0.27319456535E+02  0.75059227414E+00  0.48267013180E+02  0.00000000000E+00 0. -1.
         -5    1    5    5    0  502  0.27156448884E+02 -0.66159267584E+02  0.66447268875E+02  0.97733571224E+02  0.47000000000E+01 0.  1.
         13    1    6    6    0    0  0.16002357980E+02  0.26644882700E+02  0.94444329817E+02  0.99427142519E+02  0.00000000000E+00 0. -1.
        -14    1    6    6    0    0 -0.43682008672E+01  0.40419946478E+02 -0.13186865840E+01  0.40676678655E+02  0.00000000000E+00 0.  1.
</event>
<event>
12    1  0.8562501E-002  0.1813671E+03  0.7818608E-02  0.1166493E+00
         21   -1    0    0  503  502  0.00000000000E+00  0.00000000000E+00  0.16850822577E+03  0.16850822577E+03  0.00000000000E+00 0. -1.
         21   -1    0    0  501  503 -0.00000000000E+00 -0.00000000000E+00 -0.19633537919E+03  0.19633537919E+03  0.00000000000E+00 0. -1.
          6    2    1    2  501    0  0.15226387672E+02  0.54820886380E+02 -0.27929829347E+02  0.18347651138E+03  0.17218124868E+03 0.  0.
         24    2    3    3    0    0  0.84549521857E+01 -0.32220585979E+02 -0.40664537338E+02  0.95123056233E+02  0.79278867632E+02 0.  0.
         -6    2    1    2    0  502 -0.15226387672E+02 -0.54820886380E+02  0.10267592001E+00  0.18136709358E+03  0.17221161293E+03 0.  0.
        -24    2    5    5    0    0  0.34363836167E+02 -0.55807196330E+02 -0.40827883729E+02  0.11688792004E+03  0.87752796892E+02 0.  0.
          5    1    3    3  501    0  0.67714354865E+01  0.87041472359E+02  0.12734707990E+02  0.88353455148E+02  0.47000000000E+01 0. -1.
        -13    1    4    4    0    0  0.25741365367E+02 -0.61618490514E+01  0.15620789230E+02  0.30734269649E+02  0.00000000000E+00 0.  1.
         14    1    4    4    0    0 -0.17286413181E+02 -0.26058736927E+02 -0.56285326568E+02  0.64388786584E+02  0.00000000000E+00 0. -1.
         -5    1    5    5    0  502 -0.49590223840E+02  0.98630994978E+00  0.40930559649E+02  0.64479173544E+02  0.47000000000E+01 0.  1.
         13    1    6    6    0    0  0.51506174535E+02 -0.14713055335E+02  0.39860789285E+01  0.53714512357E+02  0.00000000000E+00 0. -1.
        -14    1    6    6    0    0 -0.17142338367E+02 -0.41094140995E+02 -0.44813962658E+02  0.63173407680E+02  0.00000000000E+00 0.  1.
</event>
<event>
12    1  0.8562501E-002  0.1959899E+03  0.7818608E-02  0.1153253E+00
         21   -1    0    0  501  502  0.00000000000E+00  0.00000000000E+00  0.57174846034E+02  0.57174846034E+02  0.00000000000E+00 0. -1.
         21   -1    0    0  502  503 -0.00000000000E+00 -0.00000000000E+00 -0.10354627645E+04  0.10354627645E+04  0.00000000000E+00 0. -1.
         -6    2    1    2    0  503 -0.66352704201E+02  0.65203029986E+02 -0.81381360211E+03  0.83708100244E+03  0.17250480918E+03 0.  0.
        -24    2    3    3    0    0 -0.65658778476E+02  0.10339195211E+03 -0.73610118946E+03  0.75036200576E+03  0.78722345019E+02 0.  0.
          6    2    1    2  501    0  0.66352704201E+02 -0.65203029986E+02 -0.16447431635E+03  0.25555660809E+03  0.17205598718E+03 0.  0.
         24    2    5    5    0    0  0.97256742656E+02 -0.11384123745E+02 -0.14880379410E+03  0.19137569559E+03  0.69954381263E+02 0.  0.
          5    1    5    5  501    0 -0.30904038455E+02 -0.53818906241E+02 -0.15670522247E+02  0.64180912500E+02  0.47000000000E+01 0. -1.
        -11    1    6    6    0    0 -0.79170093314E+00  0.13271358787E+02 -0.43110905823E+02  0.45114365287E+02  0.00000000000E+00 0.  1.
         12    1    6    6    0    0  0.98048443589E+02 -0.24655482532E+02 -0.10569288828E+03  0.14626133030E+03  0.00000000000E+00 0. -1.
         -5    1    3    3    0  503 -0.69392572540E+00 -0.38188922121E+02 -0.77712412650E+02  0.86718996682E+02  0.47000000000E+01 0.  1.
         11    1    4    4    0    0 -0.75291332106E+02  0.55264384506E+02 -0.40411874142E+03  0.41477089344E+03  0.00000000000E+00 0. -1.
        -12    1    4    4    0    0  0.96325536306E+01  0.48127567601E+02 -0.33198244805E+03  0.33559111231E+03  0.00000000000E+00 0.  1.
</event>
<event>
12    1  0.8562501E-002  0.1887053E+03  0.7818608E-02  0.1159906E+00
         21   -1    0    0  503  502  0.00000000000E+00  0.00000000000E+00  0.36411758247E+02  0.36411758247E+02  0.00000000000E+00 0. -1.
         21   -1    0    0  501  503 -0.00000000000E+00 -0.00000000000E+00 -0.97557095253E+03  0.97557095253E+03  0.00000000000E+00 0. -1.
          6    2    1    2  501    0  0.49974662008E+02  0.55877377198E+02 -0.49952661101E+03  0.53356187671E+03  0.17187697066E+03 0.  0.
         24    2    3    3    0    0 -0.31087009180E+02  0.53705415236E+02 -0.22775584394E+03  0.24991217763E+03  0.82053021344E+02 0.  0.
         -6    2    1    2    0  502 -0.49974662008E+02 -0.55877377198E+02 -0.43963258327E+03  0.47842083407E+03  0.17317603204E+03 0.  0.
        -24    2    5    5    0    0 -0.33662717559E+02 -0.10972386493E+02 -0.41605352145E+03  0.42493625799E+03  0.78846171930E+02 0.  0.
          5    1    3    3  501    0  0.81061671188E+02  0.21719619619E+01 -0.27177076707E+03  0.28364969908E+03  0.47000000000E+01 0. -1.
        -13    1    4    4    0    0 -0.28564365146E+02  0.37535211902E+02 -0.22870557103E+03  0.23351885001E+03  0.00000000000E+00 0.  1.
         14    1    4    4    0    0 -0.25226440337E+01  0.16170203335E+02  0.94972709145E+00  0.16393327617E+02  0.00000000000E+00 0. -1.
         -5    1    5    5    0  502 -0.16311944449E+02 -0.44904990705E+02 -0.23579061828E+02  0.53484576082E+02  0.47000000000E+01 0.  1.
         13    1    6    6    0    0 -0.20287524326E+02 -0.25231511997E+02 -0.58604355766E+02  0.66952844269E+02  0.00000000000E+00 0. -1.
        -14    1    6    6    0    0 -0.13375193233E+02  0.14259125504E+02 -0.35744916568E+03  0.35798341372E+03  0.00000000000E+00 0.  1.
</event>
<event>
12    1  0.8562501E-002  0.2163105E+03  0.7818608E-02  0.1137205E+00
         21   -1    0    0  501  502  0.00000000000E+00  0.00000000000E+00  0.22596788898E+03  0.22596788898E+03  0.00000000000E+00 0.  1.
         21   -1    0    0  502  503 -0.00000000000E+00 -0.00000000000E+00 -0.21828327360E+03  0.21828327360E+03  0.00000000000E+00 0. -1.
         -6    2    1    2    0  503 -0.12707730738E+03 -0.72032769826E+01 -0.52201222577E+02  0.22252008990E+03  0.17489909525E+03 0.  0.
        -24    2    3    3    0    0 -0.10715807581E+03 -0.38951665360E+02 -0.92277452950E+02  0.16744804443E+03  0.80769015196E+02 0.  0.
          6    2    1    2  501    0  0.12707730738E+03  0.72032769826E+01  0.59885837957E+02  0.22173107269E+03  0.17139960840E+03 0.  0.
         24    2    5    5    0    0  0.48240319005E+02 -0.47352189192E+02  0.64741788494E+02  0.12562051198E+03  0.83783385303E+02 0.  0.
          5    1    5    5  501    0  0.78836988373E+02  0.54555466175E+02 -0.48559505369E+01  0.96110560715E+02  0.47000000000E+01 0. -1.
        -13    1    6    6    0    0 -0.18581738461E+02 -0.34806341717E+02  0.20054656561E+02  0.44260046066E+02  0.00000000000E+00 0.  1.
         14    1    6    6    0    0  0.66822057465E+02 -0.12545847475E+02  0.44687131933E+02  0.81360465911E+02  0.00000000000E+00 0. -1.
         -5    1    3    3    0  503 -0.19919231568E+02  0.31748388377E+02  0.40076230373E+02  0.55072045465E+02  0.47000000000E+01 0.  1.
         13    1    4    4    0    0 -0.74495620492E+02 -0.52433381857E+02 -0.30119049975E+02  0.95947976408E+02  0.00000000000E+00 0. -1.
        -14    1    4    4    0    0 -0.32662455318E+02  0.13481716497E+02 -0.62158402975E+02  0.71500068024E+02  0.00000000000E+00 0.  1.
</event>
<event>
12    1  0.8562501E-002  0.2204293E+03  0.7818608E-02  0.1133794E+00
         21   -1    0    0  501  502  0.00000000000E+00  0.00000000000E+00  0.62589891045E+03  0.62589891045E+03  0.00000000000E+00 0. -1.
         21   -1    0    0  502  503 -0.00000000000E+00 -0.00000000000E+00 -0.20145214639E+03  0.20145214639E+03  0.00000000000E+00 0.  1.
         -6    2    1    2    0  503 -0.13477975562E+03 -0.28372103647E+02 -0.11243467584E+03  0.24744824830E+03  0.17210032094E+03 0.  0.
        -24    2    3    3    0    0 -0.49125451058E+02 -0.78674180032E+01  0.12550266393E+02  0.94476264567E+02  0.79328741149E+02 0.  0.
          6    2    1    2  501    0  0.13477975562E+03  0.28372103647E+02  0.53688143991E+03  0.57990280854E+03  0.17051401128E+03 0.  0.
         24    2    5    5    0    0  0.55830088657E+02 -0.47825950837E+02  0.29569841530E+03  0.31489236576E+03  0.79469043232E+02 0.  0.
          5    1    5    5  501    0  0.78949666959E+02  0.76198054485E+02  0.24118302461E+03  0.26501044277E+03  0.47000000000E+01 0. -1.
        -13    1    6    6    0    0  0.20442732511E+02 -0.28222783639E+02  0.29560603605E+02  0.45697484770E+02  0.00000000000E+00 0.  1.
         14    1    6    6    0    0  0.35387356146E+02 -0.19603167199E+02  0.26613781169E+03  0.26919488099E+03  0.00000000000E+00 0. -1.
         -5    1    3    3    0  503 -0.85654304557E+02 -0.20504685644E+02 -0.12498494223E+03  0.15297198373E+03  0.47000000000E+01 0.  1.
         11    1    4    4    0    0  0.92201479844E+00 -0.92774016179E+01  0.37425994529E+02  0.38569746675E+02  0.00000000000E+00 0. -1.
        -12    1    4    4    0    0 -0.50047465856E+02  0.14099836147E+01 -0.24875728137E+02  0.55906517892E+02  0.00000000000E+00 0.  1.
</event>
<event>
12    1  0.8562501E-002  0.2754670E+03  0.7818608E-02  0.1098338E+00
         21   -1    0    0  503  502  0.00000000000E+00  0.00000000000E+00  0.81721733995E+02  0.81721733995E+02  0.00000000000E+00 0. -1.
         21   -1    0    0  501  503 -0.00000000000E+00 -0.00000000000E+00 -0.11052366874E+04  0.11052366874E+04  0.00000000000E+00 0. -1.
          6    2    1    2  501    0 -0.20051037678E+02 -0.21386915641E+03 -0.75060704073E+03  0.79919460330E+03  0.17076013639E+03 0.  0.
         24    2    3    3    0    0 -0.49498599112E+02 -0.22391254280E+03 -0.67088179949E+03  0.71348443719E+03  0.79941948235E+02 0.  0.
         -6    2    1    2    0  502  0.20051037678E+02  0.21386915641E+03 -0.27290791265E+03  0.38776381807E+03  0.17245286208E+03 0.  0.
        -24    2    5    5    0    0 -0.46480879713E+02  0.12596214131E+03 -0.20619990927E+03  0.25882124539E+03  0.80268930834E+02 0.  0.
          5    1    3    3  501    0  0.29447561433E+02  0.10043386390E+02 -0.79725241239E+02  0.85710166113E+02  0.47000000000E+01 0. -1.
        -13    1    4    4    0    0 -0.28820055675E+02 -0.46650073711E+02 -0.25667404958E+03  0.26246598392E+03  0.00000000000E+00 0.  1.
         14    1    4    4    0    0 -0.20678543437E+02 -0.17726246909E+03 -0.41420774991E+03  0.45101845327E+03  0.00000000000E+00 0. -1.
         -5    1    5    5    0  502  0.66531917391E+02  0.87907015097E+02 -0.66708003378E+02  0.12894257268E+03  0.47000000000E+01 0.  1.
         11    1    6    6    0    0  0.18246590091E+02  0.63643176609E+01 -0.37027007692E+02  0.41766516348E+02  0.00000000000E+00 0. -1.
        -12    1    6    6    0    0 -0.64727469804E+02  0.11959782365E+03 -0.16917290158E+03  0.21705472904E+03  0.00000000000E+00 0.  1.
</event>
<event>
12    1  0.8562501E-002  0.1761714E+03  0.7818608E-02  0.1171569E+00
         21   -1    0    0  501  502  0.00000000000E+00  0.00000000000E+00  0.51470225643E+03  0.51470225643E+03  0.00000000000E+00 0. -1.
         21   -1    0    0  502  503 -0.00000000000E+00 -0.00000000000E+00 -0.81558438994E+02  0.81558438994E+02  0.00000000000E+00 0. -1.
         -6    2    1    2    0  503  0.31875718208E+02 -0.17865922492E+02  0.64308639118E+02  0.18751167016E+03  0.17230720467E+03 0.  0.
        -24    2    3    3    0    0  0.69004192703E+02  0.26266361447E+02  0.16479016058E+02  0.11243873931E+03  0.83183001705E+02 0.  0.
          6    2    1    2  501    0 -0.31875718208E+02  0.17865922492E+02  0.36883517832E+03  0.40874902527E+03  0.17234014127E+03 0.  0.
         24    2    5    5    0    0 -0.49070109422E+02  0.72430637032E+02  0.23795830232E+03  0.26583715790E+03  0.79944781319E+02 0.  0.
          5    1    5    5  501    0  0.17194391214E+02 -0.54564714540E+02  0.13087687600E+03  0.14291186737E+03  0.47000000000E+01 0. -1.
        -11    1    6    6    0    0  0.86133451738E+01  0.39778044477E+02  0.15162933492E+03  0.15699661699E+03  0.00000000000E+00 0.  1.
         12    1    6    6    0    0 -0.57683454596E+02  0.32652592555E+02  0.86328967402E+02  0.10884054092E+03  0.00000000000E+00 0. -1.
         -5    1    3    3    0  503 -0.37128474495E+02 -0.44132283939E+02  0.47829623060E+02  0.75072930848E+02  0.47000000000E+01 0.  1.
         11    1    4    4    0    0  0.46764235550E+02 -0.23040797768E+02 -0.85657102022E+01  0.52831273690E+02  0.00000000000E+00 0. -1.
        -12    1    4    4    0    0  0.22239957153E+02  0.49307159215E+02  0.25044726261E+02  0.59607465619E+02  0.00000000000E+00 0.  1.
</event>
<event>
12    1  0.8562501E-002  0.1799248E+03  0.7818608E-02  0.1167997E+00
         21   -1    0    0  501  502  0.00000000000E+00  0.00000000000E+00  0.30422331054E+03  0.30422331054E+03  0.00000000000E+00 0.  1.
         21   -1    0    0  502  503 -0.00000000000E+00 -0.00000000000E+00 -0.14639205585E+03  0.14639205585E+03  0.00000000000E+00 0. -1.
         -6    2    1    2    0  503  0.19477018291E+02 -0.45575858826E+02 -0.39343793082E+02  0.18368669161E+03  0.17244231926E+03 0.  0.
        -24    2    3    3    0    0  0.12364267541E+02 -0.12603050705E+02  0.43886401476E+02  0.93758094460E+02  0.80949688346E+02 0.  0.
          6    2    1    2  501    0 -0.19477018291E+02  0.45575858826E+02  0.19717504777E+03  0.26692867479E+03  0.17296359389E+03 0.  0.
         24    2    5    5    0    0 -0.52566476736E+02  0.85894186199E+02  0.14172470959E+03  0.19065738408E+03  0.78251511781E+02 0.  0.
          5    1    5    5  501    0  0.33089458445E+02 -0.40318327373E+02  0.55450338178E+02  0.76271290709E+02  0.47000000000E+01 0. -1.
        -11    1    6    6    0    0 -0.20330451732E+02  0.83902913051E+02  0.67092031120E+02  0.10933602666E+03  0.00000000000E+00 0.  1.
         12    1    6    6    0    0 -0.32236025004E+02  0.19912731479E+01  0.74632678467E+02  0.81321357416E+02  0.00000000000E+00 0. -1.
         -5    1    3    3    0  503  0.71127507507E+01 -0.32972808120E+02 -0.83230194558E+02  0.89928597147E+02  0.47000000000E+01 0.  1.
         13    1    4    4    0    0  0.16009713393E+01 -0.23001435587E+02 -0.18525205715E+02  0.29577227643E+02  0.00000000000E+00 0. -1.
        -14    1    4    4    0    0  0.10763296201E+02  0.10398384882E+02  0.62411607191E+02  0.64180866817E+02  0.00000000000E+00 0.  1.
</event>
<event>
12    1  0.8562501E-002  0.2259906E+03  0.7818608E-02  0.1129787E+00
         21   -1    0    0  503  502  0.00000000000E+00  0.00000000000E+00  0.28094350728E+03  0.28094350728E+03  0.00000000000E+00 0. -1.
         21   -1    0    0  501  503 -0.00000000000E+00 -0.00000000000E+00 -0.18592193320E+03  0.18592193320E+03  0.00000000000E+00 0.  1.
          6    2    1    2  501    0  0.73597517598E+02 -0.12615776226E+03  0.77624537271E+01  0.22612385875E+03  0.17245106041E+03 0.  0.
         24    2    3    3    0    0  0.59821116992E+02 -0.75686940957E+02 -0.61061271880E+02  0.13954506098E+03  0.80232574756E+02 0.  0.
         -6    2    1    2    0  502 -0.73597517598E+02  0.12615776226E+03  0.87259120361E+02  0.24074158173E+03  0.17032316199E+03 0.  0.
        -24    2    5    5    0    0 -0.75096506548E+01  0.83958106750E+02  0.10708007788E+03  0.15972690751E+03  0.83313764537E+02 0.  0.
          5    1    3    3  501    0  0.13776400607E+02 -0.50470821299E+02  0.68823725608E+02  0.86578797767E+02  0.47000000000E+01 0. -1.
        -13    1    4    4    0    0  0.78537745114E+02 -0.48591201055E+02 -0.48354335026E+02  0.10424693733E+03  0.00000000000E+00 0.  1.
         14    1    4    4    0    0 -0.18716628122E+02 -0.27095739902E+02 -0.12706936855E+02  0.35298123652E+02  0.00000000000E+00 0. -1.
         -5    1    5    5    0  502 -0.66087866944E+02  0.42199655506E+02 -0.19820957517E+02  0.81014674219E+02  0.47000000000E+01 0.  1.
         11    1    6    6    0    0 -0.39427319318E+02  0.52713866190E+02  0.90877752870E+02  0.11221421997E+03  0.00000000000E+00 0. -1.
        -12    1    6    6    0    0  0.31917668664E+02  0.31244240560E+02  0.16202325009E+02  0.47512687535E+02  0.00000000000E+00 0.  1.
</event>
<event>
12    1  0.8562501E-002  0.1846148E+03  0.7818608E-02  0.1163538E+00
         21   -1    0    0  501  502  0.00000000000E+00  0.00000000000E+00  0.98127365217E+02  0.98127365217E+02  0.00000000000E+00 0.  1.
         21   -1    0    0  502  503 -0.00000000000E+00 -0.00000000000E+00 -0.35310572837E+03  0.35310572837E+03  0.00000000000E+00 0.  1.
         -6    2    1    2    0  503 -0.61682639479E+01 -0.67404838251E+02 -0.96355700395E+02  0.20824756326E+03  0.17175903734E+03 0.  0.
        -24    2    3    3    0    0  0.15253828149E+02 -0.10853440140E+03 -0.91828551114E+02  0.16141667521E+03  0.74903035154E+02 0.  0.
          6    2    1    2  501    0  0.61682639479E+01  0.67404838251E+02 -0.15862266276E+03  0.24298553032E+03  0.17117055561E+03 0.  0.
         24    2    5    5    0    0 -0.45826648278E+02  0.75758196286E+02 -0.79844301953E+02  0.14810998227E+03  0.87875299692E+02 0.  0.
          5    1    5    5  501    0  0.51994912226E+02 -0.83533580347E+01 -0.78778360806E+02  0.94875548057E+02  0.47000000000E+01 0. -1.
        -13    1    6    6    0    0 -0.35472802811E+02  0.54507567070E+02 -0.98475260721E+02  0.11801174340E+03  0.00000000000E+00 0.  1.
         14    1    6    6    0    0 -0.10353845466E+02  0.21250629216E+02  0.18630958769E+02  0.30098238863E+02  0.00000000000E+00 0. -1.
         -5    1    3    3    0  503 -0.21422092097E+02  0.41129563154E+02 -0.45271492804E+01  0.46830888051E+02  0.47000000000E+01 0.  1.
         11    1    4    4    0    0 -0.12186625734E+02 -0.26041377652E+01 -0.36960225250E+02  0.39004533465E+02  0.00000000000E+00 0. -1.
        -12    1    4    4    0    0  0.27440453883E+02 -0.10593026364E+03 -0.54868325864E+02  0.12241214175E+03  0.00000000000E+00 0.  1.
</event>
<event>
12    1  0.8562501E-002  0.1833507E+03  0.7818608E-02  0.1164643E+00
         21   -1    0    0  503  502  0.00000000000E+00  0.00000000000E+00  0.28967636411E+03  0.28967636411E+03  0.00000000000E+00 0. -1.
         21   -1    0    0  501  503 -0.00000000000E+00 -0.00000000000E+00 -0.11685254082E+03  0.11685254082E+03  0.00000000000E+00 0. -1.
          6    2    1    2  501    0  0.63859638997E+02  0.62860554997E+01  0.68424951698E+02  0.19570245324E+03  0.17175537314E+03 0.  0.
         24    2    3    3    0    0  0.79869223551E+02  0.44175436296E+02  0.88715058696E+02  0.14959724294E+03  0.78602871542E+02 0.  0.
         -6    2    1    2    0  502 -0.63859638997E+02 -0.62860554997E+01  0.10439887159E+03  0.21082645169E+03  0.17155494850E+03 0.  0.
        -24    2    5    5    0    0  0.15767608974E+02 -0.44854766205E+02  0.63509898561E+02  0.11324549975E+03  0.80811313903E+02 0.  0.
          5    1    3    3  501    0 -0.16009584554E+02 -0.37889380796E+02 -0.20290106998E+02  0.46105210299E+02  0.47000000000E+01 0. -1.
        -13    1    4    4    0    0  0.23009858718E+02  0.57361831647E+02  0.50715258227E+02  0.79949176013E+02  0.00000000000E+00 0.  1.
         14    1    4    4    0    0  0.56859364833E+02 -0.13186395351E+02  0.37999800469E+02  0.69648066931E+02  0.00000000000E+00 0. -1.
         -5    1    5    5    0  502 -0.79627247971E+02  0.38568710706E+02  0.40888973030E+02  0.97580951934E+02  0.47000000000E+01 0.  1.
         13    1    6    6    0    0 -0.26116540862E+02 -0.17411246428E+02  0.53727993625E+02  0.62224774067E+02  0.00000000000E+00 0. -1.
        -14    1    6    6    0    0  0.41884149836E+02 -0.27443519777E+02  0.97819049368E+01  0.51020725685E+02  0.00000000000E+00 0.  1.
</event>
<event>
12    1  0.8562501E-002  0.1992761E+03  0.7818608E-02  0.1150637E+00
         21   -1    0    0  501  502  0.00000000000E+00  0.00000000000E+00  0.92255049781E+02  0.92255049781E+02  0.00000000000E+00 0. -1.
         21   -1    0    0  502  503 -0.00000000000E+00 -0.00000000000E+00 -0.49626186410E+03  0.49626186410E+03  0.00000000000E+00 0. -1.
         -6    2    1    2    0  503  0.81489598704E+02  0.55251691933E+02 -0.31208886314E+03  0.37028425342E+03  0.17325606966E+03 0.  0.
        -24    2    3    3    0    0  0.88822321531E+02  0.98913625618E+02 -0.23584471651E+03  0.28199272963E+03  0.78891438855E+02 0.  0.
          6    2    1    2  501    0 -0.81489598704E+02 -0.55251691933E+02 -0.91917951174E+02  0.21823266046E+03  0.17170696021E+03 0.  0.
         24    2    5    5    0    0  0.59131409890E+01 -0.26184405852E+02 -0.94337322294E+02  0.12597167530E+03  0.79048999070E+02 0.  0.
          5    1    5    5  501    0 -0.87402739693E+02 -0.29067286080E+02  0.24193711193E+01  0.92260985159E+02  0.47000000000E+01 0. -1.
        -13    1    6    6    0    0 -0.25481160698E+02 -0.59515238064E+01 -0.82867734736E+02  0.86900930066E+02  0.00000000000E+00 0.  1.
         14    1    6    6    0    0  0.31394301687E+02 -0.20232882046E+02 -0.11469587558E+02  0.39070745232E+02  0.00000000000E+00 0. -1.
         -5    1    3    3    0  503 -0.73327228271E+01 -0.43661933685E+02 -0.76244146638E+02  0.88291523793E+02  0.47000000000E+01 0.  1.
         13    1    4    4    0    0  0.99376090600E+02  0.81069725403E+02 -0.22400059423E+03  0.25811658989E+03  0.00000000000E+00 0. -1.
        -14    1    4    4    0    0 -0.10553769068E+02  0.17843900215E+02 -0.11844122275E+02  0.23876139741E+02  0.00000000000E+00 0.  1.
</event>
<event>
12    1  0.8562501E-002  0.1744341E+03  0.7818608E-02  0.1174158E+00
         21   -1    0    0  503  502  0.00000000000E+00  0.00000000000E+00  0.77676739367E+02  0.77676739367E+02  0.00000000000E+00 0. -1.
         21   -1    0    0  501  503 -0.00000000000E+00 -0.00000000000E+00 -0.89225627878E+03  0.89225627878E+03  0.00000000000E+00 0. -1.
          6    2    1    2  501    0  0.21430268176E+02 -0.94385526381E+01 -0.77152667819E+03  0.79026445032E+03  0.16945838314E+03 0.  0.
         24    2    3    3    0    0  0.33062450102E+02 -0.21581273853E+02 -0.20172959404E+03  0.22019992727E+03  0.78957595399E+02 0.  0.
         -6    2    1    2    0  502 -0.21430268176E+02  0.94385526381E+01 -0.43052861224E+02  0.17966856782E+03  0.17285514958E+03 0.  0.
        -24    2    5    5    0    0 -0.77151405870E+02  0.20440701109E+02 -0.91636036894E+01  0.11336272922E+03  0.79981091853E+02 0.  0.
          5    1    3    3  501    0 -0.11632181926E+02  0.12142721215E+02 -0.56979708415E+03  0.57006452305E+03  0.47000000000E+01 0. -1.
        -13    1    4    4    0    0  0.55059066753E+02 -0.13838483245E+02 -0.92687116618E+02  0.10869179379E+03  0.00000000000E+00 0.  1.
         14    1    4    4    0    0 -0.21996616650E+02 -0.77427906080E+01 -0.10904247742E+03  0.11150813348E+03  0.00000000000E+00 0. -1.
         -5    1    5    5    0  502  0.55721137694E+02 -0.11002148471E+02 -0.33889257535E+02  0.66305838605E+02  0.47000000000E+01 0.  1.
         13    1    6    6    0    0 -0.76512884323E+02 -0.11412236683E+02 -0.19660817013E+02  0.79818596450E+02  0.00000000000E+00 0. -1.
        -14    1    6    6    0    0 -0.63852154654E+00  0.31852937792E+02  0.10497213324E+02  0.33544132770E+02  0.00000000000E+00 0.  1.
</event>
<event>
12    1  0.8562501E-002  0.2357850E+03  0.7818608E-02  0.1123042E+00
         21   -1    0    0  503  502  0.00000000000E+00  0.00000000000E+00  0.79238090682E+03  0.79238090682E+03  0.00000000000E+00 0.  1.
         21   -1    0    0  501  503 -0.00000000000E+00 -0.00000000000E+00 -0.11417272070E+03  0.11417272070E+03  0.00000000000E+00 0.  1.
          6    2    1    2  501    0 -0.59323910568E+02  0.14836544643E+03  0.54376352151E+02  0.23964980202E+03  0.17012821012E+03 0.  0.
         24    2    3    3    0    0 -0.70400127056E+01  0.19182193891E+02  0.50358998277E+02  0.10015016818E+03  0.84121989617E+02 0.  0.
         -6    2    1    2    0  502  0.59323910568E+02 -0.14836544643E+03  0.62383183397E+03  0.66690382550E+03  0.17338662963E+03 0.  0.
        -24    2    5    5    0    0  0.82107949000E+02 -0.47295507456E+02  0.42448475605E+03  0.44219158185E+03  0.79796657987E+02 0.  0.
          5    1    3    3  501    0 -0.52283897862E+02  0.12918325253E+03  0.40173538739E+01  0.13949963385E+03  0.47000000000E+01 0. -1.
        -11    1    4    4    0    0  0.39497119795E+01  0.26982027458E+02 -0.16549148272E+02  0.31898343828E+02  0.00000000000E+00 0.  1.
         12    1    4    4    0    0 -0.10989724685E+02 -0.77998335672E+01  0.66908146549E+02  0.68251824349E+02  0.00000000000E+00 0. -1.
         -5    1    5    5    0  502 -0.22784038433E+02 -0.10106993897E+03  0.19934707792E+03  0.22471224365E+03  0.47000000000E+01 0.  1.
         13    1    6    6    0    0  0.57492536087E+02 -0.53841464643E+02  0.18123336875E+03  0.19761029570E+03  0.00000000000E+00 0. -1.
        -14    1    6    6    0    0  0.24615412914E+02  0.65459571875E+01  0.24325138730E+03  0.24458128615E+03  0.00000000000E+00 0.  1.
</event>
<event>
12    1  0.8562501E-002  0.2129056E+03  0.7818608E-02  0.1139386E+00
         21   -1    0    0  501  502  0.00000000000E+00  0.00000000000E+00  0.14722803220E+03  0.14722803220E+03  0.00000000000E+00 0.  1.
         21   -1    0    0  502  503 -0.00000000000E+00 -0.00000000000E+00 -0.27219999356E+04  0.27219999356E+04  0.00000000000E+00 0.  1.
         -6    2    1    2    0  503 -0.11089562220E+03  0.58264203520E+02 -0.26384646570E+04  0.26469993095E+04  0.17151396984E+03 0.  0.
        -24    2    3    3    0    0 -0.66845838467E+02  0.66403177808E+02 -0.94712410349E+03  0.95505912608E+03  0.78842366467E+02 0.  0.
          6    2    1    2  501    0  0.11089562220E+03 -0.58264203520E+02  0.63692753553E+02  0.22222865833E+03  0.17215183210E+03 0.  0.
         24    2    5    5    0    0  0.43186417515E+02  0.18438493639E+02  0.75423871898E+02  0.11913865257E+03  0.79373883482E+02 0.  0.
          5    1    5    5  501    0  0.67709204682E+02 -0.76702697159E+02 -0.11731118345E+02  0.10309000576E+03  0.47000000000E+01 0. -1.
        -11    1    6    6    0    0 -0.21740717401E+02 -0.57106989383E+01  0.23866938121E+02  0.32785692165E+02  0.00000000000E+00 0.  1.
         12    1    6    6    0    0  0.64927134916E+02  0.24149192577E+02  0.51556933777E+02  0.86352960406E+02  0.00000000000E+00 0. -1.
         -5    1    3    3    0  503 -0.44049783730E+02 -0.81389742878E+01 -0.16913405535E+04  0.16919401834E+04  0.47000000000E+01 0.  1.
         11    1    4    4    0    0 -0.24552774639E+02  0.64100380277E+02 -0.76505819575E+03  0.76813133016E+03  0.00000000000E+00 0. -1.
        -12    1    4    4    0    0 -0.42293063828E+02  0.23027975307E+01 -0.18206590774E+03  0.18692779591E+03  0.00000000000E+00 0.  1.
</event>
<event>
12    1  0.8562501E-002  0.2222903E+03  0.7818608E-02  0.1132266E+00
         21   -1    0    0  501  502  0.00000000000E+00  0.00000000000E+00  0.10126532095E+03  0.10126532095E+03  0.00000000000E+00 0.  1.
         21   -1    0    0  502  503 -0.00000000000E+00 -0.00000000000E+00 -0.97413535435E+03  0.97413535435E+03  0.00000000000E+00 0. -1.
         -6    2    1    2    0  503 -0.17297220093E+02  0.13917879269E+03 -0.81687776995E+03  0.84658269821E+03  0.17246171665E+03 0.  0.
        -24    2    3    3    0    0  0.12683855208E+02  0.97662578713E+02 -0.75725590877E+03  0.76784695519E+03  0.80334150624E+02 0.  0.
          6    2    1    2  501    0  0.17297220093E+02 -0.13917879269E+03 -0.55992263444E+02  0.22881797708E+03  0.17190870517E+03 0.  0.
         24    2    5    5    0    0 -0.27760758617E+02 -0.16859634522E+02  0.82367599840E+01  0.83423151347E+02  0.76398108422E+02 0.  0.
          5    1    5    5  501    0  0.45057978710E+02 -0.12231915817E+03 -0.64229023428E+02  0.14539482573E+03  0.47000000000E+01 0. -1.
        -13    1    6    6    0    0 -0.29281593856E+02 -0.43433089619E+02  0.17519668517E+02  0.55233900799E+02  0.00000000000E+00 0.  1.
         14    1    6    6    0    0  0.15208352387E+01  0.26573455097E+02 -0.92829085331E+01  0.28189250547E+02  0.00000000000E+00 0. -1.
         -5    1    3    3    0  503 -0.29981075301E+02  0.41516213975E+02 -0.59621861183E+02  0.78735743026E+02  0.47000000000E+01 0.  1.
         11    1    4    4    0    0 -0.12760523328E+02  0.86802040940E+01 -0.34437281002E+03  0.34471844914E+03  0.00000000000E+00 0. -1.
        -12    1    4    4    0    0  0.25444378536E+02  0.88982374619E+02 -0.41288309875E+03  0.42312850604E+03  0.00000000000E+00 0.  1.
</event>
<event>
12    1  0.8562501E-002  0.2026429E+03  0.7818608E-02  0.1147580E+00
         21   -1    0    0  503  502  0.00000000000E+00  0.00000000000E+00  0.13839972448E+02  0.13839972448E+02  0.00000000000E+00 0. -1.
         21   -1    0    0  501  503 -0.00000000000E+00 -0.00000000000E+00 -0.31895115976E+04  0.31895115976E+04  0.00000000000E+00 0.  1.
          6    2    1    2  501    0 -0.48374352675E+02  0.93915122773E+02 -0.11622896637E+04  0.11798226118E+04  0.17292774414E+03 0.  0.
         24    2    3    3    0    0 -0.68991014746E+02 -0.61641641513E+00 -0.53589306444E+03  0.54598032209E+03  0.78441032088E+02 0.  0.
         -6    2    1    2    0  502  0.48374352675E+02 -0.93915122773E+02 -0.20133819615E+04  0.20235289582E+04  0.17263369856E+03 0.  0.
        -24    2    5    5    0    0  0.15080316296E+02 -0.63271528806E+02 -0.58017955107E+03  0.58960470577E+03  0.82429941714E+02 0.  0.
          5    1    3    3  501    0  0.20616662071E+02  0.94531539188E+02 -0.62639659922E+03  0.63384228967E+03  0.47000000000E+01 0. -1.
        -13    1    4    4    0    0 -0.75561775051E+02  0.22903871291E+02 -0.43989117039E+03  0.44692103436E+03  0.00000000000E+00 0.  1.
         14    1    4    4    0    0  0.65707603048E+01 -0.23520287706E+02 -0.96001894048E+02  0.99059287730E+02  0.00000000000E+00 0. -1.
         -5    1    5    5    0  502  0.33294036379E+02 -0.30643593967E+02 -0.14332024104E+04  0.14339242525E+04  0.47000000000E+01 0.  1.
         11    1    6    6    0    0 -0.13145619926E+01 -0.80549182721E+02 -0.41892265852E+03  0.42659828028E+03  0.00000000000E+00 0. -1.
        -12    1    6    6    0    0  0.16394878289E+02  0.17277653915E+02 -0.16125689255E+03  0.16300642549E+03  0.00000000000E+00 0.  1.
</event>
<event>
12    1  0.8562501E-002  0.2349323E+03  0.7818608E-02  0.1123246E+00
         21   -1    0    0  503  502  0.00000000000E+00  0.00000000000E+00  0.18127825202E+03  0.18127825202E+03  0.00000000000E+00 0.  1.
         21   -1    0    0  501  503 -0.00000000000E+00 -0.00000000000E+00 -0.30588054966E+03  0.30588054966E+03  0.00000000000E+00 0.  1.
          6    2    1    2  501    0  0.13807679214E+03 -0.80912313313E+02 -0.80197836705E+02  0.24824361905E+03  0.17199185566E+03 0.  0.
         24    2    3    3    0    0  0.15116989684E+03 -0.27411369955E+02 -0.33644339945E+02  0.17597261248E+03  0.78934769378E+02 0.  0.
         -6    2    1    2    0  502 -0.13807679214E+03  0.80912313313E+02 -0.44404460934E+02  0.23891518264E+03  0.17174604907E+03 0.  0.
        -24    2    5    5    0    0 -0.99848075748E+02  0.65748128878E+02 -0.95914499127E+02  0.17283370807E+03  0.79871426803E+02 0.  0.
          5    1    3    3  501    0 -0.13093104699E+02 -0.53500943358E+02 -0.46553496760E+02  0.72271006575E+02  0.47000000000E+01 0. -1.
        -13    1    4    4    0    0  0.72619895655E+02 -0.15614154977E+01 -0.54357402847E+02  0.90723836491E+02  0.00000000000E+00 0.  1.
         14    1    4    4    0    0  0.78550001188E+02 -0.25849954457E+02  0.20713062902E+02  0.85248775984E+02  0.00000000000E+00 0. -1.
         -5    1    5    5    0  502 -0.38228716396E+02  0.15164184435E+02  0.51510038193E+02  0.66081474571E+02  0.47000000000E+01 0.  1.
         13    1    6    6    0    0 -0.11032571470E+03  0.42878988085E+02 -0.82922679091E+02  0.14452176878E+03  0.00000000000E+00 0. -1.
        -14    1    6    6    0    0  0.10477638948E+02  0.22869140793E+02 -0.12991820037E+02  0.28311939291E+02  0.00000000000E+00 0.  1.
</event>
<event>
12    1  0.8562501E-002  0.2025595E+03  0.7818608E-02  0.1148245E+00
         21   -1    0    0  501  502  0.00000000000E+00  0.00000000000E+00  0.87199608423E+02  0.87199608423E+02  0.00000000000E+00 0. -1.
         21   -1    0    0  502  503 -0.00000000000E+00 -0.00000000000E+00 -0.10385700018E+04  0.10385700018E+04  0.00000000000E+00 0. -1.
         -6    2    1    2    0  503 -0.58887787165E+02 -0.87838890390E+02 -0.89621396766E+03  0.91881980339E+03  0.17276259183E+03 0.  0.
        -24    2    3    3    0    0  0.32426336180E+02 -0.57190343228E+02 -0.40490302102E+03  0.41813413468E+03  0.81040085866E+02 0.  0.
          6    2    1    2  501    0  0.58887787165E+02  0.87838890390E+02 -0.55156425694E+02  0.20694980681E+03  0.16912288166E+03 0.  0.
         24    2    5    5    0    0  0.90791063863E+02  0.52807535627E+02  0.21900226786E+01  0.13241310429E+03  0.80602610957E+02 0.  0.
          5    1    5    5  501    0 -0.31903276698E+02  0.35031354762E+02 -0.57346448372E+02  0.74536702513E+02  0.47000000000E+01 0. -1.
        -13    1    6    6    0    0  0.88996558281E+02  0.14106435957E+02 -0.12517126779E+02  0.90972838717E+02  0.00000000000E+00 0.  1.
         14    1    6    6    0    0  0.17945055819E+01  0.38701099670E+02  0.14707149458E+02  0.41440265578E+02  0.00000000000E+00 0. -1.
         -5    1    3    3    0  503 -0.91314123345E+02 -0.30648547162E+02 -0.49131094664E+03  0.50068566871E+03  0.47000000000E+01 0.  1.
         13    1    4    4    0    0  0.49214380356E+02 -0.74954653815E+01 -0.23926529937E+03  0.24438928110E+03  0.00000000000E+00 0. -1.
        -14    1    4    4    0    0 -0.16788044177E+02 -0.49694877846E+02 -0.16563772165E+03  0.17374485358E+03  0.00000000000E+00 0.  1.
</event>
<event>
12    1  0.8562501E-002  0.2428933E+03  0.7818608E-02  0.1117934E+00
         21   -1    0    0  503  502  0.00000000000E+00  0.00000000000E+00  0.13244795480E+03  0.13244795480E+03  0.00000000000E+00 0.  1.
         21   -1    0    0  501  503 -0.00000000000E+00 -0.00000000000E+00 -0.44549091918E+03  0.44549091918E+03  0.00000000000E+00 0.  1.
          6    2    1    2  501    0 -0.15391489384E+03  0.74341778541E+02 -0.16748143249E+03  0.29476875058E+03  0.17211069549E+03 0.  0.
         24    2    3    3    0    0 -0.12224099330E+02  0.24204415416E-01 -0.41240203606E+02  0.90910169828E+02  0.80090420117E+02 0.  0.
         -6    2    1    2    0  502  0.15391489384E+03 -0.74341778541E+02 -0.14556153189E+03  0.28317012340E+03  0.17257075256E+03 0.  0.
        -24    2    5    5    0    0  0.17327865935E+03 -0.94556250138E+02 -0.11801649636E+03  0.24361763601E+03  0.80344762977E+02 0.  0.
          5    1    3    3  501    0 -0.14169079451E+03  0.74317574126E+02 -0.12624122889E+03  0.20385858075E+03  0.47000000000E+01 0. -1.
        -13    1    4    4    0    0 -0.28452050144E+02  0.28283225772E+02 -0.23710435113E+01  0.40188081128E+02  0.00000000000E+00 0.  1.
         14    1    4    4    0    0  0.16227950814E+02 -0.28259021356E+02 -0.38869160095E+02  0.50722088700E+02  0.00000000000E+00 0. -1.
         -5    1    5    5    0  502 -0.19363765504E+02  0.20214471597E+02 -0.27545035529E+02  0.39552487390E+02  0.47000000000E+01 0.  1.
         13    1    6    6    0    0  0.46207957617E+02 -0.55097508438E+02 -0.10750000925E+02  0.72708137805E+02  0.00000000000E+00 0. -1.
        -14    1    6    6    0    0  0.12707070173E+03 -0.39458741700E+02 -0.10726649543E+03  0.17090949821E+03  0.00000000000E+00 0.  1.
</event>
<event>
12    1  0.8562501E-002  0.1819423E+03  0.7818608E-02  0.1166066E+00
         21   -1    0    0  501  502  0.00000000000E+00  0.00000000000E+00  0.21035890161E+03  0.21035890161E+03  0.00000000000E+00 0. -1.
         21   -1    0    0  502  503 -0.00000000000E+00 -0.00000000000E+00 -0.15712563612E+03  0.15712563612E+03  0.00000000000E+00 0. -1.
         -6    2    1    2    0  503  0.53541573861E+02  0.22017388043E+02  0.33695850649E+02  0.18503626256E+03  0.17248635484E+03 0.  0.
        -24    2    3    3    0    0  0.37530785419E+01 -0.48179871772E+02  0.25276433195E+02  0.98436458050E+02  0.81947864865E+02 0.  0.
          6    2    1    2  501    0 -0.53541573861E+02 -0.22017388043E+02  0.19537414839E+02  0.18244827517E+03  0.17191334162E+03 0.  0.
         24    2    5    5    0    0 -0.32867848401E+01  0.35161914241E+02 -0.28033269040E+02  0.92559030018E+02  0.80834068913E+02 0.  0.
          5    1    5    5  501    0 -0.50254789020E+02 -0.57179302284E+02  0.47570683879E+02  0.89889245151E+02  0.47000000000E+01 0. -1.
        -13    1    6    6    0    0  0.33852212353E+02 -0.34644653450E+01 -0.56838486384E+01  0.34500448355E+02  0.00000000000E+00 0.  1.
         14    1    6    6    0    0 -0.37138997193E+02  0.38626379586E+02 -0.22349420402E+02  0.58058581663E+02  0.00000000000E+00 0. -1.
         -5    1    3    3    0  503  0.49788495319E+02  0.70197259814E+02  0.84194174537E+01  0.86599804514E+02  0.47000000000E+01 0.  1.
         11    1    4    4    0    0  0.28585635658E+02 -0.45902300392E+02  0.41949539570E+02  0.68439196499E+02  0.00000000000E+00 0. -1.
        -12    1    4    4    0    0 -0.24832557116E+02 -0.22775713794E+01 -0.16673106375E+02  0.29997261551E+02  0.00000000000E+00 0.  1.
</event>
<event>
12    1  0.8562501E-002  0.1801653E+03  0.7818608E-02  0.1168219E+00
         21   -1    0    0  501  502  0.00000000000E+00  0.00000000000E+00  0.37653450534E+03  0.37653450534E+03  0.00000000000E+00 0.  1.
         21   -1    0    0  502  503 -0.00000000000E+00 -0.00000000000E+00 -0.97844291843E+02  0.97844291843E+02  0.00000000000E+00 0.  1.
         -6    2    1    2    0  503 -0.18675313925E+02  0.42780919890E+02  0.54469922334E+02  0.18821926735E+03  0.17401306188E+03 0.  0.
        -24    2    3    3    0    0  0.14585314625E+02 -0.16021826925E+02 -0.22016671044E+02  0.86060951922E+02  0.80326354960E+02 0.  0.
          6    2    1    2  501    0  0.18675313925E+02 -0.42780919890E+02  0.22422029116E+03  0.28615952983E+03  0.17156212603E+03 0.  0.
         24    2    5    5    0    0  0.16653514633E+02 -0.90664328103E+02  0.18139132226E+03  0.22171328067E+03  0.88071602077E+02 0.  0.
          5    1    5    5  501    0  0.20217992924E+01  0.47883408213E+02  0.42828968898E+02  0.64446249164E+02  0.47000000000E+01 0. -1.
        -13    1    6    6    0    0 -0.28524045891E+02 -0.67636308348E+02  0.13135905666E+03  0.15047755038E+03  0.00000000000E+00 0.  1.
         14    1    6    6    0    0  0.45177560524E+02 -0.23028019754E+02  0.50032265603E+02  0.71235730291E+02  0.00000000000E+00 0. -1.
         -5    1    3    3    0  503 -0.33260628550E+02  0.58802746815E+02  0.76486593378E+02  0.10215831543E+03  0.47000000000E+01 0.  1.
         13    1    4    4    0    0 -0.13903036201E+02 -0.14791918791E+02  0.24304179439E+02  0.31666834627E+02  0.00000000000E+00 0. -1.
        -14    1    4    4    0    0  0.28488350826E+02 -0.12299081343E+01 -0.46320850482E+02  0.54394117294E+02  0.00000000000E+00 0.  1.
</event>
<event>
12    1  0.8562501E-002  0.1852607E+03  0.7818608E-02  0.1163090E+00
         21   -1    0    0  503  502  0.00000000000E+00  0.00000000000E+00  0.20276931065E+03  0.20276931065E+03  0.00000000000E+00 0.  1.
         21   -1    0    0  501  503 -0.00000000000E+00 -0.00000000000E+00 -0.25620783065E+03  0.25620783065E+03  0.00000000000E+00 0. -1.
          6    2    1    2  501    0 -0.55908683231E+02  0.36762183695E+02 -0.16119303794E+03  0.24465829875E+03  0.17145625873E+03 0.  0.
         24    2    3    3    0    0 -0.86419109316E+02  0.14825975140E+02 -0.16814268849E+03  0.20615542888E+03  0.80870422097E+02 0.  0.
         -6    2    1    2    0  502  0.55908683231E+02 -0.36762183695E+02  0.10775451794E+03  0.21431884254E+03  0.17275500317E+03 0.  0.
        -24    2    5    5    0    0 -0.86842898624E+01  0.83782033738E+01  0.65312072980E+00  0.81267326193E+02  0.80363801290E+02 0.  0.
          5    1    3    3  501    0  0.30510426085E+02  0.21936208555E+02  0.69496505487E+01  0.38502869872E+02  0.47000000000E+01 0. -1.
        -11    1    4    4    0    0 -0.41315867364E+02  0.11791598464E+02 -0.13493345641E+02  0.45034576350E+02  0.00000000000E+00 0.  1.
         12    1    4    4    0    0 -0.45103241952E+02  0.30343766760E+01 -0.15464934285E+03  0.16112085253E+03  0.00000000000E+00 0. -1.
         -5    1    5    5    0  502  0.64592973094E+02 -0.45140387069E+02  0.10710139722E+03  0.13305151635E+03  0.47000000000E+01 0.  1.
         11    1    6    6    0    0  0.22939747156E+02 -0.62500048656E+01 -0.27585486378E+02  0.36417765158E+02  0.00000000000E+00 0. -1.
        -12    1    6    6    0    0 -0.31624037019E+02  0.14628208239E+02  0.28238607108E+02  0.44849561035E+02  0.00000000000E+00 0.  1.
</event>
<event>
12    1  0.8562501E-002  0.1758505E+03  0.7818608E-02  0.1171922E+00
         21   -1    0    0  503  502  0.00000000000E+00  0.00000000000E+00  0.11314420949E+03  0.11314420949E+03  0.00000000000E+00 0.  1.
         21   -1    0    0  501  503 -0.00000000000E+00 -0.00000000000E+00 -0.27453238295E+03  0.27453238295E+03  0.00000000000E+00 0.  1.
          6    2    1    2  501    0 -0.34757652612E+01  0.32805493751E+02 -0.66422068379E+02  0.18782171344E+03  0.17255962305E+03 0.  0.
         24    2    3    3    0    0 -0.24221787540E+02  0.28660987324E+02 -0.10942211619E+03  0.13966915915E+03  0.78269581062E+02 0.  0.
         -6    2    1    2    0  502  0.34757652612E+01 -0.32805493751E+02 -0.94966105085E+02  0.19985487900E+03  0.17272848688E+03 0.  0.
        -24    2    5    5    0    0  0.56905652624E+02 -0.43716583538E+02 -0.97344549098E+02  0.14506845970E+03  0.80121805912E+02 0.  0.
          5    1    3    3  501    0  0.20746022279E+02  0.41445064265E+01  0.43000047807E+02  0.48152554297E+02  0.47000000000E+01 0. -1.
        -11    1    4    4    0    0  0.59777196086E+01 -0.19160640563E+02 -0.46460015340E+01  0.20602150585E+02  0.00000000000E+00 0.  1.
         12    1    4    4    0    0 -0.30199507149E+02  0.47821627887E+02 -0.10477611465E+03  0.11906700856E+03  0.00000000000E+00 0. -1.
         -5    1    5    5    0  502 -0.53429887363E+02  0.10911089787E+02  0.23784440128E+01  0.54786419301E+02  0.47000000000E+01 0.  1.
         13    1    6    6    0    0  0.41616478980E+01 -0.45865622731E+02 -0.74420591107E+02  0.87517992678E+02  0.00000000000E+00 0. -1.
        -14    1    6    6    0    0  0.52744004726E+02  0.21490391931E+01 -0.22923957991E+02  0.57550467018E+02  0.00000000000E+00 0.  1.
</event>
<event>
12    1  0.8562501E-002  0.1996932E+03  0.7818608E-02  0.1150332E+00
         21   -1    0    0  501  502  0.00000000000E+00  0.00000000000E+00  0.20913753201E+03  0.20913753201E+03  0.00000000000E+00 0. -1.
         21   -1    0    0  502  503 -0.00000000000E+00 -0.00000000000E+00 -0.20485731856E+03  0.20485731856E+03  0.00000000000E+00 0. -1.
         -6    2    1    2    0  503  0.27100690392E+02  0.94659744507E+02  0.59401936417E+02  0.20683363560E+03  0.17192047032E+03 0.  0.
        -24    2    3    3    0    0  0.67391736817E+02  0.10532863653E+03  0.18900648643E+02  0.14852722094E+03  0.77893086842E+02 0.  0.
          6    2    1    2  501    0 -0.27100690392E+02 -0.94659744507E+02 -0.55121722968E+02  0.20716121496E+03  0.17373097016E+03 0.  0.
         24    2    5    5    0    0 -0.59580158455E+02 -0.77157171844E+02  0.12992879327E+02  0.12955358041E+03  0.84334398881E+02 0.  0.
          5    1    5    5  501    0  0.32479468063E+02 -0.17502572662E+02 -0.68114602295E+02  0.77607634555E+02  0.47000000000E+01 0. -1.
        -11    1    6    6    0    0 -0.11314346018E+02  0.17822324572E+02  0.89726121709E+01  0.22938122158E+02  0.00000000000E+00 0.  1.
         12    1    6    6    0    0 -0.48265812437E+02 -0.94979496416E+02  0.40202671560E+01  0.10661545825E+03  0.00000000000E+00 0. -1.
         -5    1    3    3    0  503 -0.40291046425E+02 -0.10668892020E+02  0.40501287773E+02  0.58306414658E+02  0.47000000000E+01 0.  1.
         13    1    4    4    0    0  0.41406010005E+02  0.11219942504E+03  0.91909887827E+01  0.11994850111E+03  0.00000000000E+00 0. -1.
        -14    1    4    4    0    0  0.25985726812E+02 -0.68707885110E+01  0.97096598606E+01  0.28578719834E+02  0.00000000000E+00 0.  1.
</event>
<event>
12    1  0.8562501E-002  0.1895754E+03  0.7818608E-02  0.1158925E+00
         21   -1    0    0  501  502  0.00000000000E+00  0.00000000000E+00  0.83850117225E+03  0.83850117225E+03  0.00000000000E+00 0.  1.
         21   -1    0    0  502  503 -0.00000000000E+00 -0.00000000000E+00 -0.48547015517E+02  0.48547015517E+02  0.00000000000E+00 0.  1.
         -6    2    1    2    0  503  0.37957814868E+02  0.68495660876E+02  0.24180145390E+03  0.30703939153E+03  0.17225792746E+03 0.  0.
        -24    2    3    3    0    0 -0.19366459779E+02  0.43859357417E+01  0.18889930861E+03  0.20596092549E+03  0.79640805104E+02 0.  0.
          6    2    1    2  501    0 -0.37957814868E+02 -0.68495660876E+02  0.54815270283E+03  0.58000879624E+03  0.17264520504E+03 0.  0.
         24    2    5    5    0    0 -0.41433072283E+02 -0.74833243558E+02  0.55578992432E+03  0.56849100477E+03  0.83443805732E+02 0.  0.
          5    1    5    5  501    0  0.34752574148E+01  0.63375826824E+01 -0.76372214821E+01  0.11517791469E+02  0.47000000000E+01 0. -1.
        -13    1    6    6    0    0 -0.41317633823E+02  0.12576968969E+01  0.14807903797E+03  0.15374046361E+03  0.00000000000E+00 0.  1.
         14    1    6    6    0    0 -0.11543846004E+00 -0.76090940455E+02  0.40771088635E+03  0.41475054116E+03  0.00000000000E+00 0. -1.
         -5    1    3    3    0  503  0.57324274647E+02  0.64109725134E+02  0.52902145290E+02  0.10107846604E+03  0.47000000000E+01 0.  1.
         13    1    4    4    0    0 -0.14423519870E+02 -0.15624532652E+02  0.62659661911E+01  0.22168136556E+02  0.00000000000E+00 0. -1.
        -14    1    4    4    0    0 -0.49429399087E+01  0.20010468393E+02  0.18263334242E+03  0.18379278893E+03  0.00000000000E+00 0.  1.
</event>
<event>
12    1  0.8562501E-002  0.2183427E+03  0.7818608E-02  0.1135644E+00
         21   -1    0    0  501  502  0.00000000000E+00  0.00000000000E+00  0.18493321692E+04  0.18493321692E+04  0.00000000000E+00 0.  1.
         21   -1    0    0  502  503 -0.00000000000E+00 -0.00000000000E+00 -0.30286700717E+02  0.30286700717E+02  0.00000000000E+00 0.  1.
         -6    2    1    2    0  503 -0.10370138609E+03 -0.78537345408E+02  0.12800106346E+04  0.12980416349E+04  0.17193827137E+03 0.  0.
        -24    2    3    3    0    0  0.12680253384E+02 -0.29493002327E+02  0.38205497473E+03  0.39123598280E+03  0.77903559043E+02 0.  0.
          6    2    1    2  501    0  0.10370138609E+03  0.78537345408E+02  0.53903483387E+03  0.58157723500E+03  0.17536087375E+03 0.  0.
         24    2    5    5    0    0  0.12640423326E+03  0.52600103763E+02  0.29305580639E+03  0.33315032073E+03  0.79766092042E+02 0.  0.
          5    1    5    5  501    0 -0.22702847170E+02  0.25937241645E+02  0.24597902749E+03  0.24842691428E+03  0.47000000000E+01 0. -1.
        -13    1    6    6    0    0  0.67366521951E+02  0.59864519365E+02  0.22712779941E+03  0.24435434562E+03  0.00000000000E+00 0.  1.
         14    1    6    6    0    0  0.59037711311E+02 -0.72644156027E+01  0.65928006978E+02  0.88795975106E+02  0.00000000000E+00 0. -1.
         -5    1    3    3    0  503 -0.11638163948E+03 -0.49044343081E+02  0.89795565986E+03  0.90680565210E+03  0.47000000000E+01 0.  1.
         11    1    4    4    0    0  0.63896577027E+01  0.10424360484E+02  0.71591904382E+01  0.14168592901E+02  0.00000000000E+00 0. -1.
        -12    1    4    4    0    0  0.62905956811E+01 -0.39917362811E+02  0.37489578429E+03  0.37706738990E+03  0.00000000000E+00 0.  1.
</event>
<event>
12    1  0.8562501E-002  0.2344879E+03  0.7818608E-02  0.1124056E+00
         21   -1    0    0  503  502  0.00000000000E+00  0.00000000000E+00  0.14197325553E+03  0.14197325553E+03  0.00000000000E+00 0.  1.
         21   -1    0    0  501  503 -0.00000000000E+00 -0.00000000000E+00 -0.48099590281E+03  0.48099590281E+03  0.00000000000E+00 0. -1.
          6    2    1    2  501    0 -0.15846373507E+03 -0.20057277856E+02 -0.30978896094E+03  0.38666602116E+03  0.16741673115E+03 0.  0.
         24    2    3    3    0    0 -0.50634820630E+02 -0.63952257611E+01 -0.54921103168E+02  0.10954972539E+03  0.79875094907E+02 0.  0.
         -6    2    1    2    0  502  0.15846373507E+03  0.20057277856E+02 -0.29233686347E+02  0.23630313718E+03  0.17167269584E+03 0.  0.
        -24    2    5    5    0    0  0.81689734713E+02  0.42048530045E+01 -0.80958203985E+02  0.14226557963E+03  0.83632355039E+02 0.  0.
          5    1    3    3  501    0 -0.10782891444E+03 -0.13662052095E+02 -0.25486785777E+03  0.27711629577E+03  0.47000000000E+01 0. -1.
        -11    1    4    4    0    0  0.10877698710E+02 -0.27635186254E+02 -0.18054597431E+02  0.34756241697E+02  0.00000000000E+00 0.  1.
         12    1    4    4    0    0 -0.61512519340E+02  0.21239960493E+02 -0.36866505737E+02  0.74793483690E+02  0.00000000000E+00 0. -1.
         -5    1    5    5    0  502  0.76774000357E+02  0.15852424851E+02  0.51724517638E+02  0.94037557547E+02  0.47000000000E+01 0.  1.
         11    1    6    6    0    0  0.71955654310E+02  0.36637080293E+02 -0.69442341361E+02  0.10649943950E+03  0.00000000000E+00 0. -1.
        -12    1    6    6    0    0  0.97340804032E+01 -0.32432227288E+02 -0.11515862624E+02  0.35766140135E+02  0.00000000000E+00 0.  1.
</event>
<event>
12    1  0.8562501E-002  0.1982203E+03  0.7818608E-02  0.1151253E+00
         21   -1    0    0  503  502  0.00000000000E+00  0.00000000000E+00  0.85361485582E+02  0.85361485582E+02  0.00000000000E+00 0.  1.
         21   -1    0    0  501  503 -0.00000000000E+00 -0.00000000000E+00 -0.76059814344E+03  0.76059814344E+03  0.00000000000E+00 0. -1.
          6    2    1    2  501    0  0.29904680655E+01 -0.98878551490E+02 -0.60342470733E+03  0.63514775441E+03  0.17177130629E+03 0.  0.
         24    2    3    3    0    0  0.62131760242E+02 -0.27227480982E+02 -0.33247971866E+03  0.34867813083E+03  0.80199652411E+02 0.  0.
         -6    2    1    2    0  502 -0.29904680655E+01  0.98878551490E+02 -0.71811950522E+02  0.21081187461E+03  0.17175208702E+03 0.  0.
        -24    2    5    5    0    0  0.42161604313E+02  0.72543187647E+02 -0.99094961483E+02  0.15166194887E+03  0.78367215021E+02 0.  0.
          5    1    3    3  501    0 -0.59141292176E+02 -0.71651070508E+02 -0.27094498867E+03  0.28646962358E+03  0.47000000000E+01 0. -1.
        -11    1    4    4    0    0  0.33523177942E+02  0.27257302875E+02 -0.15019215635E+03  0.15628322959E+03  0.00000000000E+00 0.  1.
         12    1    4    4    0    0  0.28608582300E+02 -0.54484783857E+02 -0.18228756230E+03  0.19239490124E+03  0.00000000000E+00 0. -1.
         -5    1    5    5    0  502 -0.45152072379E+02  0.26335363843E+02  0.27283010961E+02  0.59149925748E+02  0.47000000000E+01 0.  1.
         13    1    6    6    0    0  0.51364699969E+01 -0.15132771052E+02 -0.30206790284E+02  0.34173590139E+02  0.00000000000E+00 0. -1.
        -14    1    6    6    0    0  0.37025134316E+02  0.87675958700E+02 -0.68888171199E+02  0.11748835873E+03  0.00000000000E+00 0.  1.
</event>
<event>
12    1  0.8562501E-002  0.1754242E+03  0.7818608E-02  0.1172341E+00
         21   -1    0    0  503  502  0.00000000000E+00  0.00000000000E+00  0.28230758295E+03  0.28230758295E+03  0.00000000000E+00 0.  1.
         21   -1    0    0  501  503 -0.00000000000E+00 -0.00000000000E+00 -0.70725861877E+03  0.70725861877E+03  0.00000000000E+00 0.  1.
          6    2    1    2  501    0 -0.27479854491E+02  0.16831995122E+02 -0.66757937877E+03  0.69024333663E+03  0.17243891191E+03 0.  0.
         24    2    3    3    0    0  0.22035011602E+02  0.21563501317E+02 -0.60009096205E+03  0.60627378556E+03  0.80673502477E+02 0.  0.
         -6    2    1    2    0  502  0.27479854491E+02 -0.16831995122E+02  0.24262834295E+03  0.29932286508E+03  0.17229975710E+03 0.  0.
        -24    2    5    5    0    0 -0.39630035069E+02 -0.45091351571E+02  0.16340961344E+03  0.19161945005E+03  0.80072106308E+02 0.  0.
          5    1    3    3  501    0 -0.49514866093E+02 -0.47315061947E+01 -0.67488416719E+02  0.83969551066E+02  0.47000000000E+01 0. -1.
        -13    1    4    4    0    0 -0.24269481212E+02  0.26969784147E+02 -0.18120273528E+03  0.18479937297E+03  0.00000000000E+00 0.  1.
         14    1    4    4    0    0  0.46304492814E+02 -0.54062828305E+01 -0.41888822677E+03  0.42147441260E+03  0.00000000000E+00 0. -1.
         -5    1    5    5    0  502  0.67109889560E+02  0.28259356448E+02  0.79218729512E+02  0.10770341503E+03  0.47000000000E+01 0.  1.
         11    1    6    6    0    0  0.22155125710E+02 -0.22192146127E+02  0.33087360543E+02  0.45586339759E+02  0.00000000000E+00 0. -1.
        -12    1    6    6    0    0 -0.61785160779E+02 -0.22899205444E+02  0.13032225290E+03  0.14603311030E+03  0.00000000000E+00 0.  1.
</event>
<event>
12    1  0.8562501E-002  0.2045831E+03  0.7818608E-02  0.1147105E+00
         21   -1    0    0  503  502  0.00000000000E+00  0.00000000000E+00  0.54026994199E+02  0.54026994199E+02  0.00000000000E+00 0. -1.
         21   -1    0    0  501  503 -0.00000000000E+00 -0.00000000000E+00 -0.11148664232E+04  0.11148664232E+04  0.00000000000E+00 0.  1.
          6    2    1    2  501    0  0.27471110691E+02 -0.96827164069E+02 -0.85815034952E+03  0.88090537229E+03  0.17158697770E+03 0.  0.
         24    2    3    3    0    0  0.12674226731E+02 -0.13038405048E+03 -0.77309825879E+03  0.78816400860E+03  0.79755564502E+02 0.  0.
         -6    2    1    2    0  502 -0.27471110691E+02  0.96827164069E+02 -0.20268907948E+03  0.28798804511E+03  0.17811257553E+03 0.  0.
        -24    2    5    5    0    0 -0.63001797254E+01  0.80100214573E+02 -0.22561757314E+03  0.25226963280E+03  0.79252392294E+02 0.  0.
          5    1    3    3  501    0  0.14796883960E+02  0.33556886409E+02 -0.85052090734E+02  0.92741363687E+02  0.47000000000E+01 0. -1.
        -13    1    4    4    0    0  0.21350616684E+02 -0.28426998965E+02 -0.39062052849E+03  0.39223505757E+03  0.00000000000E+00 0.  1.
         14    1    4    4    0    0 -0.86763899533E+01 -0.10195705151E+03 -0.38247773030E+03  0.39592895104E+03  0.00000000000E+00 0. -1.
         -5    1    5    5    0  502 -0.21170930966E+02  0.16726949497E+02  0.22928493652E+02  0.35718412319E+02  0.47000000000E+01 0.  1.
         11    1    6    6    0    0 -0.13428408503E+02  0.24262833108E+02 -0.10085403070E+02  0.29508008751E+02  0.00000000000E+00 0. -1.
        -12    1    6    6    0    0  0.71282287779E+01  0.55837381465E+02 -0.21553217007E+03  0.22276162405E+03  0.00000000000E+00 0.  1.
</event>
<event>
12    1  0.8562501E-002  0.1741667E+03  0.7818608E-02  0.1173605E+00
         21   -1    0    0  503  502  0.00000000000E+00  0.00000000000E+00  0.65188116613E+02  0.65188116613E+02  0.00000000000E+00 0. -1.
         21   -1    0    0  501  503 -0.00000000000E+00 -0.00000000000E+00 -0.51940798324E+03  0.51940798324E+03  0.00000000000E+00 0. -1.
          6    2    1    2  501    0 -0.15609447866E+02 -0.13460440596E+02 -0.32181407064E+03  0.36592122976E+03  0.17294279981E+03 0.  0.
         24    2    3    3    0    0 -0.72447480542E+01  0.18955939103E+02 -0.32195870022E+03  0.33211441398E+03  0.78935196982E+02 0.  0.
         -6    2    1    2    0  502  0.15609447866E+02  0.13460440596E+02 -0.13240579599E+03  0.21867487009E+03  0.17280788661E+03 0.  0.
        -24    2    5    5    0    0 -0.46535227903E+02 -0.26667687496E+02 -0.79448372763E+02  0.12757708710E+03  0.84185368242E+02 0.  0.
          5    1    3    3  501    0 -0.83646998119E+01 -0.32416379699E+02  0.14462958462E+00  0.33806815784E+02  0.47000000000E+01 0. -1.
        -11    1    4    4    0    0 -0.93362422628E+01  0.94672982505E+01 -0.38295663881E+01  0.13836933709E+02  0.00000000000E+00 0.  1.
         12    1    4    4    0    0  0.20914942086E+01  0.94886408524E+01 -0.31812913383E+03  0.31827748027E+03  0.00000000000E+00 0. -1.
         -5    1    5    5    0  502  0.62144675769E+02  0.40128128092E+02 -0.52957423227E+02  0.91097782988E+02  0.47000000000E+01 0.  1.
         13    1    6    6    0    0  0.79971039768E+00  0.12999625673E+02  0.11679201372E+02  0.17493814594E+02  0.00000000000E+00 0. -1.
        -14    1    6    6    0    0 -0.47334938300E+02 -0.39667313169E+02 -0.91127574135E+02  0.11008327251E+03  0.00000000000E+00 0.  1.
</event>
<event>
12    1  0.8562501E-002  0.2291062E+03  0.7818608E-02  0.1127332E+00
         21   -1    0    0  503  502  0.00000000000E+00  0.00000000000E+00  0.62514879980E+03  0.62514879980E+03  0.00000000000E+00 0. -1.
         21   -1    0    0  501  503 -0.00000000000E+00 -0.00000000000E+00 -0.12427139664E+03  0.12427139664E+03  0.00000000000E+00 0.  1.
          6    2    1    2  501    0  0.11727851023E+03  0.95151546133E+02  0.36824267070E+02  0.23204666545E+03  0.17228337880E+03 0.  0.
         24    2    3    3    0    0  0.14084561208E+03  0.36583764524E+02  0.25729458704E+02  0.16777553581E+03  0.79440336759E+02 0.  0.
         -6    2    1    2    0  502 -0.11727851023E+03 -0.95151546133E+02  0.46405313610E+03  0.51737353099E+03  0.17181964892E+03 0.  0.
        -24    2    5    5    0    0  0.85697753273E+01 -0.36595004667E+02  0.21745241232E+03  0.23435291956E+03  0.78886652021E+02 0.  0.
          5    1    3    3  501    0 -0.23567101849E+02  0.58567781610E+02  0.11094808366E+02  0.64271129638E+02  0.47000000000E+01 0. -1.
        -11    1    4    4    0    0  0.80569606811E+02 -0.18977086277E+02  0.35462209543E+01  0.82850268728E+02  0.00000000000E+00 0.  1.
         12    1    4    4    0    0  0.60276005266E+02  0.55560850801E+02  0.22183237750E+02  0.84925267086E+02  0.00000000000E+00 0. -1.
         -5    1    5    5    0  502 -0.12584828555E+03 -0.58556541466E+02  0.24660072377E+03  0.28302061143E+03  0.47000000000E+01 0.  1.
         13    1    6    6    0    0  0.25490662679E+02 -0.55114102157E+02  0.13205561108E+03  0.14534793620E+03  0.00000000000E+00 0. -1.
        -14    1    6    6    0    0 -0.16920887352E+02  0.18519097491E+02  0.85396801244E+02  0.89004983363E+02  0.00000000000E+00 0.  1.
</event>
<event>
12    1  0.8562501E-002  0.1941793E+03  0.7818608E-02  0.1155148E+00
         21   -1    0    0  503  502  0.00000000000E+00  0.00000000000E+00  0.35855758513E+03  0.35855758513E+03  0.00000000000E+00 0. -1.
         21   -1    0    0  501  503 -0.00000000000E+00 -0.00000000000E+00 -0.18743988957E+03  0.18743988957E+03  0.00000000000E+00 0.  1.
          6    2    1    2  501    0  0.67147555446E+02 -0.37266109553E+02 -0.96623178678E+02  0.21525470846E+03  0.17635473833E+03 0.  0.
         24    2    3    3    0    0  0.62147640018E+02  0.22664203161E+02 -0.11303553007E+03  0.15273993569E+03  0.78590467802E+02 0.  0.
         -6    2    1    2    0  502 -0.67147555446E+02  0.37266109553E+02  0.26774087424E+03  0.33074276625E+03  0.17834809942E+03 0.  0.
        -24    2    5    5    0    0  0.46447705385E+01  0.70283005960E+02  0.99450847890E+02  0.14476460493E+03  0.78134786588E+02 0.  0.
          5    1    3    3  501    0  0.49999154286E+01 -0.59930312713E+02  0.16412351396E+02  0.62514772771E+02  0.47000000000E+01 0. -1.
        -13    1    4    4    0    0  0.36969804159E+02  0.65955403213E+01 -0.18354500390E+01  0.37598356993E+02  0.00000000000E+00 0.  1.
         14    1    4    4    0    0  0.25177835859E+02  0.16068662839E+02 -0.11120008004E+03  0.11514157869E+03  0.00000000000E+00 0. -1.
         -5    1    5    5    0  502 -0.71792325985E+02 -0.33016896407E+02  0.16829002635E+03  0.18597816132E+03  0.47000000000E+01 0.  1.
         11    1    6    6    0    0 -0.20952848110E+02  0.74808486150E+02  0.84467274003E+02  0.11476084620E+03  0.00000000000E+00 0. -1.
        -12    1    6    6    0    0  0.25597618648E+02 -0.45254801900E+01  0.14983573887E+02  0.30003758728E+02  0.00000000000E+00 0.  1.
</event>
<event>
12    1  0.8562501E-002  0.2034101E+03  0.7818608E-02  0.1147119E+00
         21   -1    0    0  501  502  0.00000000000E+00  0.00000000000E+00  0.17430303776E+03  0.17430303776E+03  0.00000000000E+00 0. -1.
         21   -1    0    0  502  503 -0.00000000000E+00 -0.00000000000E+00 -0.23618705530E+03  0.23618705530E+03  0.00000000000E+00 0.  1.
         -6    2    1    2    0  503  0.10783961422E+03 -0.11627655909E+00 -0.34863148876E+02  0.20637612860E+03  0.17247107407E+03 0.  0.
        -24    2    3    3    0    0  0.11806288387E+03  0.48178550029E+02 -0.10643976301E+02  0.15118950125E+03  0.80529211019E+02 0.  0.
          6    2    1    2  501    0 -0.10783961422E+03  0.11627655909E+00 -0.27020868663E+02  0.20411396447E+03  0.17118115327E+03 0.  0.
         24    2    5    5    0    0 -0.89129394967E+02  0.11581850116E+02 -0.81411344704E+02  0.14527566431E+03  0.79993895364E+02 0.  0.
          5    1    5    5  501    0 -0.18710219250E+02 -0.11465573557E+02  0.54390476041E+02  0.58838300157E+02  0.47000000000E+01 0. -1.
        -11    1    6    6    0    0 -0.76122218274E+02  0.39147849297E+02 -0.41701836989E+02  0.95216539675E+02  0.00000000000E+00 0.  1.
         12    1    6    6    0    0 -0.13007176693E+02 -0.27565999181E+02 -0.39709507715E+02  0.50059124637E+02  0.00000000000E+00 0. -1.
         -5    1    3    3    0  503 -0.10223269649E+02 -0.48294826588E+02 -0.24219172576E+02  0.55186627345E+02  0.47000000000E+01 0.  1.
         13    1    4    4    0    0 -0.15480136091E+01 -0.13418076906E+02  0.74713870473E+01  0.15435762320E+02  0.00000000000E+00 0. -1.
        -14    1    4    4    0    0  0.11961089747E+03  0.61596626935E+02 -0.18115363348E+02  0.13575373893E+03  0.00000000000E+00 0.  1.
</event>
<event>
12    1  0.8562501E-002  0.1886084E+03  0.7818608E-02  0.1159914E+00
         21   -1    0    0  503  502  0.00000000000E+00  0.00000000000E+00  0.87211843634E+03  0.87211843634E+03  0.00000000000E+00 0.  1.
         21   -1    0    0  501  503 -0.00000000000E+00 -0.00000000000E+00 -0.51455021329E+02  0.51455021329E+02  0.00000000000E+00 0.  1.
          6    2    1    2  501    0  0.64148576772E+02 -0.42993360172E+02  0.19903209113E+03  0.27420229444E+03  0.17207456539E+03 0.  0.
         24    2    3    3    0    0  0.55943244530E+02 -0.89371087035E+02  0.13750557782E+03  0.19657612059E+03  0.92830757015E+02 0.  0.
         -6    2    1    2    0  502 -0.64148576772E+02  0.42993360172E+02  0.62163132388E+03  0.64937116323E+03  0.17115471330E+03 0.  0.
        -24    2    5    5    0    0 -0.38280758752E+02 -0.37474451569E+02  0.31151288254E+03  0.32790615675E+03  0.87249186997E+02 0.  0.
          5    1    3    3  501    0  0.82053322414E+01  0.46377726863E+02  0.61526513315E+02  0.77626173852E+02  0.47000000000E+01 0. -1.
        -13    1    4    4    0    0  0.15530150023E+02 -0.53873986715E+02  0.83740034588E+01  0.56689645776E+02  0.00000000000E+00 0.  1.
         14    1    4    4    0    0  0.40413094508E+02 -0.35497100320E+02  0.12913157436E+03  0.13988647481E+03  0.00000000000E+00 0. -1.
         -5    1    5    5    0  502 -0.25867818020E+02  0.80467811741E+02  0.31011844133E+03  0.32146500648E+03  0.47000000000E+01 0.  1.
         11    1    6    6    0    0 -0.53876069892E+02  0.28593796388E+01  0.22246143270E+03  0.22891023567E+03  0.00000000000E+00 0. -1.
        -12    1    6    6    0    0  0.15595311140E+02 -0.40333831208E+02  0.89051449847E+02  0.98995921074E+02  0.00000000000E+00 0.  1.
</event>
<event>
12    1  0.8562501E-002  0.1815751E+03  0.7818608E-02  0.1166493E+00
         21   -1    0    0  503  502  0.00000000000E+00  0.00000000000E+00  0.35205594396E+02  0.35205594396E+02  0.00000000000E+00 0.  1.
         21   -1    0    0  501  503 -0.00000000000E+00 -0.00000000000E+00 -0.10485373010E+04  0.10485373010E+04  0.00000000000E+00 0.  1.
          6    2    1    2  501    0  0.25947795550E+02 -0.51566046485E+02 -0.68619472378E+03  0.70959302840E+03  0.17125046503E+03 0.  0.
         24    2    3    3    0    0  0.60989323812E+02  0.62709463260E+01 -0.27827597031E+03  0.29608024037E+03  0.80417477552E+02 0.  0.
         -6    2    1    2    0  502 -0.25947795550E+02  0.51566046485E+02 -0.32713698284E+03  0.37414986701E+03  0.17215450095E+03 0.  0.
        -24    2    5    5    0    0  0.46007233850E+02  0.54916949240E+02 -0.16540332027E+03  0.19703797465E+03  0.79581205183E+02 0.  0.
          5    1    3    3  501    0 -0.35041528262E+02 -0.57836992811E+02 -0.40791875347E+03  0.41351278804E+03  0.47000000000E+01 0. -1.
        -11    1    4    4    0    0 -0.15371856988E+02 -0.41684698873E+01 -0.10807642655E+03  0.10924369137E+03  0.00000000000E+00 0.  1.
         12    1    4    4    0    0  0.76361180800E+02  0.10439416213E+02 -0.17019954376E+03  0.18683654900E+03  0.00000000000E+00 0. -1.
         -5    1    5    5    0  502 -0.71955029400E+02 -0.33509027552E+01 -0.16173366257E+03  0.17711189235E+03  0.47000000000E+01 0.  1.
         11    1    6    6    0    0 -0.91983742375E+00  0.36269686161E+01 -0.10464060177E+03  0.10470748083E+03  0.00000000000E+00 0. -1.
        -12    1    6    6    0    0  0.46927071273E+02  0.51289980624E+02 -0.60762718502E+02  0.92330493827E+02  0.00000000000E+00 0.  1.
</event>
<event>
12    1  0.8562501E-002  0.2271545E+03  0.7818608E-02  0.1128840E+00
         21   -1    0    0  503  502  0.00000000000E+00  0.00000000000E+00  0.22267589147E+03  0.22267589147E+03  0.00000000000E+00 0. -1.
         21   -1    0    0  501  503 -0.00000000000E+00 -0.00000000000E+00 -0.47576588446E+03  0.47576588446E+03  0.00000000000E+00 0.  1.
          6    2    1    2  501    0  0.79310791484E+02  0.12474604996E+03  0.12423250078E+03  0.25801991517E+03  0.17113966153E+03 0.  0.
         24    2    3    3    0    0  0.11691436164E+03  0.99299320559E+02  0.69470184677E+02  0.18672779927E+03  0.80695981542E+02 0.  0.
         -6    2    1    2    0  502 -0.79310791484E+02 -0.12474604996E+03 -0.37732249377E+03  0.44042186076E+03  0.17247426621E+03 0.  0.
        -24    2    5    5    0    0 -0.52439215538E+02 -0.15100979616E+03 -0.35338134927E+03  0.39562080767E+03  0.77997535781E+02 0.  0.
          5    1    3    3  501    0 -0.37603570161E+02  0.25446729404E+02  0.54762316098E+02  0.71292115908E+02  0.47000000000E+01 0. -1.
        -11    1    4    4    0    0  0.50207969772E+02  0.32846891873E+02 -0.13194478187E+02  0.61431692057E+02  0.00000000000E+00 0.  1.
         12    1    4    4    0    0  0.66706391873E+02  0.66452428686E+02  0.82664662865E+02  0.12529610721E+03  0.00000000000E+00 0. -1.
         -5    1    5    5    0  502 -0.26871575946E+02  0.26263746198E+02 -0.23941144499E+02  0.44801053091E+02  0.47000000000E+01 0.  1.
         13    1    6    6    0    0  0.13497893417E+02 -0.36956032833E+02 -0.42171471317E+02  0.57674730017E+02  0.00000000000E+00 0. -1.
        -14    1    6    6    0    0 -0.65937108955E+02 -0.11405376333E+03 -0.31120987795E+03  0.33794607765E+03  0.00000000000E+00 0.  1.
</event>
<event>
12    1  0.8562501E-002  0.1921597E+03  0.7818608E-02  0.1156685E+00
         21   -1    0    0  501  502  0.00000000000E+00  0.00000000000E+00  0.27349280349E+03  0.27349280349E+03  0.00000000000E+00 0. -1.
         21   -1    0    0  502  503 -0.00000000000E+00 -0.00000000000E+00 -0.14509973190E+03  0.14509973190E+03  0.00000000000E+00 0. -1.
         -6    2    1    2    0  503 -0.35091965965E+02  0.79001038387E+02  0.75665998604E+01  0.19160273905E+03  0.17082665493E+03 0.  0.
        -24    2    3    3    0    0 -0.21535076687E+02 -0.21614648684E+02 -0.13934604191E+02  0.87719643659E+02  0.81053131488E+02 0.  0.
          6    2    1    2  501    0  0.35091965965E+02 -0.79001038387E+02  0.12082647173E+03  0.22698979635E+03  0.17161795137E+03 0.  0.
         24    2    5    5    0    0  0.44964593176E+02 -0.47036729422E+02  0.14187548528E+01  0.10289516042E+03  0.79693993620E+02 0.  0.
          5    1    5    5  501    0 -0.98726272104E+01 -0.31964308965E+02  0.11940771687E+03  0.12409463592E+03  0.47000000000E+01 0. -1.
        -13    1    6    6    0    0 -0.16186029709E+02  0.73461293645E+01 -0.97960857880E+01  0.20295725440E+02  0.00000000000E+00 0.  1.
         14    1    6    6    0    0  0.61150622885E+02 -0.54382858786E+02  0.11214840641E+02  0.82599434983E+02  0.00000000000E+00 0. -1.
         -5    1    3    3    0  503 -0.13556889278E+02  0.10061568707E+03  0.21501204051E+02  0.10388309539E+03  0.47000000000E+01 0.  1.
         13    1    4    4    0    0 -0.29992900750E+02  0.21881454046E+02  0.84497669543E+01  0.38075854398E+02  0.00000000000E+00 0. -1.
        -14    1    4    4    0    0  0.84578240634E+01 -0.43496102730E+02 -0.22384371145E+02  0.49643789261E+02  0.00000000000E+00 0.  1.
</event>
<event>
12    1  0.8562501E-002  0.2055293E+03  0.7818608E-02  0.1146782E+00
         21   -1    0    0  501  502  0.00000000000E+00  0.00000000000E+00  0.48190441691E+03  0.48190441691E+03  0.00000000000E+00 0. -1.
         21   -1    0    0  502  503 -0.00000000000E+00 -0.00000000000E+00 -0.14203539858E+03  0.14203539858E+03  0.00000000000E+00 0.  1.
         -6    2    1    2    0  503  0.10293553498E+03 -0.86130552667E+01 -0.26894434647E+02  0.20728143335E+03  0.17768616410E+03 0.  0.
        -24    2    3    3    0    0  0.32035427240E+02 -0.40689089381E+02 -0.68636175760E+02  0.11884976372E+03  0.82051636915E+02 0.  0.
          6    2    1    2  501    0 -0.10293553498E+03  0.86130552667E+01  0.36676345298E+03  0.41665838214E+03  0.16857896631E+03 0.  0.
         24    2    5    5    0    0  0.76503029373E+01  0.32146435830E+02  0.16157445278E+03  0.18233453924E+03  0.77766701979E+02 0.  0.
          5    1    5    5  501    0 -0.11058583792E+03 -0.23533380563E+02  0.20518900020E+03  0.23432384290E+03  0.47000000000E+01 0. -1.
        -11    1    6    6    0    0 -0.20721567493E+02 -0.31541851787E+01  0.83587317640E+01  0.22565474518E+02  0.00000000000E+00 0.  1.
         12    1    6    6    0    0  0.28371870431E+02  0.35300621009E+02  0.15321572101E+03  0.15976906472E+03  0.00000000000E+00 0. -1.
         -5    1    3    3    0  503  0.70900107740E+02  0.32076034114E+02  0.41741741113E+02  0.88431669628E+02  0.47000000000E+01 0.  1.
         13    1    4    4    0    0 -0.12189443086E+02  0.17106810614E+02 -0.37267342787E+01  0.21333401991E+02  0.00000000000E+00 0. -1.
        -14    1    4    4    0    0  0.44224870326E+02 -0.57795899995E+02 -0.64909441482E+02  0.97516361730E+02  0.00000000000E+00 0.  1.
</event>
<event>
12    1  0.8562501E-002  0.1873397E+03  0.7818608E-02  0.1160899E+00
         21   -1    0    0  501  502  0.00000000000E+00  0.00000000000E+00  0.43382290837E+03  0.43382290837E+03  0.00000000000E+00 0. -1.
         21   -1    0    0  502  503 -0.00000000000E+00 -0.00000000000E+00 -0.12046271350E+03  0.12046271350E+03  0.00000000000E+00 0.  1.
         -6    2    1    2    0  503 -0.69270791643E+02  0.31060312270E+02 -0.22261238990E+01  0.18728305692E+03  0.17119229600E+03 0.  0.
        -24    2    3    3    0    0 -0.88493158692E+02  0.24085035498E+02  0.50213825881E+02  0.13080127035E+03  0.78590177163E+02 0.  0.
          6    2    1    2  501    0  0.69270791643E+02 -0.31060312270E+02  0.31558631876E+03  0.36700256494E+03  0.17126871434E+03 0.  0.
         24    2    5    5    0    0  0.63433757242E+02  0.16575184318E+01  0.76889205938E+02  0.12595707320E+03  0.76984708711E+02 0.  0.
          5    1    5    5  501    0  0.58370344010E+01 -0.32717830701E+02  0.23869711283E+03  0.24104549174E+03  0.47000000000E+01 0. -1.
        -13    1    6    6    0    0 -0.16312261109E+02  0.10505910257E+02  0.12507056261E+02  0.23084420485E+02  0.00000000000E+00 0.  1.
         14    1    6    6    0    0  0.79746018351E+02 -0.88483918247E+01  0.64382149676E+02  0.10287265272E+03  0.00000000000E+00 0. -1.
         -5    1    3    3    0  503  0.19222367049E+02  0.69752767718E+01 -0.52439949780E+02  0.56481786568E+02  0.47000000000E+01 0.  1.
         13    1    4    4    0    0 -0.84354214270E+02  0.36782960034E+02  0.63621897446E+02  0.11187656345E+03  0.00000000000E+00 0. -1.
        -14    1    4    4    0    0 -0.41389444219E+01 -0.12697924537E+02 -0.13408071565E+02  0.18924706908E+02  0.00000000000E+00 0.  1.
</event>
<event>
12    1  0.8562501E-002  0.2367754E+03  0.7818608E-02  0.1122196E+00
         21   -1    0    0  501  502  0.00000000000E+00  0.00000000000E+00  0.24384436922E+03  0.24384436922E+03  0.00000000000E+00 0. -1.
         21   -1    0    0  502  503 -0.00000000000E+00 -0.00000000000E+00 -0.22916112797E+03  0.22916112797E+03  0.00000000000E+00 0. -1.
         -6    2    1    2    0  503  0.33131058445E+02 -0.15821909565E+03  0.19387274881E+02  0.23618335285E+03  0.17110160863E+03 0.  0.
        -24    2    3    3    0    0  0.91449909578E+01 -0.17544708325E+03  0.47159527944E+02  0.19537253283E+03  0.71281804320E+02 0.  0.
          6    2    1    2  501    0 -0.33131058445E+02  0.15821909565E+03 -0.47040336270E+01  0.23682214433E+03  0.17300766126E+03 0.  0.
         24    2    5    5    0    0 -0.54575891034E+01  0.60952828568E+02  0.59133155766E+02  0.11713996368E+03  0.80498499308E+02 0.  0.
          5    1    5    5  501    0 -0.27673469342E+02  0.97266267077E+02 -0.63837189393E+02  0.11968218065E+03  0.47000000000E+01 0. -1.
        -11    1    6    6    0    0  0.16182241864E+02 -0.13041833998E+02  0.14109153088E+01  0.20831348199E+02  0.00000000000E+00 0.  1.
         12    1    6    6    0    0 -0.21639830967E+02  0.73994662566E+02  0.57722240457E+02  0.96308615482E+02  0.00000000000E+00 0. -1.
         -5    1    3    3    0  503  0.23986067487E+02  0.17227987607E+02 -0.27772253063E+02  0.40810820020E+02  0.47000000000E+01 0.  1.
         13    1    4    4    0    0 -0.20933168667E+02 -0.83406018671E+02 -0.35518012439E+01  0.86066118729E+02  0.00000000000E+00 0. -1.
        -14    1    4    4    0    0  0.30078159625E+02 -0.92041064582E+02  0.50711329188E+02  0.10930641410E+03  0.00000000000E+00 0.  1.
</event>
<event>
12    1  0.8562501E-002  0.1922920E+03  0.7818608E-02  0.1156806E+00
         21   -1    0    0  503  502  0.00000000000E+00  0.00000000000E+00  0.15853322833E+03  0.15853322833E+03  0.00000000000E+00 0.  1.
         21   -1    0    0  501  503 -0.00000000000E+00 -0.00000000000E+00 -0.23131795084E+03  0.23131795084E+03  0.00000000000E+00 0. -1.
          6    2    1    2  501    0  0.52641451249E+02  0.66947205662E+02 -0.30499929811E+02  0.19469578091E+03  0.17240403316E+03 0.  0.
         24    2    3    3    0    0  0.13340568090E+02  0.85636733505E+02  0.28692257924E+02  0.12107742072E+03  0.79529084377E+02 0.  0.
         -6    2    1    2    0  502 -0.52641451249E+02 -0.66947205662E+02 -0.42284792693E+02  0.19515539826E+03  0.17042469023E+03 0.  0.
        -24    2    5    5    0    0 -0.62246465103E+02  0.17480517480E+02 -0.41920443989E+02  0.11005240491E+03  0.78574915170E+02 0.  0.
          5    1    3    3  501    0  0.39300883159E+02 -0.18689527843E+02 -0.59192187736E+02  0.73618360189E+02  0.47000000000E+01 0. -1.
        -13    1    4    4    0    0  0.36139586195E+02  0.89128353976E+01  0.13588136363E+02  0.39625064984E+02  0.00000000000E+00 0.  1.
         14    1    4    4    0    0 -0.22799018105E+02  0.76723898107E+02  0.15104121562E+02  0.81452355739E+02  0.00000000000E+00 0. -1.
         -5    1    5    5    0  502  0.96050138546E+01 -0.84427723142E+02 -0.36434870370E+00  0.85102993344E+02  0.47000000000E+01 0.  1.
         11    1    6    6    0    0 -0.13764369449E+02 -0.30127634925E+02 -0.19818565710E+02  0.38599323819E+02  0.00000000000E+00 0. -1.
        -12    1    6    6    0    0 -0.48482095654E+02  0.47608152405E+02 -0.22101878279E+02  0.71453081095E+02  0.00000000000E+00 0.  1.
</event>
<event>
12    1  0.8562501E-002  0.2630823E+03  0.7818608E-02  0.1105373E+00
         21   -1    0    0  503  502  0.00000000000E+00  0.00000000000E+00  0.44540524385E+03  0.44540524385E+03  0.00000000000E+00 0. -1.
         21   -1    0    0  501  503 -0.00000000000E+00 -0.00000000000E+00 -0.25762241018E+03  0.25762241018E+03  0.00000000000E+00 0.  1.
          6    2    1    2  501    0  0.28368212968E+02 -0.19678771946E+03 -0.12778202786E+03  0.29247311075E+03  0.17228497273E+03 0.  0.
         24    2    3    3    0    0 -0.34626585718E+02 -0.16391498649E+03 -0.73521971661E+02  0.20294543384E+03  0.87830777999E+02 0.  0.
         -6    2    1    2    0  502 -0.28368212968E+02  0.19678771946E+03  0.31556486153E+03  0.41055454328E+03  0.17159163482E+03 0.  0.
        -24    2    5    5    0    0 -0.43267274680E+02  0.20617080380E+03  0.22538519311E+03  0.31855189708E+03  0.79362260964E+02 0.  0.
          5    1    3    3  501    0  0.62994798687E+02 -0.32872732971E+02 -0.54260056197E+02  0.89527676911E+02  0.47000000000E+01 0. -1.
        -11    1    4    4    0    0 -0.32245524057E+02 -0.11633951310E+03 -0.67375484121E+01  0.12091340161E+03  0.00000000000E+00 0.  1.
         12    1    4    4    0    0 -0.23810616613E+01 -0.47575473391E+02 -0.66784423249E+02  0.82032032229E+02  0.00000000000E+00 0. -1.
         -5    1    5    5    0  502  0.14899061712E+02 -0.93830843355E+01  0.90179668419E+02  0.92002646199E+02  0.47000000000E+01 0.  1.
         11    1    6    6    0    0 -0.20664022265E+02  0.13492241650E+03  0.19463423954E+03  0.23772578214E+03  0.00000000000E+00 0. -1.
        -12    1    6    6    0    0 -0.22603252416E+02  0.71248387292E+02  0.30750953568E+02  0.80826114944E+02  0.00000000000E+00 0.  1.
</event>
<event>
12    1  0.8562501E-002  0.2504700E+03  0.7818608E-02  0.1113228E+00
         21   -1    0    0  503  502  0.00000000000E+00  0.00000000000E+00  0.83085530158E+02  0.83085530158E+02  0.00000000000E+00 0. -1.
         21   -1    0    0  501  503 -0.00000000000E+00 -0.00000000000E+00 -0.86291732155E+03  0.86291732155E+03  0.00000000000E+00 0.  1.
          6    2    1    2  501    0 -0.60586327501E+02 -0.17233625305E+03 -0.55940436450E+03  0.61235109910E+03  0.16932258666E+03 0.  0.
         24    2    3    3    0    0 -0.48722952260E+02 -0.81524769080E+02 -0.16060870485E+03  0.20314756362E+03  0.80334068001E+02 0.  0.
         -6    2    1    2    0  502  0.60586327501E+02  0.17233625305E+03 -0.22042742690E+03  0.33365175261E+03  0.17136147261E+03 0.  0.
        -24    2    5    5    0    0  0.48996286939E+02  0.15648552434E+03 -0.93790820426E+02  0.20541566276E+03  0.80687799891E+02 0.  0.
          5    1    3    3  501    0 -0.11863375241E+02 -0.90811483972E+02 -0.39879565965E+03  0.40920353548E+03  0.47000000000E+01 0. -1.
        -11    1    4    4    0    0 -0.28229884446E+02 -0.69601098507E+02 -0.16284649262E+03  0.17933270602E+03  0.00000000000E+00 0.  1.
         12    1    4    4    0    0 -0.20493067814E+02 -0.11923670573E+02  0.22377877745E+01  0.23814857600E+02  0.00000000000E+00 0. -1.
         -5    1    5    5    0  502  0.11590040562E+02  0.15850728714E+02 -0.12663660647E+03  0.12823608985E+03  0.47000000000E+01 0.  1.
         11    1    6    6    0    0  0.68355309702E+02  0.90445426489E+02 -0.50471030090E+02  0.12409733444E+03  0.00000000000E+00 0. -1.
        -12    1    6    6    0    0 -0.19359022763E+02  0.66040097849E+02 -0.43319790336E+02  0.81318328321E+02  0.00000000000E+00 0.  1.
</event>
<event>
12    1  0.8562501E-002  0.2264511E+03  0.7818608E-02  0.1129565E+00
         21   -1    0    0  501  502  0.00000000000E+00  0.00000000000E+00  0.10955735638E+04  0.10955735638E+04  0.00000000000E+00 0. -1.
         21   -1    0    0  502  503 -0.00000000000E+00 -0.00000000000E+00 -0.11392283364E+03  0.11392283364E+03  0.00000000000E+00 0.  1.
         -6    2    1    2    0  503 -0.57380076165E+02 -0.13421826446E+03  0.24076023711E+02  0.22550989685E+03  0.17020000883E+03 0.  0.
        -24    2    3    3    0    0  0.20518111745E+02 -0.10612448345E+03  0.41653623447E+02  0.14072516813E+03  0.79907131740E+02 0.  0.
          6    2    1    2  501    0  0.57380076165E+02  0.13421826446E+03  0.95757470641E+03  0.98398650055E+03  0.17312740758E+03 0.  0.
         24    2    5    5    0    0  0.63038938463E+02  0.14245946322E+03  0.63531090886E+03  0.66153342600E+03  0.98680881479E+02 0.  0.
          5    1    5    5  501    0 -0.56588622979E+01 -0.82411987571E+01  0.32226379755E+03  0.32245307456E+03  0.47000000000E+01 0. -1.
        -13    1    6    6    0    0  0.51029067860E+02  0.20956303027E+02  0.29181647460E+03  0.29698482664E+03  0.00000000000E+00 0.  1.
         14    1    6    6    0    0  0.12009870603E+02  0.12150316019E+03  0.34349443426E+03  0.36454859936E+03  0.00000000000E+00 0. -1.
         -5    1    3    3    0  503 -0.77898187910E+02 -0.28093781008E+02 -0.17577599736E+02  0.84784728716E+02  0.47000000000E+01 0.  1.
         13    1    4    4    0    0  0.18058529030E+02  0.83596957012E+01  0.67498578718E+01  0.21013223557E+02  0.00000000000E+00 0. -1.
        -14    1    4    4    0    0  0.24595827146E+01 -0.11448417915E+03  0.34903765575E+02  0.11971194458E+03  0.00000000000E+00 0.  1.
</event>
<event>
12    1  0.8562501E-002  0.2088900E+03  0.7818608E-02  0.1142606E+00
         21   -1    0    0  503  502  0.00000000000E+00  0.00000000000E+00  0.13815307382E+03  0.13815307382E+03  0.00000000000E+00 0.  1.
         21   -1    0    0  501  503 -0.00000000000E+00 -0.00000000000E+00 -0.45961693067E+03  0.45961693067E+03  0.00000000000E+00 0. -1.
          6    2    1    2  501    0  0.11389434879E+03  0.28373205274E+02 -0.32837857926E+03  0.38876559003E+03  0.17184071466E+03 0.  0.
         24    2    3    3    0    0  0.93812368980E+02 -0.88841633891E+01 -0.10621735059E+03  0.16255971267E+03  0.79144460847E+02 0.  0.
         -6    2    1    2    0  502 -0.11389434879E+03 -0.28373205274E+02  0.69147224052E+01  0.20900441446E+03  0.17279487960E+03 0.  0.
        -24    2    5    5    0    0 -0.70380651899E+02  0.34206645539E+02  0.46977635176E+02  0.12276749358E+03  0.82106202637E+02 0.  0.
          5    1    3    3  501    0  0.20081979807E+02  0.37257368663E+02 -0.22216122866E+03  0.22620587736E+03  0.47000000000E+01 0. -1.
        -11    1    4    4    0    0  0.82442175758E+02 -0.58000486342E+01 -0.11918738297E+03  0.14503787494E+03  0.00000000000E+00 0.  1.
         12    1    4    4    0    0  0.11370193222E+02 -0.30841147548E+01  0.12970032372E+02  0.17521837731E+02  0.00000000000E+00 0. -1.
         -5    1    5    5    0  502 -0.43513696888E+02 -0.62579850813E+02 -0.40062912771E+02  0.86236920888E+02  0.47000000000E+01 0.  1.
         13    1    6    6    0    0 -0.75184525942E+02  0.39087012403E+02  0.10190528783E+02  0.85348429139E+02  0.00000000000E+00 0. -1.
        -14    1    6    6    0    0  0.48038740429E+01 -0.48803668634E+01  0.36787106393E+02  0.37419064437E+02  0.00000000000E+00 0.  1.
</event>
<event>
12    1  0.8562501E-002  0.1846270E+03  0.7818608E-02  0.1165037E+00
         21   -1    0    0  501  502  0.00000000000E+00  0.00000000000E+00  0.38935599627E+03  0.38935599627E+03  0.00000000000E+00 0.  1.
         21   -1    0    0  502  503 -0.00000000000E+00 -0.00000000000E+00 -0.91611716972E+02  0.91611716972E+02  0.00000000000E+00 0.  1.
         -6    2    1    2    0  503 -0.42132172968E+02 -0.39223747161E+01  0.78466089922E+02  0.19431448736E+03  0.17265771836E+03 0.  0.
        -24    2    3    3    0    0 -0.80104342314E+02  0.38275581322E+02  0.43352937720E+02  0.12739979095E+03  0.80433225363E+02 0.  0.
          6    2    1    2  501    0  0.42132172968E+02  0.39223747161E+01  0.21927818937E+03  0.28665322588E+03  0.17971266663E+03 0.  0.
         24    2    5    5    0    0  0.46829075172E+02 -0.21933466258E+02  0.34955832363E+02  0.10040767104E+03  0.78649545222E+02 0.  0.
          5    1    5    5  501    0 -0.46969022037E+01  0.25855840974E+02  0.18432235701E+03  0.18624555484E+03  0.47000000000E+01 0. -1.
        -13    1    6    6    0    0  0.22382097769E+02  0.29291774311E+02  0.87399430177E+01  0.37886052140E+02  0.00000000000E+00 0.  1.
         14    1    6    6    0    0  0.24446977403E+02 -0.51225240569E+02  0.26215889345E+02  0.62521618898E+02  0.00000000000E+00 0. -1.
         -5    1    3    3    0  503  0.37972169345E+02 -0.42197956038E+02  0.35113152201E+02  0.66914696413E+02  0.47000000000E+01 0.  1.
         13    1    4    4    0    0 -0.31981952876E+02  0.48255002410E+02  0.51620130016E+02  0.77563060732E+02  0.00000000000E+00 0. -1.
        -14    1    4    4    0    0 -0.48122389437E+02 -0.99794210882E+01 -0.82671922952E+01  0.49836730218E+02  0.00000000000E+00 0.  1.
</event>
<event>
12    1  0.8562501E-002  0.2332992E+03  0.7818608E-02  0.1125562E+00
         21   -1    0    0  501  502  0.00000000000E+00  0.00000000000E+00  0.18546994567E+03  0.18546994567E+03  0.00000000000E+00 0.  1.
         21   -1    0    0  502  503 -0.00000000000E+00 -0.00000000000E+00 -0.56121008438E+03  0.56121008438E+03  0.00000000000E+00 0. -1.
         -6    2    1    2    0  503  0.14490519642E+03 -0.24354508968E+02 -0.44843664028E+03  0.50231695372E+03  0.17215180391E+03 0.  0.
        -24    2    3    3    0    0  0.16857812179E+02 -0.47129349608E+02 -0.16441609086E+03  0.18989962310E+03  0.80770381289E+02 0.  0.
          6    2    1    2  501    0 -0.14490519642E+03  0.24354508968E+02  0.72696501573E+02  0.24436307634E+03  0.18121223380E+03 0.  0.
         24    2    5    5    0    0 -0.86525177857E+02  0.83796190846E+02  0.19731797920E+02  0.14552538138E+03  0.79245723998E+02 0.  0.
          5    1    5    5  501    0 -0.58380018565E+02 -0.59441681878E+02  0.52964703653E+02  0.98837694961E+02  0.47000000000E+01 0. -1.
        -13    1    6    6    0    0 -0.81272535412E+02  0.37701300049E+02  0.35726986079E+02  0.96452219113E+02  0.00000000000E+00 0.  1.
         14    1    6    6    0    0 -0.52526424455E+01  0.46094890797E+02 -0.15995188158E+02  0.49073162263E+02  0.00000000000E+00 0. -1.
         -5    1    3    3    0  503  0.12804738424E+03  0.22774840640E+02 -0.28402054942E+03  0.31241733062E+03  0.47000000000E+01 0.  1.
         13    1    4    4    0    0 -0.26613030805E+02 -0.11107686913E+01 -0.23919204682E+02  0.35799658774E+02  0.00000000000E+00 0. -1.
        -14    1    4    4    0    0  0.43470842984E+02 -0.46018580916E+02 -0.14049688618E+03  0.15409996432E+03  0.00000000000E+00 0.  1.
</event>
<event>
12    1  0.8562501E-002  0.2747460E+03  0.7818608E-02  0.1098758E+00
         21   -1    0    0  501  502  0.00000000000E+00  0.00000000000E+00  0.10545501466E+04  0.10545501466E+04  0.00000000000E+00 0.  1.
         21   -1    0    0  502  503 -0.00000000000E+00 -0.00000000000E+00 -0.17908772048E+03  0.17908772048E+03  0.00000000000E+00 0. -1.
         -6    2    1    2    0  503  0.20447944171E+03  0.63351376283E+02 -0.41225944335E+02  0.27666194194E+03  0.17034380726E+03 0.  0.
        -24    2    3    3    0    0  0.43249212725E+02 -0.78570719226E+01 -0.41836206244E+02  0.10034321845E+03  0.79914112364E+02 0.  0.
          6    2    1    2  501    0 -0.20447944171E+03 -0.63351376283E+02  0.91668837050E+03  0.95697592518E+03  0.17222111892E+03 0.  0.
         24    2    5    5    0    0 -0.22687621250E+03 -0.63877649140E+02  0.79153422763E+03  0.82974565447E+03  0.79989047726E+02 0.  0.
          5    1    5    5  501    0  0.22396770790E+02  0.52627285680E+00  0.12515414287E+03  0.12723027070E+03  0.47000000000E+01 0. -1.
        -11    1    6    6    0    0 -0.16018987269E+03 -0.19451152638E+02  0.42615760271E+03  0.45568568663E+03  0.00000000000E+00 0.  1.
         12    1    6    6    0    0 -0.66686339811E+02 -0.44426496502E+02  0.36537662491E+03  0.37405996784E+03  0.00000000000E+00 0. -1.
         -5    1    3    3    0  503  0.16123022899E+03  0.71208448206E+02  0.61026190927E+00  0.17631872349E+03  0.47000000000E+01 0.  1.
         13    1    4    4    0    0  0.56439978273E+02  0.15706478559E+02 -0.43977224871E+02  0.73254084688E+02  0.00000000000E+00 0. -1.
        -14    1    4    4    0    0 -0.13190765548E+02 -0.23563550482E+02  0.21410186265E+01  0.27089133759E+02  0.00000000000E+00 0.  1.
</event>
<event>
12    1  0.8562501E-002  0.1817327E+03  0.7818608E-02  0.1167814E+00
         21   -1    0    0  501  502  0.00000000000E+00  0.00000000000E+00  0.18354015871E+03  0.18354015871E+03  0.00000000000E+00 0.  1.
         21   -1    0    0  502  503 -0.00000000000E+00 -0.00000000000E+00 -0.72381751856E+03  0.72381751856E+03  0.00000000000E+00 0.  1.
         -6    2    1    2    0  503 -0.27324313959E+02  0.13223300853E+02 -0.66456868501E+03  0.68718707733E+03  0.17220066300E+03 0.  0.
        -24    2    3    3    0    0 -0.28751241290E+02  0.68645030866E+02 -0.53599833078E+03  0.54709414294E+03  0.80492338176E+02 0.  0.
          6    2    1    2  501    0  0.27324313959E+02 -0.13223300853E+02  0.12429132516E+03  0.22017059994E+03  0.17917947916E+03 0.  0.
         24    2    5    5    0    0  0.23607971763E+02  0.19632624232E+02  0.15769790505E+03  0.17293276984E+03  0.63987009336E+02 0.  0.
          5    1    5    5  501    0  0.37163421958E+01 -0.32855925085E+02 -0.33406579891E+02  0.47237830100E+02  0.47000000000E+01 0. -1.
        -13    1    6    6    0    0  0.21304678111E+01 -0.15081348250E+02  0.10586743112E+03  0.10695746318E+03  0.00000000000E+00 0.  1.
         14    1    6    6    0    0  0.21477503952E+02  0.34713972482E+02  0.51830473930E+02  0.65975306663E+02  0.00000000000E+00 0. -1.
         -5    1    3    3    0  503  0.14269273313E+01 -0.55421730013E+02 -0.12857035423E+03  0.14009293439E+03  0.47000000000E+01 0.  1.
         11    1    4    4    0    0  0.22136051749E+02  0.21400908500E+02 -0.77915002126E+02  0.83777987729E+02  0.00000000000E+00 0. -1.
        -12    1    4    4    0    0 -0.50887293040E+02  0.47244122366E+02 -0.45808332866E+03  0.46331615522E+03  0.00000000000E+00 0.  1.
</event>
<event>
12    1  0.8562501E-002  0.1929296E+03  0.7818608E-02  0.1156182E+00
         21   -1    0    0  503  502  0.00000000000E+00  0.00000000000E+00  0.11243263203E+03  0.11243263203E+03  0.00000000000E+00 0.  1.
         21   -1    0    0  501  503 -0.00000000000E+00 -0.00000000000E+00 -0.60494025402E+03  0.60494025402E+03  0.00000000000E+00 0.  1.
          6    2    1    2  501    0  0.67491183830E+02  0.51899685570E+02 -0.48821241564E+03  0.52439544058E+03  0.17143680487E+03 0.  0.
         24    2    3    3    0    0  0.10414315163E+03  0.68293490944E+02 -0.36210640861E+03  0.39196833382E+03  0.83715748931E+02 0.  0.
         -6    2    1    2    0  502 -0.67491183830E+02 -0.51899685570E+02 -0.42952063567E+01  0.19297744547E+03  0.17312772281E+03 0.  0.
        -24    2    5    5    0    0 -0.95992212328E+02  0.90580433664E+01 -0.10042518600E+02  0.12527755669E+03  0.79354023550E+02 0.  0.
          5    1    3    3  501    0 -0.36651967803E+02 -0.16393805373E+02 -0.12610600702E+03  0.13242710676E+03  0.47000000000E+01 0. -1.
        -11    1    4    4    0    0 -0.69881780345E+01  0.27512487290E+02 -0.42167745752E+02  0.50831981773E+02  0.00000000000E+00 0.  1.
         12    1    4    4    0    0  0.11113132967E+03  0.40781003654E+02 -0.31993866286E+03  0.34113635204E+03  0.00000000000E+00 0. -1.
         -5    1    5    5    0  502  0.28501028498E+02 -0.60957728937E+02  0.57473122436E+01  0.67699888778E+02  0.47000000000E+01 0.  1.
         13    1    6    6    0    0 -0.46129649000E+01  0.12366041454E+02  0.24258519606E+02  0.27616556626E+02  0.00000000000E+00 0. -1.
        -14    1    6    6    0    0 -0.91379247428E+02 -0.33079980874E+01 -0.34301038206E+02  0.97661000066E+02  0.00000000000E+00 0.  1.
</event>
<event>
12    1  0.8562501E-002  0.2058046E+03  0.7818608E-02  0.1145162E+00
         21   -1    0    0  503  502  0.00000000000E+00  0.00000000000E+00  0.72180182159E+03  0.72180182159E+03  0.00000000000E+00 0. -1.
         21   -1    0    0  501  503 -0.00000000000E+00 -0.00000000000E+00 -0.10080420779E+03  0.10080420779E+03  0.00000000000E+00 0. -1.
          6    2    1    2  501    0  0.30278543273E+02  0.10990258215E+03  0.43114263684E+02  0.20916924492E+03  0.16999283967E+03 0.  0.
         24    2    3    3    0    0  0.33885725176E+02  0.54074243911E+02  0.88810957778E+02  0.13678075852E+03  0.82154266202E+02 0.  0.
         -6    2    1    2    0  502 -0.30278543273E+02 -0.10990258215E+03  0.57788335011E+03  0.61343678446E+03  0.17134805060E+03 0.  0.
        -24    2    5    5    0    0 -0.43051209333E+02  0.38296086415E+01  0.27785464081E+03  0.29228655695E+03  0.79750595168E+02 0.  0.
          5    1    3    3  501    0 -0.36071819027E+01  0.55828338234E+02 -0.45696694094E+02  0.72388486393E+02  0.47000000000E+01 0. -1.
        -11    1    4    4    0    0  0.34266117680E+02  0.69963630366E+02  0.92017527084E+02  0.12056658611E+03  0.00000000000E+00 0.  1.
         12    1    4    4    0    0 -0.38039250445E+00 -0.15889386455E+02 -0.32065693066E+01  0.16214172415E+02  0.00000000000E+00 0. -1.
         -5    1    5    5    0  502  0.12772666060E+02 -0.11373219079E+03  0.30002870930E+03  0.32115022751E+03  0.47000000000E+01 0.  1.
         11    1    6    6    0    0  0.13096736286E+02 -0.33175605339E+01  0.16951513370E+03  0.17005267203E+03  0.00000000000E+00 0. -1.
        -12    1    6    6    0    0 -0.56147945619E+02  0.71471691755E+01  0.10833950711E+03  0.12223388493E+03  0.00000000000E+00 0.  1.
</event>
<event>
12    1  0.8562501E-002  0.1936828E+03  0.7818608E-02  0.1155651E+00
         21   -1    0    0  503  502  0.00000000000E+00  0.00000000000E+00  0.40459248672E+03  0.40459248672E+03  0.00000000000E+00 0.  1.
         21   -1    0    0  501  503 -0.00000000000E+00 -0.00000000000E+00 -0.20418164489E+03  0.20418164489E+03  0.00000000000E+00 0.  1.
          6    2    1    2  501    0  0.16662105605E+02  0.89462645097E+02 -0.12595918762E+03  0.22926074818E+03  0.16856329103E+03 0.  0.
         24    2    3    3    0    0  0.39993722721E+02  0.79360600626E+02 -0.22604628705E+02  0.12272122262E+03  0.81559343139E+02 0.  0.
         -6    2    1    2    0  502 -0.16662105605E+02 -0.89462645097E+02  0.32637002945E+03  0.37951338344E+03  0.17097316004E+03 0.  0.
        -24    2    5    5    0    0 -0.73684078038E+01 -0.95034246012E+02  0.12007794924E+03  0.17288345358E+03  0.79901021774E+02 0.  0.
          5    1    3    3  501    0 -0.23331617116E+02  0.10102044472E+02 -0.10335455891E+03  0.10653952556E+03  0.47000000000E+01 0. -1.
        -11    1    4    4    0    0  0.26718009212E+02  0.36241725185E+02 -0.52068340397E+02  0.68836231247E+02  0.00000000000E+00 0.  1.
         12    1    4    4    0    0  0.13275713509E+02  0.43118875440E+02  0.29463711692E+02  0.53884991371E+02  0.00000000000E+00 0. -1.
         -5    1    5    5    0  502 -0.92936978013E+01  0.55716009147E+01  0.20629208020E+03  0.20662992985E+03  0.47000000000E+01 0.  1.
         13    1    6    6    0    0 -0.36063381856E+02 -0.87480857412E+02  0.94065018587E+02  0.13342299519E+03  0.00000000000E+00 0. -1.
        -14    1    6    6    0    0  0.28694974052E+02 -0.75533885998E+01  0.26012930656E+02  0.39460458392E+02  0.00000000000E+00 0.  1.
</event>
<event>
12    1  0.8562501E-002  0.1830200E+03  0.7818608E-02  0.1165541E+00
         21   -1    0    0  501  502  0.00000000000E+00  0.00000000000E+00  0.43722226734E+02  0.43722226734E+02  0.00000000000E+00 0.  1.
         21   -1    0    0  502  503 -0.00000000000E+00 -0.00000000000E+00 -0.12317290272E+04  0.12317290272E+04  0.00000000000E+00 0.  1.
         -6    2    1    2    0  503  0.70980520465E+01 -0.55971484042E+02 -0.99334006331E+03  0.10100597960E+04  0.17410663639E+03 0.  0.
        -24    2    3    3    0    0  0.12030898036E+02  0.18709890869E+02 -0.76956698214E+03  0.77405529909E+03  0.80208874294E+02 0.  0.
          6    2    1    2  501    0 -0.70980520465E+01  0.55971484042E+02 -0.19466673718E+03  0.26539145792E+03  0.17133096043E+03 0.  0.
         24    2    5    5    0    0  0.39422690161E+01  0.72281942718E+02 -0.21223986514E+03  0.23858055384E+03  0.81453665282E+02 0.  0.
          5    1    5    5  501    0 -0.11040321063E+02 -0.16310458676E+02  0.17573127956E+02  0.26810904080E+02  0.47000000000E+01 0. -1.
        -13    1    6    6    0    0  0.12027459043E+02  0.20868472217E+02 -0.46054591375E+01  0.24522706979E+02  0.00000000000E+00 0.  1.
         14    1    6    6    0    0 -0.80851900271E+01  0.51413470501E+02 -0.20763440600E+03  0.21405784686E+03  0.00000000000E+00 0. -1.
         -5    1    3    3    0  503 -0.49328459900E+01 -0.74681374911E+02 -0.22377308117E+03  0.23600449695E+03  0.47000000000E+01 0.  1.
         11    1    4    4    0    0 -0.32009813630E+02  0.97580857439E+01 -0.20611566808E+03  0.20881455178E+03  0.00000000000E+00 0. -1.
        -12    1    4    4    0    0  0.44040711666E+02  0.89518051251E+01 -0.56345131407E+03  0.56524074731E+03  0.00000000000E+00 0.  1.
</event>
<event>
12    1  0.8562501E-002  0.2371984E+03  0.7818608E-02  0.1121814E+00
         21   -1    0    0  501  502  0.00000000000E+00  0.00000000000E+00  0.28720248805E+03  0.28720248805E+03  0.00000000000E+00 0. -1.
         21   -1    0    0  502  503 -0.00000000000E+00 -0.00000000000E+00 -0.20173945277E+03  0.20173945277E+03  0.00000000000E+00 0. -1.
         -6    2    1    2    0  503 -0.15892509969E+02 -0.16263015828E+03  0.86775651580E+02  0.25257295361E+03  0.17193586867E+03 0.  0.
        -24    2    3    3    0    0 -0.27053058823E+02 -0.17993561714E+03  0.10600209142E+03  0.22401104285E+03  0.76392471021E+02 0.  0.
          6    2    1    2  501    0  0.15892509969E+02  0.16263015828E+03 -0.13126163051E+01  0.23636898721E+03  0.17078476190E+03 0.  0.
         24    2    5    5    0    0  0.31167774943E+02  0.10123601954E+03 -0.65427102260E+02  0.14617291578E+03  0.76587556109E+02 0.  0.
          5    1    5    5  501    0 -0.15275264973E+02  0.61394138736E+02  0.64114485955E+02  0.90196071424E+02  0.47000000000E+01 0. -1.
        -13    1    6    6    0    0 -0.31743450516E+01 -0.95171633495E+01 -0.18572311396E+02  0.21108851587E+02  0.00000000000E+00 0.  1.
         14    1    6    6    0    0  0.34342119994E+02  0.11075318289E+03 -0.46854790864E+02  0.12506406419E+03  0.00000000000E+00 0. -1.
         -5    1    3    3    0  503  0.11160548854E+02  0.17305458861E+02 -0.19226439842E+02  0.28561910757E+02  0.47000000000E+01 0.  1.
         11    1    4    4    0    0  0.56141510037E+01 -0.49463111292E+02 -0.44388660570E+01  0.49978211273E+02  0.00000000000E+00 0. -1.
        -12    1    4    4    0    0 -0.32667209827E+02 -0.13047250585E+03  0.11044095748E+03  0.17403283158E+03  0.00000000000E+00 0.  1.
</event>
<event>
12    1  0.8562501E-002  0.2227786E+03  0.7818608E-02  0.1131973E+00
         21   -1    0    0  501  502  0.00000000000E+00  0.00000000000E+00  0.57824547818E+03  0.57824547818E+03  0.00000000000E+00 0. -1.
         21   -1    0    0  502  503 -0.00000000000E+00 -0.00000000000E+00 -0.93844105212E+02  0.93844105212E+02  0.00000000000E+00 0.  1.
         -6    2    1    2    0  503  0.10235923891E+03 -0.95562263010E+02  0.14175530412E+03  0.26338844673E+03  0.17224792516E+03 0.  0.
        -24    2    3    3    0    0  0.84368688265E+02 -0.39523765659E+02  0.14944636008E+02  0.12350632262E+03  0.79688556080E+02 0.  0.
          6    2    1    2  501    0 -0.10235923891E+03  0.95562263010E+02  0.34264606885E+03  0.40870113666E+03  0.17326491483E+03 0.  0.
         24    2    5    5    0    0  0.76710158247E+01  0.72733586908E+02  0.20210118265E+03  0.22869346892E+03  0.78145988703E+02 0.  0.
          5    1    5    5  501    0 -0.11003025474E+03  0.22828676102E+02  0.14054488619E+03  0.18000766774E+03  0.47000000000E+01 0. -1.
        -13    1    6    6    0    0  0.32387439675E+02  0.38643736626E+02  0.50534123680E+02  0.71386149114E+02  0.00000000000E+00 0.  1.
         14    1    6    6    0    0 -0.24716423851E+02  0.34089850282E+02  0.15156705897E+03  0.15730731981E+03  0.00000000000E+00 0. -1.
         -5    1    3    3    0  503  0.17990550648E+02 -0.56038497352E+02  0.12681066812E+03  0.13988212411E+03  0.47000000000E+01 0.  1.
         13    1    4    4    0    0  0.22410714376E+02  0.77912302629E+00  0.39668547863E+02  0.45567980437E+02  0.00000000000E+00 0. -1.
        -14    1    4    4    0    0  0.61957973888E+02 -0.40302888685E+02 -0.24723911855E+02  0.77938342182E+02  0.00000000000E+00 0.  1.
</event>
<event>
12    1  0.8562501E-002  0.1833325E+03  0.7818608E-02  0.1166140E+00
         21   -1    0    0  501  502  0.00000000000E+00  0.00000000000E+00  0.85404736703E+03  0.85404736703E+03  0.00000000000E+00 0.  1.
         21   -1    0    0  502  503 -0.00000000000E+00 -0.00000000000E+00 -0.47775709995E+02  0.47775709995E+02  0.00000000000E+00 0.  1.
         -6    2    1    2    0  503  0.16875778947E+02 -0.17914069245E+02  0.20490787972E+03  0.27495097800E+03  0.18167304516E+03 0.  0.
        -24    2    3    3    0    0  0.55319450521E+02  0.43210550544E+02  0.16067539694E+03  0.19014096938E+03  0.73550063029E+02 0.  0.
          6    2    1    2  501    0 -0.16875778947E+02  0.17914069245E+02  0.60136377731E+03  0.62687209903E+03  0.17528414099E+03 0.  0.
         24    2    5    5    0    0  0.14692864163E+02  0.68793529959E+02  0.47860606515E+03  0.49020884631E+03  0.79325389203E+02 0.  0.
          5    1    5    5  501    0 -0.31568643110E+02 -0.50879460713E+02  0.12275771216E+03  0.13666325272E+03  0.47000000000E+01 0. -1.
        -13    1    6    6    0    0 -0.14738324633E+02  0.74310512512E+02  0.32519363748E+03  0.33390144105E+03  0.00000000000E+00 0.  1.
         14    1    6    6    0    0  0.29431188796E+02 -0.55169825538E+01  0.15341242768E+03  0.15630740525E+03  0.00000000000E+00 0. -1.
         -5    1    3    3    0  503 -0.38443671574E+02 -0.61124619789E+02  0.44232482786E+02  0.84810008618E+02  0.47000000000E+01 0.  1.
         11    1    4    4    0    0  0.30206635654E+02  0.46364310183E+02  0.15446826860E+03  0.16408088280E+03  0.00000000000E+00 0. -1.
        -12    1    4    4    0    0  0.25112814867E+02 -0.31537596397E+01  0.62071283386E+01  0.26060086581E+02  0.00000000000E+00 0.  1.
</event>
<event>
12    1  0.8562501E-002  0.1798189E+03  0.7818608E-02  0.1168214E+00
         21   -1    0    0  501  502  0.00000000000E+00  0.00000000000E+00  0.13203895325E+04  0.13203895325E+04  0.00000000000E+00 0. -1.
         21   -1    0    0  502  503 -0.00000000000E+00 -0.00000000000E+00 -0.29967264392E+02  0.29967264392E+02  0.00000000000E+00 0. -1.
         -6    2    1    2    0  503  0.12050834703E+02 -0.48603095118E+02  0.35166016879E+03  0.39452777632E+03  0.17169685060E+03 0.  0.
        -24    2    3    3    0    0  0.49169745194E+02  0.58000343452E+01  0.28672428741E+03  0.30191960874E+03  0.80581194540E+02 0.  0.
          6    2    1    2  501    0 -0.12050834703E+02  0.48603095118E+02  0.93876209936E+03  0.95582902061E+03  0.17270597550E+03 0.  0.
         24    2    5    5    0    0 -0.22035588477E+02 -0.81040117743E+01  0.81506317146E+03  0.81930464168E+03  0.79880412072E+02 0.  0.
          5    1    5    5  501    0  0.99847537746E+01  0.56707106893E+02  0.12369892789E+03  0.13652437893E+03  0.47000000000E+01 0. -1.
        -11    1    6    6    0    0  0.28618992679E+02 -0.59425375430E+01  0.41744280756E+03  0.41846488273E+03  0.00000000000E+00 0.  1.
         12    1    6    6    0    0 -0.50654581157E+02 -0.21614742313E+01  0.39762036390E+03  0.40083975895E+03  0.00000000000E+00 0. -1.
         -5    1    3    3    0  503 -0.37118910492E+02 -0.54403129464E+02  0.64935881384E+02  0.92608167581E+02  0.47000000000E+01 0.  1.
         11    1    4    4    0    0 -0.17118786258E+02 -0.16708509487E+02  0.58567196473E+02  0.63264078551E+02  0.00000000000E+00 0. -1.
        -12    1    4    4    0    0  0.66288531453E+02  0.22508543832E+02  0.22815709094E+03  0.23865553019E+03  0.00000000000E+00 0.  1.
</event>
<event>
12    1  0.8562501E-002  0.1916814E+03  0.7818608E-02  0.1157614E+00
         21   -1    0    0  501  502  0.00000000000E+00  0.00000000000E+00  0.52720137147E+02  0.52720137147E+02  0.00000000000E+00 0. -1.
         21   -1    0    0  502  503 -0.00000000000E+00 -0.00000000000E+00 -0.72230761901E+03  0.72230761901E+03  0.00000000000E+00 0. -1.
         -6    2    1    2    0  503 -0.33000743081E+02 -0.72756108594E+02 -0.42380085801E+03  0.46513322261E+03  0.17423905171E+03 0.  0.
        -24    2    3    3    0    0  0.86366831216E+01 -0.97473969208E+02 -0.20299323523E+03  0.23902982995E+03  0.79707208507E+02 0.  0.
          6    2    1    2  501    0  0.33000743081E+02  0.72756108594E+02 -0.24578662385E+03  0.30989453355E+03  0.17100016689E+03 0.  0.
         24    2    5    5    0    0 -0.27831101098E+02  0.22499188795E+02 -0.19901161176E+03  0.21804540176E+03  0.81592842391E+02 0.  0.
          5    1    5    5  501    0  0.60831844180E+02  0.50256919798E+02 -0.46775012093E+02  0.91849131788E+02  0.47000000000E+01 0. -1.
        -11    1    6    6    0    0  0.48241444898E+01 -0.21316040541E+02 -0.16099055640E+02  0.27144530699E+02  0.00000000000E+00 0.  1.
         12    1    6    6    0    0 -0.32655245588E+02  0.43815229336E+02 -0.18291255612E+03  0.19090087106E+03  0.00000000000E+00 0. -1.
         -5    1    3    3    0  503 -0.41637426203E+02  0.24717860615E+02 -0.22080762278E+03  0.22610339265E+03  0.47000000000E+01 0.  1.
         11    1    4    4    0    0  0.84932192806E+01 -0.96170958050E+02 -0.21040773989E+03  0.23150033467E+03  0.00000000000E+00 0. -1.
        -12    1    4    4    0    0  0.14346384099E+00 -0.13030111587E+01  0.74145046557E+01  0.75294952847E+01  0.00000000000E+00 0.  1.
</event>
<event>
12    1  0.8562501E-002  0.1879259E+03  0.7818608E-02  0.1161648E+00
         21   -1    0    0  503  502  0.00000000000E+00  0.00000000000E+00  0.76653751331E+02  0.76653751331E+02  0.00000000000E+00 0.  1.
         21   -1    0    0  501  503 -0.00000000000E+00 -0.00000000000E+00 -0.62588147490E+03  0.62588147490E+03  0.00000000000E+00 0.  1.
          6    2    1    2  501    0 -0.49412860222E+02 -0.58080580803E+02 -0.46531391129E+03  0.50182983718E+03  0.17175903127E+03 0.  0.
         24    2    3    3    0    0 -0.12384324791E+02 -0.63928056755E+02 -0.44889295652E+03  0.46063465340E+03  0.80244810172E+02 0.  0.
         -6    2    1    2    0  502  0.49412860222E+02  0.58080580803E+02 -0.83913812282E+02  0.20070538905E+03  0.16560839556E+03 0.  0.
        -24    2    5    5    0    0  0.15999621782E+01  0.72427009616E+02 -0.85062371928E+01  0.11014996061E+03  0.82537422730E+02 0.  0.
          5    1    3    3  501    0 -0.37028535431E+02  0.58474759522E+01 -0.16420954771E+02  0.41195183781E+02  0.47000000000E+01 0. -1.
        -13    1    4    4    0    0 -0.44211454445E+02 -0.42775977287E+02 -0.21451303036E+03  0.22315975697E+03  0.00000000000E+00 0.  1.
         14    1    4    4    0    0  0.31827129653E+02 -0.21152079468E+02 -0.23437992616E+03  0.23747489643E+03  0.00000000000E+00 0. -1.
         -5    1    5    5    0  502  0.47812898044E+02 -0.14346428813E+02 -0.75407575090E+02  0.90555428440E+02  0.47000000000E+01 0.  1.
         11    1    6    6    0    0 -0.26139309545E+02 -0.50147980202E+01 -0.83324835180E+01  0.27889818648E+02  0.00000000000E+00 0. -1.
        -12    1    6    6    0    0  0.27739271723E+02  0.77441807636E+02 -0.17375367481E+00  0.82260141964E+02  0.00000000000E+00 0.  1.
</event>
<event>
12    1  0.8562501E-002  0.1991672E+03  0.7818608E-02  0.1150746E+00
         21   -1    0    0  501  502  0.00000000000E+00  0.00000000000E+00  0.12440912748E+03  0.12440912748E+03  0.00000000000E+00 0.  1.
         21   -1    0    0  502  503 -0.00000000000E+00 -0.00000000000E+00 -0.36944892152E+03  0.36944892152E+03  0.00000000000E+00 0. -1.
         -6    2    1    2    0  503  0.60523276420E+02  0.80970632229E+02 -0.28733399230E+02  0.19982396443E+03  0.16995498892E+03 0.  0.
        -24    2    3    3    0    0 -0.19564913863E+02  0.29116335219E+02  0.23329529016E+02  0.91032306485E+02  0.80697379567E+02 0.  0.
          6    2    1    2  501    0 -0.60523276420E+02 -0.80970632229E+02 -0.21630639481E+03  0.29403408456E+03  0.17160500044E+03 0.  0.
         24    2    5    5    0    0 -0.64313466476E+02 -0.61230311268E+02 -0.53880152762E+02  0.13030131472E+03  0.78676481677E+02 0.  0.
          5    1    5    5  501    0  0.37901900561E+01 -0.19740320962E+02 -0.16242624205E+03  0.16373276984E+03  0.47000000000E+01 0. -1.
        -11    1    6    6    0    0 -0.74783101690E+02 -0.33632162638E+02 -0.58084573004E+02  0.10048608005E+03  0.00000000000E+00 0.  1.
         12    1    6    6    0    0  0.10469635214E+02 -0.27598148629E+02  0.42044202419E+01  0.29815234677E+02  0.00000000000E+00 0. -1.
         -5    1    3    3    0  503  0.80088190283E+02  0.51854297010E+02 -0.52062928245E+02  0.10879165795E+03  0.47000000000E+01 0.  1.
         11    1    4    4    0    0 -0.63119345807E+01  0.51789568056E+02 -0.49884713681E+01  0.52410731002E+02  0.00000000000E+00 0. -1.
        -12    1    4    4    0    0 -0.13252979282E+02 -0.22673232837E+02  0.28318000384E+02  0.38621575484E+02  0.00000000000E+00 0.  1.
</event>
<event>
12    1  0.8562501E-002  0.1808512E+03  0.7818608E-02  0.1167297E+00
         21   -1    0    0  503  502  0.00000000000E+00  0.00000000000E+00  0.79068093182E+03  0.79068093182E+03  0.00000000000E+00 0. -1.
         21   -1    0    0  501  503 -0.00000000000E+00 -0.00000000000E+00 -0.41762114398E+02  0.41762114398E+02  0.00000000000E+00 0. -1.
          6    2    1    2  501    0  0.41791233027E+02 -0.31917341771E+02  0.32212377492E+03  0.36941963737E+03  0.17303733193E+03 0.  0.
         24    2    3    3    0    0  0.61301244756E+02 -0.67865556370E+02  0.15042761673E+03  0.19285640386E+03  0.78749909741E+02 0.  0.
         -6    2    1    2    0  502 -0.41791233027E+02  0.31917341771E+02  0.42679504250E+03  0.46302340885E+03  0.17167249335E+03 0.  0.
        -24    2    5    5    0    0 -0.45161243635E+02  0.18428485009E+02  0.43588653419E+03  0.44575924222E+03  0.79530398907E+02 0.  0.
          5    1    3    3  501    0 -0.19510011728E+02  0.35948214599E+02  0.17169615819E+03  0.17656323351E+03  0.47000000000E+01 0. -1.
        -11    1    4    4    0    0 -0.14250707398E+02 -0.16950148984E+02  0.62228016739E+02  0.66050861306E+02  0.00000000000E+00 0.  1.
         12    1    4    4    0    0  0.75551952154E+02 -0.50915407386E+02  0.88199599988E+02  0.12680554255E+03  0.00000000000E+00 0. -1.
         -5    1    5    5    0  502  0.33700106080E+01  0.13488856762E+02 -0.90914916878E+01  0.17264166628E+02  0.47000000000E+01 0.  1.
         11    1    6    6    0    0 -0.38621194718E+02 -0.10789384383E+02  0.89399866725E+02  0.97981343465E+02  0.00000000000E+00 0. -1.
        -12    1    6    6    0    0 -0.65400489176E+01  0.29217869392E+02  0.34648666746E+03  0.34777789875E+03  0.00000000000E+00 0.  1.
</event>
<event>
12    1  0.8562501E-002  0.2069891E+03  0.7818608E-02  0.1145260E+00
         21   -1    0    0  501  502  0.00000000000E+00  0.00000000000E+00  0.24031900937E+03  0.24031900937E+03  0.00000000000E+00 0. -1.
         21   -1    0    0  502  503 -0.00000000000E+00 -0.00000000000E+00 -0.30529545188E+03  0.30529545188E+03  0.00000000000E+00 0. -1.
         -6    2    1    2    0  503 -0.99499301518E+02  0.58132825479E+02 -0.21183318603E+03  0.29182049329E+03  0.16433613479E+03 0.  0.
        -24    2    3    3    0    0 -0.77086125171E+02 -0.21005050095E+02 -0.87819886460E+02  0.14293616807E+03  0.79592291478E+02 0.  0.
          6    2    1    2  501    0  0.99499301518E+02 -0.58132825479E+02  0.14685674352E+03  0.25379396797E+03  0.17194458020E+03 0.  0.
         24    2    5    5    0    0  0.96224072255E+02  0.66166580525E+01  0.43412023070E+02  0.13162145497E+03  0.78337420283E+02 0.  0.
          5    1    5    5  501    0  0.32752292632E+01 -0.64749483531E+02  0.10344472045E+03  0.12217251300E+03  0.47000000000E+01 0. -1.
        -13    1    6    6    0    0  0.10962139257E+03  0.27431437668E+01  0.34035419150E+02  0.11481630678E+03  0.00000000000E+00 0.  1.
         14    1    6    6    0    0 -0.13397320315E+02  0.38735142856E+01  0.93766039201E+01  0.16805148188E+02  0.00000000000E+00 0. -1.
         -5    1    3    3    0  503 -0.22413176347E+02  0.79137875574E+02 -0.12401329957E+03  0.14888432521E+03  0.47000000000E+01 0.  1.
         13    1    4    4    0    0 -0.78581863025E+02 -0.27720893404E+00 -0.34713100585E+02  0.85908005410E+02  0.00000000000E+00 0. -1.
        -14    1    4    4    0    0  0.14957378543E+01 -0.20727841161E+02 -0.53106785875E+02  0.57028162665E+02  0.00000000000E+00 0.  1.
</event>
<event>
12    1  0.8562501E-002  0.2079691E+03  0.7818608E-02  0.1145722E+00
         21   -1    0    0  503  502  0.00000000000E+00  0.00000000000E+00  0.13415494442E+03  0.13415494442E+03  0.00000000000E+00 0. -1.
         21   -1    0    0  501  503 -0.00000000000E+00 -0.00000000000E+00 -0.34615617040E+03  0.34615617040E+03  0.00000000000E+00 0. -1.
          6    2    1    2  501    0  0.28622805081E+02  0.98945942487E+02 -0.24730799282E+02  0.20943435411E+03  0.18066978647E+03 0.  0.
         24    2    3    3    0    0 -0.54077484187E+02  0.71504405379E+02 -0.61354618085E+01  0.12021410764E+03  0.79853199688E+02 0.  0.
         -6    2    1    2    0  502 -0.28622805081E+02 -0.98945942487E+02 -0.18727042670E+03  0.27087676071E+03  0.16641647236E+03 0.  0.
        -24    2    5    5    0    0 -0.94100226348E+01 -0.18575728018E+02 -0.16395340445E+03  0.18488678508E+03  0.82878213481E+02 0.  0.
          5    1    3    3  501    0  0.82700289268E+02  0.27441537107E+02 -0.18595337474E+02  0.89220246467E+02  0.47000000000E+01 0. -1.
        -11    1    4    4    0    0 -0.46216159912E+02  0.23887603268E+02 -0.36176876173E+02  0.63366532149E+02  0.00000000000E+00 0.  1.
         12    1    4    4    0    0 -0.78613242754E+01  0.47616802112E+02  0.30041414365E+02  0.56847575496E+02  0.00000000000E+00 0. -1.
         -5    1    5    5    0  502 -0.19212782446E+02 -0.80370214469E+02 -0.23317022256E+02  0.85989975636E+02  0.47000000000E+01 0.  1.
         11    1    6    6    0    0 -0.22399635123E+02  0.24893245285E+02 -0.10673315584E+03  0.11186323735E+03  0.00000000000E+00 0. -1.
        -12    1    6    6    0    0  0.12989612488E+02 -0.43468973303E+02 -0.57220248606E+02  0.73023547730E+02  0.00000000000E+00 0.  1.
</event>
<event>
12    1  0.8562501E-002  0.1825155E+03  0.7818608E-02  0.1166430E+00
         21   -1    0    0  501  502  0.00000000000E+00  0.00000000000E+00  0.61413559440E+02  0.61413559440E+02  0.00000000000E+00 0.  1.
         21   -1    0    0  502  503 -0.00000000000E+00 -0.00000000000E+00 -0.59848660426E+03  0.59848660426E+03  0.00000000000E+00 0.  1.
         -6    2    1    2    0  503 -0.51491870161E+02  0.11354859224E+02 -0.37757793847E+03  0.41751491981E+03  0.17021534339E+03 0.  0.
        -24    2    3    3    0    0 -0.10917565861E+02  0.54811034261E+02 -0.12715964995E+03  0.16009284899E+03  0.79603398184E+02 0.  0.
          6    2    1    2  501    0  0.51491870161E+02 -0.11354859224E+02 -0.15949510635E+03  0.24238524389E+03  0.17473285891E+03 0.  0.
         24    2    5    5    0    0 -0.16226537182E+02 -0.33414000927E+02 -0.28036179012E+02  0.92799388934E+02  0.80286382943E+02 0.  0.
          5    1    5    5  501    0  0.67718407343E+02  0.22059141703E+02 -0.13145892734E+03  0.14958585495E+03  0.47000000000E+01 0. -1.
        -13    1    6    6    0    0  0.26524690650E+02 -0.66986953042E+01 -0.32156380437E+02  0.42219243665E+02  0.00000000000E+00 0.  1.
         14    1    6    6    0    0 -0.42751227831E+02 -0.26715305623E+02  0.41202014249E+01  0.50580145269E+02  0.00000000000E+00 0. -1.
         -5    1    3    3    0  503 -0.40574304300E+02 -0.43456175037E+02 -0.25041828852E+03  0.25742207082E+03  0.47000000000E+01 0.  1.
         13    1    4    4    0    0 -0.34331543821E+02 -0.28593550518E+01 -0.37221763937E+02  0.50717753529E+02  0.00000000000E+00 0. -1.
        -14    1    4    4    0    0  0.23413977960E+02  0.57670389313E+02 -0.89937886010E+02  0.10937509546E+03  0.00000000000E+00 0.  1.
</event>
<event>
12    1  0.8562501E-002  0.1960997E+03  0.7818608E-02  0.1153349E+00
         21   -1    0    0  503  502  0.00000000000E+00  0.00000000000E+00  0.17268266464E+03  0.17268266464E+03  0.00000000000E+00 0.  1.
         21   -1    0    0  501  503 -0.00000000000E+00 -0.00000000000E+00 -0.26480038667E+03  0.26480038667E+03  0.00000000000E+00 0. -1.
          6    2    1    2  501    0  0.24704877001E+02  0.93572789603E+02 -0.13489720593E+03  0.23801756859E+03  0.17055470937E+03 0.  0.
         24    2    3    3    0    0 -0.22289945762E+02 -0.11483138255E+02 -0.74141689833E+02  0.10779244014E+03  0.74118255735E+02 0.  0.
         -6    2    1    2    0  502 -0.24704877001E+02 -0.93572789603E+02  0.42779483904E+02  0.19946548272E+03  0.16908635856E+03 0.  0.
        -24    2    5    5    0    0 -0.13117779119E+02 -0.12032583119E+03  0.68126897994E+02  0.16054803840E+03  0.80523391776E+02 0.  0.
          5    1    3    3  501    0  0.46994822764E+02  0.10505592786E+03 -0.60755516102E+02  0.13022512846E+03  0.47000000000E+01 0. -1.
        -11    1    4    4    0    0  0.27484761539E+02 -0.51671376513E+01 -0.29233810549E+02  0.40456484123E+02  0.00000000000E+00 0.  1.
         12    1    4    4    0    0 -0.49774707302E+02 -0.63160006033E+01 -0.44907879284E+02  0.67335956014E+02  0.00000000000E+00 0. -1.
         -5    1    5    5    0  502 -0.11587097883E+02  0.26753041586E+02 -0.25347414091E+02  0.38917444322E+02  0.47000000000E+01 0.  1.
         11    1    6    6    0    0  0.16656302266E+01  0.12000031639E+02  0.39761659345E+01  0.12750881496E+02  0.00000000000E+00 0. -1.
        -12    1    6    6    0    0 -0.14783409345E+02 -0.13232586283E+03  0.64150732060E+02  0.14779715690E+03  0.00000000000E+00 0.  1.
</event>
<event>
12    1  0.8562501E-002  0.1820307E+03  0.7818608E-02  0.1167415E+00
         21   -1    0    0  501  502  0.00000000000E+00  0.00000000000E+00  0.55505087766E+02  0.55505087766E+02  0.00000000000E+00 0.  1.
         21   -1    0    0  502  503 -0.00000000000E+00 -0.00000000000E+00 -0.57881875966E+03  0.57881875966E+03  0.00000000000E+00 0.  1.
         -6    2    1    2    0  503 -0.91455451250E+01 -0.35654290100E+02 -0.24452969237E+03  0.30484413505E+03  0.17827031953E+03 0.  0.
        -24    2    3    3    0    0  0.63653570046E+01  0.48438659134E+02 -0.15611345390E+03  0.18175175746E+03  0.79217860250E+02 0.  0.
          6    2    1    2  501    0  0.91455451250E+01  0.35654290100E+02 -0.27878397952E+03  0.32947971238E+03  0.17170178866E+03 0.  0.
         24    2    5    5    0    0 -0.40792160523E+02 -0.26897325290E+02 -0.13197514975E+03  0.16220328985E+03  0.80653584044E+02 0.  0.
          5    1    5    5  501    0  0.49937705648E+02  0.62551615389E+02 -0.14680882978E+03  0.16727642253E+03  0.47000000000E+01 0. -1.
        -13    1    6    6    0    0 -0.21464824621E+02 -0.55625674838E+02 -0.80878973145E+02  0.10048065831E+03  0.00000000000E+00 0.  1.
         14    1    6    6    0    0 -0.19327335903E+02  0.28728349549E+02 -0.51096176601E+02  0.61722631539E+02  0.00000000000E+00 0. -1.
         -5    1    3    3    0  503 -0.15510902130E+02 -0.84092949234E+02 -0.88416238471E+02  0.12309237759E+03  0.47000000000E+01 0.  1.
         11    1    4    4    0    0  0.54431115652E+01 -0.15170730801E+02 -0.36176359591E+01  0.16518650868E+02  0.00000000000E+00 0. -1.
        -12    1    4    4    0    0  0.92224543948E+00  0.63609389935E+02 -0.15249581794E+03  0.16523310659E+03  0.00000000000E+00 0.  1.
</event>
<event>
12    1  0.8562501E-002  0.1816402E+03  0.7818608E-02  0.1166636E+00
         21   -1    0    0  501  502  0.00000000000E+00  0.00000000000E+00  0.17713053042E+03  0.17713053042E+03  0.00000000000E+00 0.  1.
         21   -1    0    0  502  503 -0.00000000000E+00 -0.00000000000E+00 -0.35588043502E+03  0.35588043502E+03  0.00000000000E+00 0.  1.
         -6    2    1    2    0  503 -0.21263658437E+02  0.53845938998E+02  0.95776917858E+02  0.20383298195E+03  0.17036178627E+03 0.  0.
        -24    2    3    3    0    0 -0.37931958436E+02 -0.30623765720E+02  0.35217457417E+02  0.98464573552E+02  0.77963802114E+02 0.  0.
          6    2    1    2  501    0  0.21263658437E+02 -0.53845938998E+02 -0.27452682245E+03  0.32917798349E+03  0.17216747732E+03 0.  0.
         24    2    5    5    0    0 -0.15240997029E+02 -0.76137633632E+02 -0.10276613857E+03  0.15210926223E+03  0.80914282873E+02 0.  0.
          5    1    5    5  501    0  0.36504655466E+02  0.22291694634E+02 -0.17176068388E+03  0.17706872126E+03  0.47000000000E+01 0. -1.
        -13    1    6    6    0    0  0.32430543753E+02 -0.35805107960E+02 -0.56833913749E+02  0.74591150119E+02  0.00000000000E+00 0.  1.
         14    1    6    6    0    0 -0.47671540782E+02 -0.40332525673E+02 -0.45932224822E+02  0.77518112108E+02  0.00000000000E+00 0. -1.
         -5    1    3    3    0  503  0.16668299999E+02  0.84469704718E+02  0.60559460441E+02  0.10536840840E+03  0.47000000000E+01 0.  1.
         11    1    4    4    0    0 -0.11890834087E+02  0.24419840254E+02 -0.17696967818E+01  0.27218603198E+02  0.00000000000E+00 0. -1.
        -12    1    4    4    0    0 -0.26041124349E+02 -0.55043605974E+02  0.36987154199E+02  0.71245970354E+02  0.00000000000E+00 0.  1.
</event>
<event>
12    1  0.8562501E-002  0.1869898E+03  0.7818608E-02  0.1161730E+00
         21   -1    0    0  501  502  0.00000000000E+00  0.00000000000E+00  0.90309407182E+02  0.90309407182E+02  0.00000000000E+00 0.  1.
         21   -1    0    0  502  503 -0.00000000000E+00 -0.00000000000E+00 -0.73543904147E+03  0.73543904147E+03  0.00000000000E+00 0. -1.
         -6    2    1    2    0  503  0.26595548929E+02 -0.66871259901E+02 -0.60960463092E+03  0.63763859710E+03  0.17258645905E+03 0.  0.
        -24    2    3    3    0    0  0.43849672377E+02 -0.29098504478E+02 -0.57699120229E+03  0.58462716857E+03  0.78106094340E+02 0.  0.
          6    2    1    2  501    0 -0.26595548929E+02  0.66871259901E+02 -0.35525003368E+02  0.18810985155E+03  0.17012995551E+03 0.  0.
         24    2    5    5    0    0 -0.17366042643E+02  0.16154851380E+02  0.43311427173E+02  0.93798608003E+02  0.79747981035E+02 0.  0.
          5    1    5    5  501    0 -0.92295062858E+01  0.50716408521E+02 -0.78836430541E+02  0.94311243551E+02  0.47000000000E+01 0. -1.
        -13    1    6    6    0    0  0.84453846318E+00 -0.31817874200E+02  0.18296514692E+02  0.36713115009E+02  0.00000000000E+00 0.  1.
         14    1    6    6    0    0 -0.18210581106E+02  0.47972725580E+02  0.25014912482E+02  0.57085492993E+02  0.00000000000E+00 0. -1.
         -5    1    3    3    0  503 -0.17254123448E+02 -0.37772755423E+02 -0.32613428629E+02  0.53011428533E+02  0.47000000000E+01 0.  1.
         13    1    4    4    0    0  0.56772566766E+02 -0.42281689301E+02 -0.51801388314E+03  0.52282812540E+03  0.00000000000E+00 0. -1.
        -14    1    4    4    0    0 -0.12922894389E+02  0.13183184823E+02 -0.58977319153E+02  0.61799043164E+02  0.00000000000E+00 0.  1.
</event>
<event>
12    1  0.8562501E-002  0.1877098E+03  0.7818608E-02  0.1161379E+00
         21   -1    0    0  501  502  0.00000000000E+00  0.00000000000E+00  0.87017051099E+03  0.87017051099E+03  0.00000000000E+00 0. -1.
         21   -1    0    0  502  503 -0.00000000000E+00 -0.00000000000E+00 -0.43025606785E+02  0.43025606785E+02  0.00000000000E+00 0. -1.
         -6    2    1    2    0  503  0.37833791490E+02  0.53031704136E+02  0.28325058765E+03  0.33782146268E+03  0.17218794331E+03 0.  0.
        -24    2    3    3    0    0  0.60221601180E+02 -0.16147051851E+02  0.21790620846E+03  0.23994964756E+03  0.78774038540E+02 0.  0.
          6    2    1    2  501    0 -0.37833791490E+02 -0.53031704136E+02  0.54389431655E+03  0.57537465510E+03  0.17604320130E+03 0.  0.
         24    2    5    5    0    0 -0.81576029678E+02 -0.52371714874E+02  0.26498311657E+03  0.29301430650E+03  0.79018267536E+02 0.  0.
          5    1    5    5  501    0  0.43742238188E+02 -0.65998926192E+00  0.27891119998E+03  0.28236034860E+03  0.47000000000E+01 0. -1.
        -11    1    6    6    0    0 -0.44361220353E+02  0.41832680122E+01  0.17395096684E+03  0.17956713638E+03  0.00000000000E+00 0.  1.
         12    1    6    6    0    0 -0.37214809325E+02 -0.56554982886E+02  0.91032149737E+02  0.11344717012E+03  0.00000000000E+00 0. -1.
         -5    1    3    3    0  503 -0.22387809690E+02  0.69178755987E+02  0.65344379193E+02  0.97871815119E+02  0.47000000000E+01 0.  1.
         11    1    4    4    0    0  0.13796523785E+02  0.72917968200E+01 -0.32387516981E+00  0.15608307549E+02  0.00000000000E+00 0. -1.
        -12    1    4    4    0    0  0.46425077394E+02 -0.23438848672E+02  0.21823008363E+03  0.22434134001E+03  0.00000000000E+00 0.  1.
</event>
<event>
12    1  0.8562501E-002  0.2208470E+03  0.7818608E-02  0.1133880E+00
         21   -1    0    0  503  502  0.00000000000E+00  0.00000000000E+00  0.39700944565E+03  0.39700944565E+03  0.00000000000E+00 0. -1.
         21   -1    0    0  501  503 -0.00000000000E+00 -0.00000000000E+00 -0.30291061646E+03  0.30291061646E+03  0.00000000000E+00 0.  1.
          6    2    1    2  501    0  0.13803986784E+03  0.56622861838E+01 -0.22400823301E+03  0.31456810312E+03  0.17229723284E+03 0.  0.
         24    2    3    3    0    0  0.72798390988E+02  0.56801618730E+01 -0.22436389670E+03  0.24915658182E+03  0.80049822950E+02 0.  0.
         -6    2    1    2    0  502 -0.13803986784E+03 -0.56622861838E+01  0.31810706220E+03  0.38535195899E+03  0.16797905430E+03 0.  0.
        -24    2    5    5    0    0 -0.81299608639E+02 -0.26584641734E+02  0.29992948785E+03  0.32202963919E+03  0.80181177939E+02 0.  0.
          5    1    3    3  501    0  0.65241476851E+02 -0.17875689281E-01  0.35566368875E+00  0.65411521294E+02  0.47000000000E+01 0. -1.
        -11    1    4    4    0    0  0.56107777097E+01  0.12685892188E+02 -0.14181085560E+03  0.14248765368E+03  0.00000000000E+00 0.  1.
         12    1    4    4    0    0  0.67187613278E+02 -0.70057303154E+01 -0.82553041105E+02  0.10666892814E+03  0.00000000000E+00 0. -1.
         -5    1    5    5    0  502 -0.56740259200E+02  0.20922355550E+02  0.18177574346E+02  0.63322319801E+02  0.47000000000E+01 0.  1.
         11    1    6    6    0    0  0.85121765036E+01 -0.21470231281E+02  0.10252896161E+03  0.10509812534E+03  0.00000000000E+00 0. -1.
        -12    1    6    6    0    0 -0.89811785143E+02 -0.51144104528E+01  0.19740052624E+03  0.21693151386E+03  0.00000000000E+00 0.  1.
</event>
<event>
12    1  0.8562501E-002  0.2516335E+03  0.7818608E-02  0.1112549E+00
         21   -1    0    0  503  502  0.00000000000E+00  0.00000000000E+00  0.23579091508E+03  0.23579091508E+03  0.00000000000E+00 0. -1.
         21   -1    0    0  501  503 -0.00000000000E+00 -0.00000000000E+00 -0.29540783349E+03  0.29540783349E+03  0.00000000000E+00 0.  1.
          6    2    1    2  501    0  0.17220910070E+03  0.65067795417E+02 -0.11270208208E+03  0.27571941928E+03  0.17155071115E+03 0.  0.
         24    2    3    3    0    0  0.11797135762E+03  0.97879293144E+02 -0.12301432521E+03  0.21132408159E+03  0.77638560046E+02 0.  0.
         -6    2    1    2    0  502 -0.17220910070E+03 -0.65067795417E+02  0.53085163672E+02  0.25547932929E+03  0.16900254651E+03 0.  0.
        -24    2    5    5    0    0 -0.12405312125E+03 -0.98311272593E+02  0.11348253648E+01  0.17708892948E+03  0.79403513188E+02 0.  0.
          5    1    3    3  501    0  0.54237743082E+02 -0.32811497727E+02  0.10312243133E+02  0.64395337689E+02  0.47000000000E+01 0. -1.
        -11    1    4    4    0    0  0.26575781162E+01  0.97806494819E+01 -0.45871678685E+02  0.46978023917E+02  0.00000000000E+00 0.  1.
         12    1    4    4    0    0  0.11531377950E+03  0.88098643662E+02 -0.77142646528E+02  0.16434605767E+03  0.00000000000E+00 0. -1.
         -5    1    5    5    0  502 -0.48155979449E+02  0.33243477176E+02  0.51950338307E+02  0.78390399805E+02  0.47000000000E+01 0.  1.
         13    1    6    6    0    0 -0.47810485194E+02 -0.24703805834E+02  0.36887432822E+02  0.65244181483E+02  0.00000000000E+00 0. -1.
        -14    1    6    6    0    0 -0.76242636056E+02 -0.73607466760E+02 -0.35752607458E+02  0.11184474800E+03  0.00000000000E+00 0.  1.
</event>
<event>
12    1  0.8562501E-002  0.2193011E+03  0.7818608E-02  0.1134885E+00
         21   -1    0    0  503  502  0.00000000000E+00  0.00000000000E+00  0.11005510884E+03  0.11005510884E+03  0.00000000000E+00 0. -1.
         21   -1    0    0  501  503 -0.00000000000E+00 -0.00000000000E+00 -0.48466272110E+03  0.48466272110E+03  0.00000000000E+00 0.  1.
          6    2    1    2  501    0 -0.78089868162E+01  0.13248062133E+03 -0.28441184384E+03  0.35759283735E+03  0.17137807651E+03 0.  0.
         24    2    3    3    0    0  0.44930588740E+02  0.24622986788E+02 -0.13288985313E+03  0.16421306637E+03  0.81738417029E+02 0.  0.
         -6    2    1    2    0  502  0.78089868162E+01 -0.13248062133E+03 -0.90195768430E+02  0.23712499258E+03  0.17458777209E+03 0.  0.
        -24    2    5    5    0    0  0.36199501747E+02 -0.14971657213E+03 -0.42359566767E+02  0.17869989928E+03  0.80086610681E+02 0.  0.
          5    1    3    3  501    0 -0.52739575557E+02  0.10785763454E+03 -0.15152199070E+03  0.19337977098E+03  0.47000000000E+01 0. -1.
        -13    1    4    4    0    0  0.42532201745E+01  0.32408328803E+02 -0.11418158866E+03  0.11876794536E+03  0.00000000000E+00 0.  1.
         14    1    4    4    0    0  0.40677368566E+02 -0.77853420157E+01 -0.18708264478E+02  0.45445121009E+02  0.00000000000E+00 0. -1.
         -5    1    5    5    0  502 -0.28390514931E+02  0.17235950799E+02 -0.47836201664E+02  0.58425093304E+02  0.47000000000E+01 0.  1.
         11    1    6    6    0    0 -0.22205164186E+02 -0.67131291757E+02 -0.50524239772E+01  0.70888691888E+02  0.00000000000E+00 0. -1.
        -12    1    6    6    0    0  0.58404665934E+02 -0.82585280369E+02 -0.37307142789E+02  0.10781120739E+03  0.00000000000E+00 0.  1.
</event>
<event>
12    1  0.8562501E-002  0.1794444E+03  0.7818608E-02  0.1169229E+00
         21   -1    0    0  501  502  0.00000000000E+00  0.00000000000E+00  0.11715234102E+03  0.11715234102E+03  0.00000000000E+00 0. -1.
         21   -1    0    0  502  503 -0.00000000000E+00 -0.00000000000E+00 -0.28236486764E+03  0.28236486764E+03  0.00000000000E+00 0. -1.
         -6    2    1    2    0  503 -0.37604471492E+02  0.62310108842E+01 -0.12468295953E+03  0.21555272537E+03  0.17165143531E+03 0.  0.
        -24    2    3    3    0    0 -0.14770145184E+02 -0.24242183163E+02 -0.14822697465E+03  0.17053680972E+03  0.79408606735E+02 0.  0.
          6    2    1    2  501    0  0.37604471492E+02 -0.62310108842E+01 -0.40529567089E+02  0.18396448330E+03  0.17534926157E+03 0.  0.
         24    2    5    5    0    0 -0.14682778068E+02  0.30482765118E+02 -0.70256340124E+02  0.11334133660E+03  0.82252795167E+02 0.  0.
          5    1    5    5  501    0  0.52287249560E+02 -0.36713776002E+02  0.29726773034E+02  0.70623146701E+02  0.47000000000E+01 0. -1.
        -13    1    6    6    0    0  0.67707221138E+01  0.34491459342E+02 -0.81524566488E+02  0.88779267774E+02  0.00000000000E+00 0.  1.
         14    1    6    6    0    0 -0.21453500182E+02 -0.40086942237E+01  0.11268226364E+02  0.24562068822E+02  0.00000000000E+00 0. -1.
         -5    1    3    3    0  503 -0.22834326307E+02  0.30473194047E+02  0.23544015117E+02  0.45015915643E+02  0.47000000000E+01 0.  1.
         13    1    4    4    0    0  0.21499832905E+02 -0.38747490088E+02 -0.65906931667E+02  0.79418728552E+02  0.00000000000E+00 0. -1.
        -14    1    4    4    0    0 -0.36269978090E+02  0.14505306925E+02 -0.82320042985E+02  0.91118081173E+02  0.00000000000E+00 0.  1.
</event>
<event>
12    1  0.8562501E-002  0.2106632E+03  0.7818608E-02  0.1141276E+00
         21   -1    0    0  501  502  0.00000000000E+00  0.00000000000E+00  0.23549300434E+03  0.23549300434E+03  0.00000000000E+00 0. -1.
         21   -1    0    0  502  503 -0.00000000000E+00 -0.00000000000E+00 -0.19386727409E+03  0.19386727409E+03  0.00000000000E+00 0.  1.
         -6    2    1    2    0  503  0.10339610644E+03 -0.64154385337E+02 -0.18468792283E+02  0.21029330731E+03  0.17051580227E+03 0.  0.
        -24    2    3    3    0    0 -0.75986573265E+01 -0.24556917024E+02  0.17932141822E+02  0.86863509107E+02  0.81011886395E+02 0.  0.
          6    2    1    2  501    0 -0.10339610644E+03  0.64154385337E+02  0.60094522531E+02  0.21906697112E+03  0.17196641013E+03 0.  0.
         24    2    5    5    0    0 -0.55817447985E+02 -0.27841060014E+02 -0.32887523178E+01  0.97549810863E+02  0.74929550815E+02 0.  0.
          5    1    5    5  501    0 -0.47578658452E+02  0.91995445350E+02  0.63383274848E+02  0.12151716025E+03  0.47000000000E+01 0. -1.
        -13    1    6    6    0    0 -0.43081093434E+02 -0.11294126246E+02  0.33172049627E+02  0.55533078211E+02  0.00000000000E+00 0.  1.
         14    1    6    6    0    0 -0.12736354551E+02 -0.16546933768E+02 -0.36460801945E+02  0.42016732653E+02  0.00000000000E+00 0. -1.
         -5    1    3    3    0  503  0.11099476376E+03 -0.39597468313E+02 -0.36400934105E+02  0.12342979820E+03  0.47000000000E+01 0.  1.
         13    1    4    4    0    0 -0.38917688465E+02  0.80622719189E+01  0.72783559883E+01  0.40404964669E+02  0.00000000000E+00 0. -1.
        -14    1    4    4    0    0  0.31319031139E+02 -0.32619188943E+02  0.10653785834E+02  0.46458544439E+02  0.00000000000E+00 0.  1.
</event>
<event>
12    1  0.8562501E-002  0.1918015E+03  0.7818608E-02  0.1156980E+00
         21   -1    0    0  501  502  0.00000000000E+00  0.00000000000E+00  0.14759744738E+03  0.14759744738E+03  0.00000000000E+00 0.  1.
         21   -1    0    0  502  503 -0.00000000000E+00 -0.00000000000E+00 -0.27866264113E+03  0.27866264113E+03  0.00000000000E+00 0.  1.
         -6    2    1    2    0  503  0.80179737083E+02 -0.31602164134E+02 -0.13578116020E+03  0.23499860590E+03  0.17134857541E+03 0.  0.
        -24    2    3    3    0    0  0.57041145284E+02 -0.70503472099E+02 -0.14377385244E+03  0.18879601592E+03  0.82149760494E+02 0.  0.
          6    2    1    2  501    0 -0.80179737083E+02  0.31602164134E+02  0.47159664608E+01  0.19126148261E+03  0.17067872560E+03 0.  0.
         24    2    5    5    0    0 -0.45810676830E+02  0.58871724045E+02 -0.50842063243E+02  0.12031329119E+03  0.79535367221E+02 0.  0.
          5    1    5    5  501    0 -0.34369060253E+02 -0.27269559911E+02  0.55558029704E+02  0.70948191415E+02  0.47000000000E+01 0. -1.
        -11    1    6    6    0    0 -0.85774044764E+01  0.69432834461E+02 -0.27874172217E+02  0.75309095371E+02  0.00000000000E+00 0.  1.
         12    1    6    6    0    0 -0.37233272354E+02 -0.10561110415E+02 -0.22967891026E+02  0.45004195822E+02  0.00000000000E+00 0. -1.
         -5    1    3    3    0  503  0.23138591799E+02  0.38901307964E+02  0.79926922359E+01  0.46202589981E+02  0.47000000000E+01 0.  1.
         13    1    4    4    0    0 -0.68874513225E+01  0.53278169203E+01 -0.55005710928E+02  0.55690671154E+02  0.00000000000E+00 0. -1.
        -14    1    4    4    0    0  0.63928596607E+02 -0.75831289019E+02 -0.88768141512E+02  0.13310534477E+03  0.00000000000E+00 0.  1.
</event>
<event>
12    1  0.8562501E-002  0.1856943E+03  0.7818608E-02  0.1164074E+00
         21   -1    0    0  503  502  0.00000000000E+00  0.00000000000E+00  0.19024330071E+03  0.19024330071E+03  0.00000000000E+00 0.  1.
         21   -1    0    0  501  503 -0.00000000000E+00 -0.00000000000E+00 -0.23339254732E+03  0.23339254732E+03  0.00000000000E+00 0.  1.
          6    2    1    2  501    0 -0.48810769886E+02 -0.26718237036E+01 -0.12769962191E+03  0.21959874360E+03  0.17183359641E+03 0.  0.
         24    2    3    3    0    0 -0.52094731964E+01  0.53592280397E+02 -0.41296066838E+02  0.10755238350E+03  0.83443866942E+02 0.  0.
         -6    2    1    2    0  502  0.48810769886E+02  0.26718237036E+01  0.84550375303E+02  0.20403710442E+03  0.17914447834E+03 0.  0.
        -24    2    5    5    0    0 -0.31409137968E+02  0.94175506456E+01  0.89094439373E+02  0.12326906021E+03  0.78627081015E+02 0.  0.
          5    1    3    3  501    0 -0.43601296690E+02 -0.56264104101E+02 -0.86403555076E+02  0.11204636011E+03  0.47000000000E+01 0. -1.
        -13    1    4    4    0    0 -0.39744083858E+02  0.45034042399E+02 -0.39579264347E+02  0.71931740857E+02  0.00000000000E+00 0.  1.
         14    1    4    4    0    0  0.34534610662E+02  0.85582379976E+01 -0.17168024907E+01  0.35620642638E+02  0.00000000000E+00 0. -1.
         -5    1    5    5    0  502  0.80219907854E+02 -0.67457269420E+01 -0.45440640698E+01  0.80768044215E+02  0.47000000000E+01 0.  1.
         13    1    6    6    0    0 -0.68327170204E+01  0.11462613791E+02 -0.12764957738E+02  0.18466772399E+02  0.00000000000E+00 0. -1.
        -14    1    6    6    0    0 -0.24576420947E+02 -0.20450631453E+01  0.10185939711E+03  0.10480228781E+03  0.00000000000E+00 0.  1.
</event>
<event>
12    1  0.8562501E-002  0.1902886E+03  0.7818608E-02  0.1159103E+00
         21   -1    0    0  501  502  0.00000000000E+00  0.00000000000E+00  0.18430978829E+03  0.18430978829E+03  0.00000000000E+00 0. -1.
         21   -1    0    0  502  503 -0.00000000000E+00 -0.00000000000E+00 -0.32076848872E+03  0.32076848872E+03  0.00000000000E+00 0. -1.
         -6    2    1    2    0  503  0.61270200209E+02  0.54175565472E+02 -0.22755702082E+03  0.29410754298E+03  0.16741570948E+03 0.  0.
        -24    2    3    3    0    0  0.10508011786E+03  0.32399791238E+02 -0.15071730975E+03  0.20289392324E+03  0.79741200067E+02 0.  0.
          6    2    1    2  501    0 -0.61270200209E+02 -0.54175565472E+02  0.91098320387E+02  0.21097073403E+03  0.17181594022E+03 0.  0.
         24    2    5    5    0    0  0.20512837835E+02 -0.65751993755E+02  0.72091520387E+02  0.12608358866E+03  0.77173718449E+02 0.  0.
          5    1    5    5  501    0 -0.81783038044E+02  0.11576428282E+02  0.19006800000E+02  0.84887145374E+02  0.47000000000E+01 0. -1.
        -11    1    6    6    0    0  0.18538323463E+02  0.32096217280E+01 -0.79397868713E+01  0.20420855124E+02  0.00000000000E+00 0.  1.
         12    1    6    6    0    0  0.19745143719E+01 -0.68961615483E+02  0.80031307258E+02  0.10566273354E+03  0.00000000000E+00 0. -1.
         -5    1    3    3    0  503 -0.43809917646E+02  0.21775774234E+02 -0.76839711073E+02  0.91213619737E+02  0.47000000000E+01 0.  1.
         11    1    4    4    0    0  0.66834864936E+02  0.56617354601E+02 -0.78274221992E+02  0.11747032749E+03  0.00000000000E+00 0. -1.
        -12    1    4    4    0    0  0.38245252919E+02 -0.24217563363E+02 -0.72443087758E+02  0.85423595745E+02  0.00000000000E+00 0.  1.
</event>
<event>
12    1  0.8562501E-002  0.1915391E+03  0.7818608E-02  0.1157231E+00
         21   -1    0    0  501  502  0.00000000000E+00  0.00000000000E+00  0.68664480190E+03  0.68664480190E+03  0.00000000000E+00 0. -1.
         21   -1    0    0  502  503 -0.00000000000E+00 -0.00000000000E+00 -0.13251546636E+03  0.13251546636E+03  0.00000000000E+00 0. -1.
         -6    2    1    2    0  503 -0.65730525548E+02 -0.49754207112E+02 -0.39528234446E+02  0.19557530818E+03  0.17289082317E+03 0.  0.
        -24    2    3    3    0    0  0.27609357242E+02 -0.26250204997E+02  0.54393122339E+01  0.89231798321E+02  0.80507004939E+02 0.  0.
          6    2    1    2  501    0  0.65730525548E+02  0.49754207112E+02  0.59365757000E+03  0.62358496008E+03  0.17214211835E+03 0.  0.
         24    2    5    5    0    0  0.80022830246E+01 -0.29578590842E+02  0.18329792693E+03  0.20163310327E+03  0.78223070410E+02 0.  0.
          5    1    5    5  501    0  0.57728242524E+02  0.79332797953E+02  0.41035964306E+03  0.42195185681E+03  0.47000000000E+01 0. -1.
        -13    1    6    6    0    0  0.18420174999E+02  0.86123024195E+01  0.78858611647E+01  0.21809663139E+02  0.00000000000E+00 0.  1.
         14    1    6    6    0    0 -0.10417891974E+02 -0.38190893261E+02  0.17541206577E+03  0.17982344013E+03  0.00000000000E+00 0. -1.
         -5    1    3    3    0  503 -0.93339882790E+02 -0.23504002114E+02 -0.44967546680E+02  0.10634350986E+03  0.47000000000E+01 0.  1.
         11    1    4    4    0    0 -0.14761208584E+02 -0.35963679647E+02  0.19569825815E+02  0.43523069918E+02  0.00000000000E+00 0. -1.
        -12    1    4    4    0    0  0.42370565826E+02  0.97134746500E+01 -0.14130513582E+02  0.45708728403E+02  0.00000000000E+00 0.  1.
</event>
<event>
12    1  0.8562501E-002  0.1871554E+03  0.7818608E-02  0.1161220E+00
         21   -1    0    0  503  502  0.00000000000E+00  0.00000000000E+00  0.11979703439E+04  0.11979703439E+04  0.00000000000E+00 0.  1.
         21   -1    0    0  501  503 -0.00000000000E+00 -0.00000000000E+00 -0.99035077309E+02  0.99035077309E+02  0.00000000000E+00 0.  1.
          6    2    1    2  501    0 -0.17932998683E+02 -0.69108815472E+02  0.49208836338E+01  0.18722009753E+03  0.17300152891E+03 0.  0.
         24    2    3    3    0    0 -0.43406207007E+02  0.94900213150E+01  0.37594617191E+02  0.98246369094E+02  0.79150707433E+02 0.  0.
         -6    2    1    2    0  502  0.17932998683E+02  0.69108815472E+02  0.10940143830E+04  0.11097853237E+04  0.17221606699E+03 0.  0.
        -24    2    5    5    0    0 -0.53593027463E+02  0.24815923934E+02  0.63228353964E+03  0.64042906845E+03  0.82938980835E+02 0.  0.
          5    1    3    3  501    0  0.25473208323E+02 -0.78598836787E+02 -0.32673733558E+02  0.88973728432E+02  0.47000000000E+01 0. -1.
        -13    1    4    4    0    0 -0.34154812639E+02 -0.31267309796E+02  0.78932754394E+01  0.46973393377E+02  0.00000000000E+00 0.  1.
         14    1    4    4    0    0 -0.92513943679E+01  0.40757331111E+02  0.29701341752E+02  0.51272975717E+02  0.00000000000E+00 0. -1.
         -5    1    5    5    0  502  0.71526026146E+02  0.44292891538E+02  0.46173084336E+03  0.46935625528E+03  0.47000000000E+01 0.  1.
         13    1    6    6    0    0 -0.14022279311E+02  0.51836853659E+02  0.31394663563E+03  0.31850615965E+03  0.00000000000E+00 0. -1.
        -14    1    6    6    0    0 -0.39570748152E+02 -0.27020929725E+02  0.31833690401E+03  0.32192290880E+03  0.00000000000E+00 0.  1.
</event>
<event>
12    1  0.8562501E-002  0.2249438E+03  0.7818608E-02  0.1132157E+00
         21   -1    0    0  503  502  0.00000000000E+00  0.00000000000E+00  0.32977017534E+03  0.32977017534E+03  0.00000000000E+00 0.  1.
         21   -1    0    0  501  503 -0.00000000000E+00 -0.00000000000E+00 -0.15376315167E+03  0.15376315167E+03  0.00000000000E+00 0.  1.
          6    2    1    2  501    0 -0.25797440545E+02 -0.14342005087E+03  0.13852190236E+03  0.25548765656E+03  0.15764138509E+03 0.  0.
         24    2    3    3    0    0 -0.69458550484E+02 -0.10136941819E+03  0.68441953134E+02  0.16270922419E+03  0.81790839999E+02 0.  0.
         -6    2    1    2    0  502  0.25797440545E+02  0.14342005087E+03  0.37485121304E+02  0.22804567045E+03  0.17136182353E+03 0.  0.
        -24    2    5    5    0    0 -0.25859146446E+02  0.19199192247E+02  0.38781935920E+02  0.93423991573E+02  0.78655573292E+02 0.  0.
          5    1    3    3  501    0  0.43661109939E+02 -0.42050632675E+02  0.70079949229E+02  0.92778432372E+02  0.47000000000E+01 0. -1.
        -13    1    4    4    0    0 -0.83961743571E+02 -0.96144280173E+02  0.72460760519E+02  0.14677826409E+03  0.00000000000E+00 0.  1.
         14    1    4    4    0    0  0.14503193087E+02 -0.52251380206E+01 -0.40188073843E+01  0.15930960104E+02  0.00000000000E+00 0. -1.
         -5    1    5    5    0  502  0.51656586991E+02  0.12422085862E+03 -0.12968146156E+01  0.13462167888E+03  0.47000000000E+01 0.  1.
         13    1    6    6    0    0 -0.40410399018E+02 -0.94438511971E+01 -0.19520105734E+01  0.41545120285E+02  0.00000000000E+00 0. -1.
        -14    1    6    6    0    0  0.14551252572E+02  0.28643043444E+02  0.40733946493E+02  0.51878871288E+02  0.00000000000E+00 0.  1.
</event>
<event>
12    1  0.8562501E-002  0.2544198E+03  0.7818608E-02  0.1110557E+00
         21   -1    0    0  501  502  0.00000000000E+00  0.00000000000E+00  0.50744844790E+03  0.50744844790E+03  0.00000000000E+00 0. -1.
         21   -1    0    0  502  503 -0.00000000000E+00 -0.00000000000E+00 -0.12830032729E+03  0.12830032729E+03  0.00000000000E+00 0. -1.
         -6    2    1    2    0  503 -0.86897677686E+02  0.16543329447E+03  0.16462188917E+03  0.30295613367E+03  0.17251861125E+03 0.  0.
        -24    2    3    3    0    0 -0.11172120016E+03  0.16769946974E+03  0.17091462062E+03  0.27682126640E+03  0.82543729456E+02 0.  0.
          6    2    1    2  501    0  0.86897677686E+02 -0.16543329447E+03  0.21452623143E+03  0.33279264152E+03  0.17265589179E+03 0.  0.
         24    2    5    5    0    0  0.43629443197E+02 -0.18209156224E+03  0.15098757274E+03  0.25399613684E+03  0.81583852909E+02 0.  0.
          5    1    5    5  501    0  0.43268234489E+02  0.16658267771E+02  0.63538658690E+02  0.78796504675E+02  0.47000000000E+01 0. -1.
        -13    1    6    6    0    0 -0.13771873260E+02 -0.23055596839E+02 -0.67522255331E+00  0.26864120387E+02  0.00000000000E+00 0.  1.
         14    1    6    6    0    0  0.57401316457E+02 -0.15903596540E+03  0.15166279530E+03  0.22713201646E+03  0.00000000000E+00 0. -1.
         -5    1    3    3    0  503  0.24823522477E+02 -0.22661752666E+01 -0.62927314450E+01  0.26134867277E+02  0.47000000000E+01 0.  1.
         13    1    4    4    0    0  0.91500691999E+00  0.56210263896E+02  0.25484310525E+02  0.61724234203E+02  0.00000000000E+00 0. -1.
        -14    1    4    4    0    0 -0.11263620708E+03  0.11148920584E+03  0.14543031009E+03  0.21509703219E+03  0.00000000000E+00 0.  1.
</event>
<event>
12    1  0.8562501E-002  0.1777521E+03  0.7818608E-02  0.1170180E+00
         21   -1    0    0  501  502  0.00000000000E+00  0.00000000000E+00  0.35358546455E+03  0.35358546455E+03  0.00000000000E+00 0. -1.
         21   -1    0    0  502  503 -0.00000000000E+00 -0.00000000000E+00 -0.12653526233E+03  0.12653526233E+03  0.00000000000E+00 0. -1.
         -6    2    1    2    0  503 -0.43747387019E+02  0.50331753562E+01 -0.17082022103E+02  0.17857101832E+03  0.17221105185E+03 0.  0.
        -24    2    3    3    0    0 -0.33680305093E+02  0.70270530893E+02 -0.20648650314E+02  0.11229832762E+03  0.78180797919E+02 0.  0.
          6    2    1    2  501    0  0.43747387019E+02 -0.50331753562E+01  0.24413222432E+03  0.30154970856E+03  0.17144245990E+03 0.  0.
         24    2    5    5    0    0  0.47041889640E+02  0.10482663138E+02  0.26080609931E+03  0.27806134763E+03  0.83519255287E+02 0.  0.
          5    1    5    5  501    0 -0.32945026206E+01 -0.15515838494E+02 -0.16673874993E+02  0.23488360926E+02  0.47000000000E+01 0. -1.
        -11    1    6    6    0    0  0.47331567875E+02  0.76721615136E+01  0.58079771204E+02  0.75315331791E+02  0.00000000000E+00 0.  1.
         12    1    6    6    0    0 -0.28967823508E+00  0.28105016246E+01  0.20272632811E+03  0.20274601584E+03  0.00000000000E+00 0. -1.
         -5    1    3    3    0  503 -0.10067081926E+02 -0.65237355536E+02  0.35666282103E+01  0.66272690700E+02  0.47000000000E+01 0.  1.
         13    1    4    4    0    0  0.78388702114E+01 -0.10196760337E+02 -0.17471736914E+02  0.21695239071E+02  0.00000000000E+00 0. -1.
        -14    1    4    4    0    0 -0.41519175304E+02  0.80467291230E+02 -0.31769133995E+01  0.90603088548E+02  0.00000000000E+00 0.  1.
</event>
<event>
12    1  0.8562501E-002  0.1789324E+03  0.7818608E-02  0.1168986E+00
         21   -1    0    0  501  502  0.00000000000E+00  0.00000000000E+00  0.38578539408E+03  0.38578539408E+03  0.00000000000E+00 0.  1.
         21   -1    0    0  502  503 -0.00000000000E+00 -0.00000000000E+00 -0.14545771937E+03  0.14545771937E+03  0.00000000000E+00 0.  1.
         -6    2    1    2    0  503 -0.20653591318E+02  0.45655468573E+02 -0.54404135445E+02  0.18644806131E+03  0.17114928269E+03 0.  0.
        -24    2    3    3    0    0 -0.13817043839E+02 -0.13077395708E+02 -0.81191177584E+02  0.12136408974E+03  0.88177695494E+02 0.  0.
          6    2    1    2  501    0  0.20653591318E+02 -0.45655468573E+02  0.29473181016E+03  0.34479505214E+03  0.17177251065E+03 0.  0.
         24    2    5    5    0    0  0.70281692729E+02 -0.29989118020E+02  0.25887492691E+03  0.28142164238E+03  0.79643263875E+02 0.  0.
          5    1    5    5  501    0 -0.49628101411E+02 -0.15666350553E+02  0.35856883248E+02  0.63373409768E+02  0.47000000000E+01 0. -1.
        -11    1    6    6    0    0  0.60380118462E+01 -0.43027170200E+02  0.12548672608E+03  0.13279575816E+03  0.00000000000E+00 0.  1.
         12    1    6    6    0    0  0.64243680882E+02  0.13038052180E+02  0.13338820084E+03  0.14862588422E+03  0.00000000000E+00 0. -1.
         -5    1    3    3    0  503 -0.68365474785E+01  0.58732864281E+02  0.26787042139E+02  0.65083971565E+02  0.47000000000E+01 0.  1.
         13    1    4    4    0    0  0.89520182260E+01  0.35239625647E+02 -0.38799612281E+02  0.53173111243E+02  0.00000000000E+00 0. -1.
        -14    1    4    4    0    0 -0.22769062065E+02 -0.48317021355E+02 -0.42391565303E+02  0.68190978500E+02  0.00000000000E+00 0.  1.
</event>
<event>
12    1  0.8562501E-002  0.1801357E+03  0.7818608E-02  0.1168804E+00
         21   -1    0    0  503  502  0.00000000000E+00  0.00000000000E+00  0.32700426255E+02  0.32700426255E+02  0.00000000000E+00 0.  1.
         21   -1    0    0  501  503 -0.00000000000E+00 -0.00000000000E+00 -0.26500556339E+04  0.26500556339E+04  0.00000000000E+00 0.  1.
          6    2    1    2  501    0  0.33830059253E+02 -0.48452179945E+01 -0.23714222505E+04  0.23779087318E+04  0.17215835070E+03 0.  0.
         24    2    3    3    0    0 -0.17242623198E+02 -0.68171840682E+02 -0.11814463643E+04  0.11851458133E+04  0.61728269092E+02 0.  0.
         -6    2    1    2    0  502 -0.33830059253E+02  0.48452179945E+01 -0.24593295716E+03  0.30484732833E+03  0.17686414314E+03 0.  0.
        -24    2    5    5    0    0 -0.28401784833E+02  0.27384964296E+02 -0.26139431079E+03  0.27658693586E+03  0.81343406146E+02 0.  0.
          5    1    3    3  501    0  0.51072682451E+02  0.63326622687E+02 -0.11899758862E+04  0.11927629185E+04  0.47000000000E+01 0. -1.
        -11    1    4    4    0    0 -0.47556363307E+01 -0.69855376292E+02 -0.11304380221E+04  0.11326043049E+04  0.00000000000E+00 0.  1.
         12    1    4    4    0    0 -0.12486986867E+02  0.16835356101E+01 -0.51008342179E+02  0.52541508401E+02  0.00000000000E+00 0. -1.
         -5    1    5    5    0  502 -0.54282744196E+01 -0.22539746301E+02  0.15461353635E+02  0.28260392473E+02  0.47000000000E+01 0.  1.
         13    1    6    6    0    0 -0.43264919276E+02 -0.12536162793E+01 -0.21939869865E+03  0.22362739940E+03  0.00000000000E+00 0. -1.
        -14    1    6    6    0    0  0.14863134442E+02  0.28638580575E+02 -0.41995612139E+02  0.52959536457E+02  0.00000000000E+00 0.  1.
</event>
<event>
12    1  0.8562501E-002  0.1985763E+03  0.7818608E-02  0.1151064E+00
         21   -1    0    0  501  502  0.00000000000E+00  0.00000000000E+00  0.77805131443E+02  0.77805131443E+02  0.00000000000E+00 0.  1.
         21   -1    0    0  502  503 -0.00000000000E+00 -0.00000000000E+00 -0.50968526208E+03  0.50968526208E+03  0.00000000000E+00 0.  1.
         -6    2    1    2    0  503  0.91160085951E+02 -0.38870978506E+02 -0.18869045278E+03  0.27352582461E+03  0.17143854735E+03 0.  0.
        -24    2    3    3    0    0 -0.13053368905E+02 -0.40219285659E+02 -0.92210362878E+02  0.13142459360E+03  0.83556516224E+02 0.  0.
          6    2    1    2  501    0 -0.91160085951E+02  0.38870978506E+02 -0.24318967786E+03  0.31396456892E+03  0.17207968177E+03 0.  0.
         24    2    5    5    0    0 -0.76878864895E+02  0.85897090080E+02 -0.12647678800E+03  0.18723889234E+03  0.75982596359E+02 0.  0.
          5    1    5    5  501    0 -0.14281221056E+02 -0.47026111574E+02 -0.11671288986E+03  0.12672567658E+03  0.47000000000E+01 0. -1.
        -13    1    6    6    0    0 -0.16070847435E+02  0.64787220576E+02 -0.93592325186E+02  0.11495729390E+03  0.00000000000E+00 0.  1.
         14    1    6    6    0    0 -0.60808017460E+02  0.21109869504E+02 -0.32884462809E+02  0.72281598434E+02  0.00000000000E+00 0. -1.
         -5    1    3    3    0  503  0.10421345486E+03  0.13483071535E+01 -0.96480089902E+02  0.14210123100E+03  0.47000000000E+01 0.  1.
         11    1    4    4    0    0 -0.11669455750E+02 -0.37230544033E+02  0.13874027786E+00  0.39016776588E+02  0.00000000000E+00 0. -1.
        -12    1    4    4    0    0 -0.13839131547E+01 -0.29887416269E+01 -0.92349103156E+02  0.92407817017E+02  0.00000000000E+00 0.  1.
</event>
<event>
12    1  0.8562501E-002  0.2091132E+03  0.7818608E-02  0.1142339E+00
         21   -1    0    0  501  502  0.00000000000E+00  0.00000000000E+00  0.52366706100E+03  0.52366706100E+03  0.00000000000E+00 0. -1.
         21   -1    0    0  502  503 -0.00000000000E+00 -0.00000000000E+00 -0.25484989328E+03  0.25484989328E+03  0.00000000000E+00 0. -1.
         -6    2    1    2    0  503 -0.24275550117E+02 -0.11537382293E+03 -0.18493391745E+03  0.27889872092E+03  0.17228906337E+03 0.  0.
        -24    2    3    3    0    0  0.48122646917E+02 -0.96219628041E+02 -0.12111220038E+03  0.18039144360E+03  0.79365621498E+02 0.  0.
          6    2    1    2  501    0  0.24275550117E+02  0.11537382293E+03  0.45375108517E+03  0.49961823335E+03  0.17270758655E+03 0.  0.
         24    2    5    5    0    0  0.18551425732E+01  0.17669472023E+02  0.13712008664E+03  0.16746451277E+03  0.94481707667E+02 0.  0.
          5    1    5    5  501    0  0.22420407544E+02  0.97704350910E+02  0.31663099854E+03  0.33215372058E+03  0.47000000000E+01 0. -1.
        -13    1    6    6    0    0  0.94082449102E+01  0.53942448683E+02  0.56197384686E+02  0.78463041541E+02  0.00000000000E+00 0.  1.
         14    1    6    6    0    0 -0.75531023371E+01 -0.36272976660E+02  0.80922701951E+02  0.89001471233E+02  0.00000000000E+00 0. -1.
         -5    1    3    3    0  503 -0.72398197034E+02 -0.19154194893E+02 -0.63821717075E+02  0.98507277326E+02  0.47000000000E+01 0.  1.
         13    1    4    4    0    0  0.49950121691E+02 -0.52539909897E+02 -0.11542860376E+03  0.13630561014E+03  0.00000000000E+00 0. -1.
        -14    1    4    4    0    0 -0.18274747744E+01 -0.43679718144E+02 -0.56835966171E+01  0.44085833458E+02  0.00000000000E+00 0.  1.
</event>
<event>
12    1  0.8562501E-002  0.1731254E+03  0.7818608E-02  0.1174735E+00
         21   -1    0    0  503  502  0.00000000000E+00  0.00000000000E+00  0.66719902619E+03  0.66719902619E+03  0.00000000000E+00 0. -1.
         21   -1    0    0  501  503 -0.00000000000E+00 -0.00000000000E+00 -0.93470174980E+02  0.93470174980E+02  0.00000000000E+00 0. -1.
          6    2    1    2  501    0  0.10453299175E+02 -0.16597338650E+02  0.12621313054E+02  0.17358489206E+03  0.17201068017E+03 0.  0.
         24    2    3    3    0    0  0.31784019514E+02 -0.73013017560E+02  0.14952656756E+02  0.11304355395E+03  0.78829807274E+02 0.  0.
         -6    2    1    2    0  502 -0.10453299175E+02  0.16597338650E+02  0.56110753815E+03  0.58708430911E+03  0.17158547000E+03 0.  0.
        -24    2    5    5    0    0 -0.19451937437E+02  0.49000624721E+02  0.53848242652E+03  0.54628070492E+03  0.75364751696E+02 0.  0.
          5    1    3    3  501    0 -0.21330720339E+02  0.56415678909E+02 -0.23313437021E+01  0.60541338112E+02  0.47000000000E+01 0. -1.
        -11    1    4    4    0    0  0.71908046157E+01 -0.84348626415E+02  0.76693082206E+01  0.85001274918E+02  0.00000000000E+00 0.  1.
         12    1    4    4    0    0  0.24593214898E+02  0.11335608855E+02  0.72833485352E+01  0.28042279027E+02  0.00000000000E+00 0. -1.
         -5    1    5    5    0  502  0.89986382628E+01 -0.32403286070E+02  0.22625111633E+02  0.40803604193E+02  0.47000000000E+01 0.  1.
         13    1    6    6    0    0 -0.36533742000E+02  0.48439235538E+02  0.24866142657E+03  0.25595620506E+03  0.00000000000E+00 0. -1.
        -14    1    6    6    0    0  0.17081804563E+02  0.56138918321E+00  0.28982099995E+03  0.29032449985E+03  0.00000000000E+00 0.  1.
</event>
<event>
12    1  0.8562501E-002  0.2198042E+03  0.7818608E-02  0.1134051E+00
         21   -1    0    0  503  502  0.00000000000E+00  0.00000000000E+00  0.15973472051E+03  0.15973472051E+03  0.00000000000E+00 0.  1.
         21   -1    0    0  501  503 -0.00000000000E+00 -0.00000000000E+00 -0.31294801444E+03  0.31294801444E+03  0.00000000000E+00 0. -1.
          6    2    1    2  501    0 -0.13659413829E+03 -0.12217628044E+02 -0.12021411560E+03  0.25053005218E+03  0.17177498190E+03 0.  0.
         24    2    3    3    0    0 -0.13923766928E+03 -0.23530792822E+02 -0.34131778251E+02  0.16354019785E+03  0.75097212127E+02 0.  0.
         -6    2    1    2    0  502  0.13659413829E+03  0.12217628044E+02 -0.32999178329E+02  0.22215268277E+03  0.17162645379E+03 0.  0.
        -24    2    5    5    0    0  0.88789387271E+02  0.47268833241E+02  0.33800523132E+02  0.13272018688E+03  0.79713704927E+02 0.  0.
          5    1    3    3  501    0  0.26435309853E+01  0.11313164778E+02 -0.86082337346E+02  0.86989854330E+02  0.47000000000E+01 0. -1.
        -11    1    4    4    0    0 -0.53750661989E+02  0.12010918637E+02  0.17176184666E+02  0.57692435816E+02  0.00000000000E+00 0.  1.
         12    1    4    4    0    0 -0.85487007289E+02 -0.35541711459E+02 -0.51307962917E+02  0.10584776203E+03  0.00000000000E+00 0. -1.
         -5    1    5    5    0  502  0.47804751021E+02 -0.35051205198E+02 -0.66799701461E+02  0.89432495891E+02  0.47000000000E+01 0.  1.
         13    1    6    6    0    0  0.75004890577E+02  0.38099194565E+02 -0.11108365972E+02  0.84856808987E+02  0.00000000000E+00 0. -1.
        -14    1    6    6    0    0  0.13784496694E+02  0.91696386761E+01  0.44908889104E+02  0.47863377891E+02  0.00000000000E+00 0.  1.
</event>
<event>
12    1  0.8562501E-002  0.1759608E+03  0.7818608E-02  0.1173126E+00
         21   -1    0    0  501  502  0.00000000000E+00  0.00000000000E+00  0.18642148961E+03  0.18642148961E+03  0.00000000000E+00 0.  1.
         21   -1    0    0  502  503 -0.00000000000E+00 -0.00000000000E+00 -0.42735416525E+03  0.42735416525E+03  0.00000000000E+00 0.  1.
         -6    2    1    2    0  503  0.40532760189E+02  0.20531385957E+01 -0.36340041537E+03  0.40375991983E+03  0.17121650314E+03 0.  0.
        -24    2    3    3    0    0  0.48482692875E+01  0.42840370348E+02 -0.32704424891E+03  0.33833177601E+03  0.75177435882E+02 0.  0.
          6    2    1    2  501    0 -0.40532760189E+02 -0.20531385957E+01  0.12246773973E+03  0.21001573503E+03  0.16571403580E+03 0.  0.
         24    2    5    5    0    0  0.77443604024E+01  0.31633832011E+02  0.13202213524E+02  0.85812121646E+02  0.78286316388E+02 0.  0.
          5    1    5    5  501    0 -0.48277120592E+02 -0.33686970607E+02  0.10926552621E+03  0.12420361339E+03  0.47000000000E+01 0. -1.
        -13    1    6    6    0    0 -0.31943822789E+02  0.17961131599E+02  0.22247330161E+02  0.42871362959E+02  0.00000000000E+00 0.  1.
         14    1    6    6    0    0  0.39688183191E+02  0.13672700412E+02 -0.90451166375E+01  0.42940758686E+02  0.00000000000E+00 0. -1.
         -5    1    3    3    0  503  0.35684490902E+02 -0.40787231753E+02 -0.36356166458E+02  0.65428143826E+02  0.47000000000E+01 0.  1.
         11    1    4    4    0    0  0.19775610624E+02  0.43060601493E+02 -0.98545020351E+02  0.10934537582E+03  0.00000000000E+00 0. -1.
        -12    1    4    4    0    0 -0.14927341337E+02 -0.22023114481E+00 -0.22849922856E+03  0.22898640019E+03  0.00000000000E+00 0.  1.
</event>
<event>
12    1  0.8562501E-002  0.2402318E+03  0.7818608E-02  0.1119917E+00
         21   -1    0    0  503  502  0.00000000000E+00  0.00000000000E+00  0.19614370938E+03  0.19614370938E+03  0.00000000000E+00 0. -1.
         21   -1    0    0  501  503 -0.00000000000E+00 -0.00000000000E+00 -0.30236785691E+03  0.30236785691E+03  0.00000000000E+00 0.  1.
          6    2    1    2  501    0  0.11018243486E+03  0.12353263266E+03 -0.98655221749E+02  0.25816060344E+03  0.17179512247E+03 0.  0.
         24    2    3    3    0    0  0.40917848751E+02  0.13292867255E+03 -0.98004227728E+02  0.18810075582E+03  0.80204509575E+02 0.  0.
         -6    2    1    2    0  502 -0.11018243486E+03 -0.12353263266E+03 -0.75689257864E+01  0.24035096285E+03  0.17410001844E+03 0.  0.
        -24    2    5    5    0    0 -0.47647318587E+02  0.73334420532E+01 -0.14008585836E+02  0.95092126627E+02  0.80760297971E+02 0.  0.
          5    1    3    3  501    0  0.69264586110E+02 -0.93960398860E+01 -0.65099402110E+00  0.70059847614E+02  0.47000000000E+01 0. -1.
        -13    1    4    4    0    0  0.22714620125E+02  0.62399678512E+02 -0.51793354424E+00  0.66407394926E+02  0.00000000000E+00 0.  1.
         14    1    4    4    0    0  0.18203228626E+02  0.70528994039E+02 -0.97486294184E+02  0.12169336090E+03  0.00000000000E+00 0. -1.
         -5    1    5    5    0  502 -0.62535116274E+02 -0.13086607472E+03  0.64396600494E+01  0.14525883622E+03  0.47000000000E+01 0.  1.
         11    1    6    6    0    0 -0.68595104436E+02  0.56969476680E+01  0.17086521290E+01  0.68852473140E+02  0.00000000000E+00 0. -1.
        -12    1    6    6    0    0  0.20947785850E+02  0.16364943852E+01 -0.15717237965E+02  0.26239653487E+02  0.00000000000E+00 0.  1.
</event>
<event>
12    1  0.8562501E-002  0.1741804E+03  0.7818608E-02  0.1173777E+00
         21   -1    0    0  503  502  0.00000000000E+00  0.00000000000E+00  0.83149545027E+02  0.83149545027E+02  0.00000000000E+00 0. -1.
         21   -1    0    0  501  503 -0.00000000000E+00 -0.00000000000E+00 -0.38436433870E+03  0.38436433870E+03  0.00000000000E+00 0. -1.
          6    2    1    2  501    0 -0.22509794864E+02  0.86748801614E+01 -0.20600991777E+03  0.26977566615E+03  0.17250182438E+03 0.  0.
         24    2    3    3    0    0 -0.63636758748E+02 -0.18529381194E+02 -0.69984723977E+02  0.12501226490E+03  0.79606719278E+02 0.  0.
         -6    2    1    2    0  502  0.22509794864E+02 -0.86748801614E+01 -0.95204875908E+02  0.19773821758E+03  0.17162310417E+03 0.  0.
        -24    2    5    5    0    0 -0.49087643080E+02 -0.10494392957E+02 -0.24805057071E+02  0.97201019298E+02  0.79454504653E+02 0.  0.
          5    1    3    3  501    0  0.41126963884E+02  0.27204261355E+02 -0.13602519379E+03  0.14476340125E+03  0.47000000000E+01 0. -1.
        -11    1    4    4    0    0  0.11951356275E+02 -0.24827076765E+02 -0.15422992401E+02  0.31576690012E+02  0.00000000000E+00 0.  1.
         12    1    4    4    0    0 -0.75588115023E+02  0.62976955718E+01 -0.54561731576E+02  0.93435574889E+02  0.00000000000E+00 0. -1.
         -5    1    5    5    0  502  0.71597437943E+02  0.18195127951E+01 -0.70399818837E+02  0.10053719829E+03  0.47000000000E+01 0.  1.
         11    1    6    6    0    0 -0.13806501843E+02  0.25323684236E+02  0.15517913448E+02  0.32752314639E+02  0.00000000000E+00 0. -1.
        -12    1    6    6    0    0 -0.35281141237E+02 -0.35818077193E+02 -0.40322970519E+02  0.64448704659E+02  0.00000000000E+00 0.  1.
</event>
<event>
12    1  0.8562501E-002  0.1830865E+03  0.7818608E-02  0.1164992E+00
         21   -1    0    0  503  502  0.00000000000E+00  0.00000000000E+00  0.18649296272E+02  0.18649296272E+02  0.00000000000E+00 0.  1.
         21   -1    0    0  501  503 -0.00000000000E+00 -0.00000000000E+00 -0.29246517476E+04  0.29246517476E+04  0.00000000000E+00 0.  1.
          6    2    1    2  501    0  0.63013978591E+02  0.35496808494E+01 -0.53548729342E+03  0.56572606322E+03  0.17121908613E+03 0.  0.
         24    2    3    3    0    0  0.10435852845E+03 -0.22896273254E+02 -0.38227465633E+03  0.40477587696E+03  0.79338867574E+02 0.  0.
         -6    2    1    2    0  502 -0.63013978591E+02 -0.35496808494E+01 -0.23705151579E+04  0.23775749807E+04  0.17186422849E+03 0.  0.
        -24    2    5    5    0    0 -0.10707114212E+03 -0.14627237399E+02 -0.19378717682E+04  0.19425276975E+04  0.79929218962E+02 0.  0.
          5    1    3    3  501    0 -0.41344549860E+02  0.26445954103E+02 -0.15321263709E+03  0.16095018625E+03  0.47000000000E+01 0. -1.
        -13    1    4    4    0    0  0.69828763593E+02 -0.39113481812E+02 -0.33286937690E+03  0.34235645570E+03  0.00000000000E+00 0.  1.
         14    1    4    4    0    0  0.34529764858E+02  0.16217208559E+02 -0.49405279434E+02  0.62419421261E+02  0.00000000000E+00 0. -1.
         -5    1    5    5    0  502  0.44057163527E+02  0.11077556549E+02 -0.43264338975E+03  0.43504728319E+03  0.47000000000E+01 0.  1.
         11    1    6    6    0    0  0.10515555826E+02  0.33148338003E+01 -0.36423468415E+03  0.36440152329E+03  0.00000000000E+00 0. -1.
        -12    1    6    6    0    0 -0.11758669794E+03 -0.17942071199E+02 -0.15736370840E+04  0.15781261742E+04  0.00000000000E+00 0.  1.
</event>
<event>
12    1  0.8562501E-002  0.1768283E+03  0.7818608E-02  0.1170998E+00
         21   -1    0    0  503  502  0.00000000000E+00  0.00000000000E+00  0.37686364493E+02  0.37686364493E+02  0.00000000000E+00 0. -1.
         21   -1    0    0  501  503 -0.00000000000E+00 -0.00000000000E+00 -0.90894314628E+03  0.90894314628E+03  0.00000000000E+00 0. -1.
          6    2    1    2  501    0  0.20625211280E+02  0.34220706709E+02 -0.29396855385E+03  0.34286634675E+03  0.17188183434E+03 0.  0.
         24    2    3    3    0    0  0.24316610593E+02  0.26085710509E+02 -0.31110060310E+03  0.32298163646E+03  0.79131475399E+02 0.  0.
         -6    2    1    2    0  502 -0.20625211280E+02 -0.34220706709E+02 -0.57728822794E+03  0.60376316403E+03  0.17225505509E+03 0.  0.
        -24    2    5    5    0    0 -0.50916553773E+02  0.34147169777E+02 -0.36421946623E+03  0.37790453748E+03  0.79984343579E+02 0.  0.
          5    1    3    3  501    0 -0.36913993130E+01  0.81349962003E+01  0.17132049248E+02  0.19884710295E+02  0.47000000000E+01 0. -1.
        -13    1    4    4    0    0  0.48043476993E+02  0.36834095199E+02 -0.22750400201E+03  0.23542089368E+03  0.00000000000E+00 0.  1.
         14    1    4    4    0    0 -0.23726866400E+02 -0.10748384690E+02 -0.83596601086E+02  0.87560742778E+02  0.00000000000E+00 0. -1.
         -5    1    5    5    0  502  0.30291342493E+02 -0.68367876486E+02 -0.21306876172E+03  0.22585862654E+03  0.47000000000E+01 0.  1.
         11    1    6    6    0    0  0.68076639312E+01 -0.13658214828E+02 -0.15342412689E+03  0.15418123697E+03  0.00000000000E+00 0. -1.
        -12    1    6    6    0    0 -0.57724217704E+02  0.47805384605E+02 -0.21079533934E+03  0.22372330052E+03  0.00000000000E+00 0.  1.
</event>
<event>
12    1  0.8562501E-002  0.1746672E+03  0.7818608E-02  0.1173957E+00
         21   -1    0    0  503  502  0.00000000000E+00  0.00000000000E+00  0.10416210553E+04  0.10416210553E+04  0.00000000000E+00 0.  1.
         21   -1    0    0  501  503 -0.00000000000E+00 -0.00000000000E+00 -0.37475320323E+02  0.37475320323E+02  0.00000000000E+00 0.  1.
          6    2    1    2  501    0  0.38414449630E+01 -0.37700501341E+02  0.23718183188E+03  0.29249466899E+03  0.16691861944E+03 0.  0.
         24    2    3    3    0    0  0.24747504564E+01 -0.15443043916E+02  0.36150384247E+02  0.90175625891E+02  0.81118316232E+02 0.  0.
         -6    2    1    2    0  502 -0.38414449630E+01  0.37700501341E+02  0.76696390305E+03  0.78660170658E+03  0.17050669112E+03 0.  0.
        -24    2    5    5    0    0  0.40957968472E+02 -0.36473139045E+02  0.39710496178E+03  0.40669850469E+03  0.68581907179E+02 0.  0.
          5    1    3    3  501    0  0.13666945066E+01 -0.22257457426E+02  0.20103144763E+03  0.20231904310E+03  0.47000000000E+01 0. -1.
        -13    1    4    4    0    0  0.21069333717E+02  0.28143153511E+02  0.13575299846E+02  0.37686107238E+02  0.00000000000E+00 0.  1.
         14    1    4    4    0    0 -0.18594583261E+02 -0.43586197426E+02  0.22575084401E+02  0.52489518653E+02  0.00000000000E+00 0. -1.
         -5    1    5    5    0  502 -0.44799413435E+02  0.74173640386E+02  0.36985894127E+03  0.37990320190E+03  0.47000000000E+01 0.  1.
         11    1    6    6    0    0  0.25732369610E+02 -0.36948196867E+01  0.32504501968E+03  0.32608292098E+03  0.00000000000E+00 0. -1.
        -12    1    6    6    0    0  0.15225598861E+02 -0.32778319358E+02  0.72059942102E+02  0.80615583706E+02  0.00000000000E+00 0.  1.
</event>
<event>
12    1  0.8562501E-002  0.1918955E+03  0.7818608E-02  0.1156791E+00
         21   -1    0    0  501  502  0.00000000000E+00  0.00000000000E+00  0.20699817966E+04  0.20699817966E+04  0.00000000000E+00 0. -1.
         21   -1    0    0  502  503 -0.00000000000E+00 -0.00000000000E+00 -0.31515453413E+02  0.31515453413E+02  0.00000000000E+00 0. -1.
         -6    2    1    2    0  503 -0.42163537773E+02  0.73603857541E+02  0.32529913451E+03  0.37761622879E+03  0.17198603889E+03 0.  0.
        -24    2    3    3    0    0 -0.70804705051E+02  0.95890462714E+02  0.17244653430E+03  0.22044429547E+03  0.68187925013E+02 0.  0.
          6    2    1    2  501    0  0.42163537773E+02 -0.73603857541E+02  0.17131672087E+04  0.17238810212E+04  0.17212959846E+03 0.  0.
         24    2    5    5    0    0 -0.93541588821E+01 -0.30337338703E+02  0.40615324066E+03  0.41512830687E+03  0.79769680067E+02 0.  0.
          5    1    5    5  501    0  0.51517696655E+02 -0.43266518838E+02  0.13070139680E+04  0.13087527143E+04  0.47000000000E+01 0. -1.
        -11    1    6    6    0    0 -0.30200998658E+02  0.75654945069E+01  0.28080871490E+03  0.28252941686E+03  0.00000000000E+00 0.  1.
         12    1    6    6    0    0  0.20846839776E+02 -0.37902833209E+02  0.12534452576E+03  0.13259889001E+03  0.00000000000E+00 0. -1.
         -5    1    3    3    0  503  0.28641167278E+02 -0.22286605173E+02  0.15285260021E+03  0.15717193332E+03  0.47000000000E+01 0.  1.
         11    1    4    4    0    0 -0.63564386593E+01 -0.10884777392E+02  0.16109775616E+02  0.20455013119E+02  0.00000000000E+00 0. -1.
        -12    1    4    4    0    0 -0.64448266392E+02  0.10677524011E+03  0.15633675868E+03  0.19998928235E+03  0.00000000000E+00 0.  1.
</event>
<event>
12    1  0.8562501E-002  0.1760987E+03  0.7818608E-02  0.1171834E+00
         21   -1    0    0  501  502  0.00000000000E+00  0.00000000000E+00  0.19512848156E+03  0.19512848156E+03  0.00000000000E+00 0. -1.
         21   -1    0    0  502  503 -0.00000000000E+00 -0.00000000000E+00 -0.22477116020E+03  0.22477116020E+03  0.00000000000E+00 0. -1.
         -6    2    1    2    0  503 -0.25434247318E+02  0.23315462082E+02 -0.12910479362E+03  0.21835472217E+03  0.17268533594E+03 0.  0.
        -24    2    3    3    0    0 -0.42971110508E+01  0.76062185501E+02 -0.50511799777E+02  0.12125712157E+03  0.79673875188E+02 0.  0.
          6    2    1    2  501    0  0.25434247318E+02 -0.23315462082E+02  0.99462114989E+02  0.20154491959E+03  0.17186369769E+03 0.  0.
         24    2    5    5    0    0  0.98753420516E+01  0.46902156857E+02  0.92928181842E+02  0.12917520337E+03  0.75850191085E+02 0.  0.
          5    1    5    5  501    0  0.15558905267E+02 -0.70217618939E+02  0.65339331472E+01  0.72369716214E+02  0.47000000000E+01 0. -1.
        -13    1    6    6    0    0  0.10964729511E+02  0.63251207539E+02  0.44659090128E+02  0.78200862396E+02  0.00000000000E+00 0.  1.
         14    1    6    6    0    0 -0.10893874596E+01 -0.16349050682E+02  0.48269091713E+02  0.50974340977E+02  0.00000000000E+00 0. -1.
         -5    1    3    3    0  503 -0.21137136268E+02 -0.52746723420E+02 -0.78592993848E+02  0.97097600604E+02  0.47000000000E+01 0.  1.
         11    1    4    4    0    0 -0.15843574065E+02  0.10247805880E+02 -0.51060422300E+02  0.54435311058E+02  0.00000000000E+00 0. -1.
        -12    1    4    4    0    0  0.11546463014E+02  0.65814379621E+02  0.54862252343E+00  0.66821810509E+02  0.00000000000E+00 0.  1.
</event>
<event>
12    1  0.8562501E-002  0.2352502E+03  0.7818608E-02  0.1123559E+00
         21   -1    0    0  501  502  0.00000000000E+00  0.00000000000E+00  0.25436085674E+03  0.25436085674E+03  0.00000000000E+00 0.  1.
         21   -1    0    0  502  503 -0.00000000000E+00 -0.00000000000E+00 -0.24882123523E+03  0.24882123523E+03  0.00000000000E+00 0. -1.
         -6    2    1    2    0  503 -0.14157513544E+03 -0.72535354693E+02  0.96089336871E+02  0.25110684394E+03  0.16886855763E+03 0.  0.
        -24    2    3    3    0    0 -0.27519799595E+02 -0.64064643257E+02  0.11911617992E+02  0.10902112705E+03  0.82958433059E+02 0.  0.
          6    2    1    2  501    0  0.14157513544E+03  0.72535354693E+02 -0.90549715367E+02  0.25207524803E+03  0.17331411674E+03 0.  0.
         24    2    5    5    0    0  0.23922136257E+02  0.89505474661E+01  0.81175915503E+01  0.85814659249E+02  0.81522264115E+02 0.  0.
          5    1    5    5  501    0  0.11765299919E+03  0.63584807227E+02 -0.98667306918E+02  0.16626058878E+03  0.47000000000E+01 0. -1.
        -13    1    6    6    0    0  0.38893952741E+02 -0.78075101077E+01  0.33493899181E+02  0.51918571400E+02  0.00000000000E+00 0.  1.
         14    1    6    6    0    0 -0.14971816484E+02  0.16758057574E+02 -0.25376307631E+02  0.33896087849E+02  0.00000000000E+00 0. -1.
         -5    1    3    3    0  503 -0.11405533585E+03 -0.84707114363E+01  0.84177718878E+02  0.14208571689E+03  0.47000000000E+01 0.  1.
         11    1    4    4    0    0  0.27888786306E+02 -0.70443585394E+01  0.52003434905E+01  0.29230993163E+02  0.00000000000E+00 0. -1.
        -12    1    4    4    0    0 -0.55408585902E+02 -0.57020284718E+02  0.67112745019E+01  0.79790133891E+02  0.00000000000E+00 0.  1.
</event>
<event>
12    1  0.8562501E-002  0.2279703E+03  0.7818608E-02  0.1128135E+00
         21   -1    0    0  503  502  0.00000000000E+00  0.00000000000E+00  0.32525893763E+02  0.32525893763E+02  0.00000000000E+00 0. -1.
         21   -1    0    0  501  503 -0.00000000000E+00 -0.00000000000E+00 -0.16544050899E+04  0.16544050899E+04  0.00000000000E+00 0. -1.
          6    2    1    2  501    0 -0.90667745180E+02 -0.11865588322E+03 -0.96950783421E+03  0.99587466128E+03  0.17181688433E+03 0.  0.
         24    2    3    3    0    0 -0.97407453592E+02 -0.81302315844E+02 -0.43923384030E+03  0.46422316708E+03  0.80489153386E+02 0.  0.
         -6    2    1    2    0  502  0.90667745180E+02  0.11865588322E+03 -0.65237136192E+03  0.69105632238E+03  0.17225152599E+03 0.  0.
        -24    2    5    5    0    0  0.20566646370E+02  0.84769347920E+02 -0.17614836976E+03  0.20848727075E+03  0.69497227319E+02 0.  0.
          5    1    3    3  501    0  0.67397084113E+01 -0.37353567377E+02 -0.53027399392E+03  0.53165149420E+03  0.47000000000E+01 0. -1.
        -13    1    4    4    0    0 -0.55517330061E+02  0.16449853916E+00 -0.21373630086E+03  0.22082890957E+03  0.00000000000E+00 0.  1.
         14    1    4    4    0    0 -0.41890123530E+02 -0.81466814383E+02 -0.22549753943E+03  0.24339425750E+03  0.00000000000E+00 0. -1.
         -5    1    5    5    0  502  0.70101098810E+02  0.33886535301E+02 -0.47622299216E+03  0.48256905163E+03  0.47000000000E+01 0.  1.
         13    1    6    6    0    0  0.41028091074E+02  0.47871382544E+02 -0.69711005438E+02  0.93992541209E+02  0.00000000000E+00 0. -1.
        -14    1    6    6    0    0 -0.20461444704E+02  0.36897965376E+02 -0.10643736432E+03  0.11449472954E+03  0.00000000000E+00 0.  1.
</event>
<event>
12    1  0.8562501E-002  0.2682697E+03  0.7818608E-02  0.1102280E+00
         21   -1    0    0  503  502  0.00000000000E+00  0.00000000000E+00  0.85855587392E+03  0.85855587392E+03  0.00000000000E+00 0.  1.
         21   -1    0    0  501  503 -0.00000000000E+00 -0.00000000000E+00 -0.32304586098E+03  0.32304586098E+03  0.00000000000E+00 0.  1.
          6    2    1    2  501    0  0.16285335022E+03  0.12589756342E+03 -0.24065661031E+03  0.36039454736E+03  0.17203841296E+03 0.  0.
         24    2    3    3    0    0  0.97266474003E+02  0.15744101523E+01 -0.91567823333E+02  0.15543737825E+03  0.79453549667E+02 0.  0.
         -6    2    1    2    0  502 -0.16285335022E+03 -0.12589756342E+03  0.77616662325E+03  0.82120718754E+03  0.17197443898E+03 0.  0.
        -24    2    5    5    0    0 -0.77955230193E+02  0.60184893038E+01  0.32185123204E+03  0.34054712009E+03  0.79188921611E+02 0.  0.
          5    1    3    3  501    0  0.65586876213E+02  0.12432315327E+03 -0.14908878697E+03  0.20495716911E+03  0.47000000000E+01 0. -1.
        -13    1    4    4    0    0  0.41174107824E+01  0.25615638137E+02 -0.35889853983E+02  0.44285388196E+02  0.00000000000E+00 0.  1.
         14    1    4    4    0    0  0.93149063221E+02 -0.24041227984E+02 -0.55677969349E+02  0.11115199005E+03  0.00000000000E+00 0. -1.
         -5    1    5    5    0  502 -0.84898120023E+02 -0.13191605273E+03  0.45431539121E+03  0.48066006745E+03  0.47000000000E+01 0.  1.
         13    1    6    6    0    0  0.32295287939E+01  0.27191256569E+02  0.78469842743E+02  0.83110231080E+02  0.00000000000E+00 0. -1.
        -14    1    6    6    0    0 -0.81184758987E+02 -0.21172767265E+02  0.24338138930E+03  0.25743688901E+03  0.00000000000E+00 0.  1.
</event>
<event>
12    1  0.8562501E-002  0.1982050E+03  0.7818608E-02  0.1151971E+00
         21   -1    0    0  503  502  0.00000000000E+00  0.00000000000E+00  0.19644698459E+03  0.19644698459E+03  0.00000000000E+00 0. -1.
         21   -1    0    0  501  503 -0.00000000000E+00 -0.00000000000E+00 -0.20779197684E+03  0.20779197684E+03  0.00000000000E+00 0. -1.
          6    2    1    2  501    0  0.85548427040E+02  0.28933598004E+02 -0.52380324541E+02  0.20183061446E+03  0.17273161863E+03 0.  0.
         24    2    3    3    0    0  0.81158486182E+02  0.20042015133E+02 -0.99675086586E+02  0.15327944204E+03  0.81062212016E+02 0.  0.
         -6    2    1    2    0  502 -0.85548427040E+02 -0.28933598004E+02  0.41035332295E+02  0.20240834696E+03  0.17643569356E+03 0.  0.
        -24    2    5    5    0    0 -0.38040183154E+02 -0.73668795200E+02 -0.12195651782E+02  0.11806441552E+03  0.83164447750E+02 0.  0.
          5    1    3    3  501    0  0.43899408578E+01  0.88915828714E+01  0.47294762045E+02  0.48551172422E+02  0.47000000000E+01 0. -1.
        -11    1    4    4    0    0  0.48151559408E+01 -0.25982253025E+02 -0.31107247564E+02  0.40815732873E+02  0.00000000000E+00 0.  1.
         12    1    4    4    0    0  0.76343330241E+02  0.46024268158E+02 -0.68567839022E+02  0.11246370917E+03  0.00000000000E+00 0. -1.
         -5    1    5    5    0  502 -0.47508243885E+02  0.44735197196E+02  0.53230984077E+02  0.84343931442E+02  0.47000000000E+01 0.  1.
         13    1    6    6    0    0 -0.37457173573E+02 -0.19952347031E+02  0.28110382674E+02  0.50905104048E+02  0.00000000000E+00 0. -1.
        -14    1    6    6    0    0 -0.58300958162E+00 -0.53716448169E+02 -0.40306034456E+02  0.67159311474E+02  0.00000000000E+00 0.  1.
</event>
<event>
12    1  0.8562501E-002  0.2320237E+03  0.7818608E-02  0.1127888E+00
         21   -1    0    0  503  502  0.00000000000E+00  0.00000000000E+00  0.13845406888E+03  0.13845406888E+03  0.00000000000E+00 0. -1.
         21   -1    0    0  501  503 -0.00000000000E+00 -0.00000000000E+00 -0.53938275916E+03  0.53938275916E+03  0.00000000000E+00 0. -1.
          6    2    1    2  501    0  0.11307386579E+03 -0.74644757948E+02 -0.38895113813E+03  0.44550418783E+03  0.16980416518E+03 0.  0.
         24    2    3    3    0    0 -0.32912961251E+01 -0.30784213158E+02 -0.21812309086E+03  0.23415398076E+03  0.79321519968E+02 0.  0.
         -6    2    1    2    0  502 -0.11307386579E+03  0.74644757948E+02 -0.11977552157E+02  0.23233264020E+03  0.18835459892E+03 0.  0.
        -24    2    5    5    0    0 -0.12992748237E+03  0.94751809256E+02  0.30354033951E+02  0.18230873505E+03  0.80349557978E+02 0.  0.
          5    1    3    3  501    0  0.11636516191E+03 -0.43860544790E+02 -0.17082804727E+03  0.21135020707E+03  0.47000000000E+01 0. -1.
        -13    1    4    4    0    0 -0.36406317512E+02 -0.14548429717E+02 -0.59182094904E+02  0.70990119870E+02  0.00000000000E+00 0.  1.
         14    1    4    4    0    0  0.33115021386E+02 -0.16235783441E+02 -0.15894099595E+03  0.16316386089E+03  0.00000000000E+00 0. -1.
         -5    1    5    5    0  502  0.16853616581E+02 -0.20107051308E+02 -0.42331586108E+02  0.50023905152E+02  0.47000000000E+01 0.  1.
         11    1    6    6    0    0 -0.28685373499E+02  0.65445167804E+02  0.28398478917E+02  0.76892094824E+02  0.00000000000E+00 0. -1.
        -12    1    6    6    0    0 -0.10124210887E+03  0.29306641453E+02  0.19555550338E+01  0.10541664023E+03  0.00000000000E+00 0.  1.
</event>
<event>
12    1  0.8562501E-002  0.1994035E+03  0.7818608E-02  0.1151116E+00
         21   -1    0    0  501  502  0.00000000000E+00  0.00000000000E+00  0.11280010861E+03  0.11280010861E+03  0.00000000000E+00 0. -1.
         21   -1    0    0  502  503 -0.00000000000E+00 -0.00000000000E+00 -0.35597495166E+03  0.35597495166E+03  0.00000000000E+00 0.  1.
         -6    2    1    2    0  503 -0.68496098638E+02  0.62968440564E+02 -0.16089568891E+03  0.25306322405E+03  0.17174641952E+03 0.  0.
        -24    2    3    3    0    0 -0.43506232736E+02 -0.38088855889E+02 -0.11030802220E+03  0.13722595635E+03  0.57615537009E+02 0.  0.
          6    2    1    2  501    0  0.68496098638E+02 -0.62968440564E+02 -0.82279154140E+02  0.21571183622E+03  0.17636608814E+03 0.  0.
         24    2    5    5    0    0  0.80326914723E+02  0.76975208505E+01 -0.10391289205E+02  0.11410671117E+03  0.80004359802E+02 0.  0.
          5    1    5    5  501    0 -0.11830816085E+02 -0.70665961414E+02 -0.71887864935E+02  0.10160512505E+03  0.47000000000E+01 0. -1.
        -11    1    6    6    0    0  0.90315993776E+01  0.70937020333E+01 -0.36434238978E+02  0.38201363402E+02  0.00000000000E+00 0.  1.
         12    1    6    6    0    0  0.71295315345E+02  0.60381881722E+00  0.26042949773E+02  0.75905347771E+02  0.00000000000E+00 0. -1.
         -5    1    3    3    0  503 -0.24989865901E+02  0.10105729645E+03 -0.50587666710E+02  0.11583726770E+03  0.47000000000E+01 0.  1.
         11    1    4    4    0    0  0.10835863835E+02  0.30887425487E+01 -0.29014769884E+02  0.31125763396E+02  0.00000000000E+00 0. -1.
        -12    1    4    4    0    0 -0.54342096571E+02 -0.41177598438E+02 -0.81293252317E+02  0.10610019296E+03  0.00000000000E+00 0.  1.
</event>
<event>
12    1  0.8562501E-002  0.1943524E+03  0.7818608E-02  0.1155033E+00
         21   -1    0    0  501  502  0.00000000000E+00  0.00000000000E+00  0.51543794409E+02  0.51543794409E+02  0.00000000000E+00 0.  1.
         21   -1    0    0  502  503 -0.00000000000E+00 -0.00000000000E+00 -0.97382431162E+03  0.97382431162E+03  0.00000000000E+00 0. -1.
         -6    2    1    2    0  503 -0.29841482429E+02  0.85193528665E+02 -0.72190152265E+03  0.74760595350E+03  0.17211740730E+03 0.  0.
        -24    2    3    3    0    0  0.50665056807E+02  0.46135680704E+02 -0.38828213720E+03  0.40216304548E+03  0.79225299427E+02 0.  0.
          6    2    1    2  501    0  0.29841482429E+02 -0.85193528665E+02 -0.20037899456E+03  0.27776215253E+03  0.16985764781E+03 0.  0.
         24    2    5    5    0    0 -0.92836104756E+01  0.12757055795E+01 -0.14917648494E+03  0.16982009235E+03  0.80606620433E+02 0.  0.
          5    1    5    5  501    0  0.39125092905E+02 -0.86469234245E+02 -0.51202509621E+02  0.10794206019E+03  0.47000000000E+01 0. -1.
        -13    1    6    6    0    0  0.50704115588E+01 -0.24327923781E+01  0.91829551755E+01  0.10768204023E+02  0.00000000000E+00 0.  1.
         14    1    6    6    0    0 -0.14354022034E+02  0.37084979577E+01 -0.15835944012E+03  0.15905188833E+03  0.00000000000E+00 0. -1.
         -5    1    3    3    0  503 -0.80506539236E+02  0.39057847962E+02 -0.33361938546E+03  0.34544290802E+03  0.47000000000E+01 0.  1.
         11    1    4    4    0    0  0.24115656239E+02  0.66854317884E+02 -0.26363184428E+03  0.27304361192E+03  0.00000000000E+00 0. -1.
        -12    1    4    4    0    0  0.26549400567E+02 -0.20718637181E+02 -0.12465029292E+03  0.12911943356E+03  0.00000000000E+00 0.  1.
</event>
<event>
12    1  0.8562501E-002  0.2121147E+03  0.7818608E-02  0.1140030E+00
         21   -1    0    0  503  502  0.00000000000E+00  0.00000000000E+00  0.22995934306E+03  0.22995934306E+03  0.00000000000E+00 0. -1.
         21   -1    0    0  501  503 -0.00000000000E+00 -0.00000000000E+00 -0.19753121545E+03  0.19753121545E+03  0.00000000000E+00 0.  1.
          6    2    1    2  501    0 -0.22437696283E+02 -0.12099294433E+03 -0.77541072156E+01  0.21160338209E+03  0.17196837599E+03 0.  0.
         24    2    3    3    0    0  0.34543652233E+01 -0.13677679292E+03 -0.43227939128E+02  0.16469910216E+03  0.80853669116E+02 0.  0.
         -6    2    1    2    0  502  0.22437696283E+02  0.12099294433E+03  0.40182234824E+02  0.21588717641E+03  0.17277128856E+03 0.  0.
        -24    2    5    5    0    0  0.13179560480E+02  0.14588652427E+03  0.65111554033E+02  0.17915892630E+03  0.80011421842E+02 0.  0.
          5    1    3    3  501    0 -0.25892061506E+02  0.15783848588E+02  0.35473831912E+02  0.46904279931E+02  0.47000000000E+01 0. -1.
        -13    1    4    4    0    0  0.15575174392E+02 -0.75222761887E+02  0.15949427331E+02  0.78456575221E+02  0.00000000000E+00 0.  1.
         14    1    4    4    0    0 -0.12120809169E+02 -0.61554031034E+02 -0.59177366459E+02  0.86242526937E+02  0.00000000000E+00 0. -1.
         -5    1    5    5    0  502  0.92581358031E+01 -0.24893579936E+02 -0.24929319209E+02  0.36728250119E+02  0.47000000000E+01 0.  1.
         13    1    6    6    0    0  0.25013571326E+02  0.37989246610E+02 -0.10742977153E+02  0.46736208304E+02  0.00000000000E+00 0. -1.
        -14    1    6    6    0    0 -0.11834010847E+02  0.10789727766E+03  0.75854531186E+02  0.13242271799E+03  0.00000000000E+00 0.  1.
</event>
<event>
12    1  0.8562501E-002  0.4312533E+03  0.7818608E-02  0.1033547E+00
         21   -1    0    0  503  502  0.00000000000E+00  0.00000000000E+00  0.67445772700E+03  0.67445772700E+03  0.00000000000E+00 0. -1.
         21   -1    0    0  501  503 -0.00000000000E+00 -0.00000000000E+00 -0.35469420404E+03  0.35469420404E+03  0.00000000000E+00 0.  1.
          6    2    1    2  501    0 -0.33144329200E+03 -0.21322960831E+03 -0.83757028719E+02  0.43931157780E+03  0.17509397721E+03 0.  0.
         24    2    3    3    0    0 -0.24232907381E+03 -0.20620649686E+03 -0.18525418608E+02  0.32855093075E+03  0.79737215901E+02 0.  0.
         -6    2    1    2    0  502  0.33144329200E+03  0.21322960831E+03  0.40352055168E+03  0.58984035324E+03  0.17251459359E+03 0.  0.
        -24    2    5    5    0    0  0.29504879975E+03  0.16518416569E+03  0.39910950602E+03  0.52922293869E+03  0.80305156817E+02 0.  0.
          5    1    3    3  501    0 -0.89114218192E+02 -0.70231114539E+01 -0.65231610111E+02  0.11076064706E+03  0.47000000000E+01 0. -1.
        -13    1    4    4    0    0 -0.13623633760E+03 -0.16448585981E+03 -0.38918737236E+01  0.21361433576E+03  0.00000000000E+00 0.  1.
         14    1    4    4    0    0 -0.10609273621E+03 -0.41720637051E+02 -0.14633544885E+02  0.11493659499E+03  0.00000000000E+00 0. -1.
         -5    1    5    5    0  502  0.36394492248E+02  0.48045442620E+02  0.44110456675E+01  0.60617414548E+02  0.47000000000E+01 0.  1.
         11    1    6    6    0    0  0.17863558769E+03  0.10998555999E+03  0.30279601974E+03  0.36836520759E+03  0.00000000000E+00 0. -1.
        -12    1    6    6    0    0  0.11641321207E+03  0.55198605704E+02  0.96313486281E+02  0.16085773110E+03  0.00000000000E+00 0.  1.
</event>
<event>
12    1  0.8562501E-002  0.3033116E+03  0.7818608E-02  0.1083641E+00
         21   -1    0    0  501  502  0.00000000000E+00  0.00000000000E+00  0.45597157089E+03  0.45597157089E+03  0.00000000000E+00 0. -1.
         21   -1    0    0  502  503 -0.00000000000E+00 -0.00000000000E+00 -0.12646213891E+04  0.12646213891E+04  0.00000000000E+00 0.  1.
         -6    2    1    2    0  503 -0.24757313109E+03  0.31888057840E+02 -0.11930636842E+04  0.12309278017E+04  0.17167700728E+03 0.  0.
        -24    2    3    3    0    0 -0.18841769342E+03  0.77954490676E+02 -0.69882648986E+03  0.73101383273E+03  0.66668065124E+02 0.  0.
          6    2    1    2  501    0  0.24757313109E+03 -0.31888057840E+02  0.38441386598E+03  0.48966515836E+03  0.17230392764E+03 0.  0.
         24    2    5    5    0    0  0.11085788618E+03  0.30148645935E+02  0.11080011556E+03  0.17753347905E+03  0.77737113377E+02 0.  0.
          5    1    5    5  501    0  0.13671524491E+03 -0.62036703775E+02  0.27361375042E+03  0.31213167931E+03  0.47000000000E+01 0. -1.
        -11    1    6    6    0    0  0.32312315938E+01  0.15704286999E+02 -0.68437862714E+01  0.17432810970E+02  0.00000000000E+00 0.  1.
         12    1    6    6    0    0  0.10762665459E+03  0.14444358935E+02  0.11764390183E+03  0.16010066808E+03  0.00000000000E+00 0. -1.
         -5    1    3    3    0  503 -0.59155437668E+02 -0.46066432836E+02 -0.49423719435E+03  0.49991396892E+03  0.47000000000E+01 0.  1.
         11    1    4    4    0    0 -0.56094937916E+02  0.38244930877E+02 -0.33566496816E+03  0.34246209666E+03  0.00000000000E+00 0. -1.
        -12    1    4    4    0    0 -0.13232275550E+03  0.39709559800E+02 -0.36316152170E+03  0.38855173607E+03  0.00000000000E+00 0.  1.
</event>
<event>
12    1  0.8562501E-002  0.1782753E+03  0.7818608E-02  0.1169821E+00
         21   -1    0    0  501  502  0.00000000000E+00  0.00000000000E+00  0.11512895484E+03  0.11512895484E+03  0.00000000000E+00 0.  1.
         21   -1    0    0  502  503 -0.00000000000E+00 -0.00000000000E+00 -0.80475747281E+03  0.80475747281E+03  0.00000000000E+00 0.  1.
         -6    2    1    2    0  503 -0.48052308625E+02  0.10090171270E+02 -0.71881850684E+03  0.74059579970E+03  0.17138044474E+03 0.  0.
        -24    2    3    3    0    0 -0.27597959509E+02  0.59252665744E+02 -0.28351887153E+03  0.30202631403E+03  0.81021096548E+02 0.  0.
          6    2    1    2  501    0  0.48052308625E+02 -0.10090171270E+02  0.29189988864E+02  0.17929062795E+03  0.16994775050E+03 0.  0.
         24    2    5    5    0    0 -0.29841755450E+02  0.25921564172E+02  0.11271194689E+02  0.91498239369E+02  0.81746132144E+02 0.  0.
          5    1    5    5  501    0  0.77894064075E+02 -0.36011735442E+02  0.17918794175E+02  0.87792388578E+02  0.47000000000E+01 0. -1.
        -11    1    6    6    0    0  0.24809222550E+02 -0.37960761570E+01 -0.80520216046E+01  0.26357973550E+02  0.00000000000E+00 0.  1.
         12    1    6    6    0    0 -0.54650978000E+02  0.29717640329E+02  0.19323216293E+02  0.65140265819E+02  0.00000000000E+00 0. -1.
         -5    1    3    3    0  503 -0.20454349116E+02 -0.49162494475E+02 -0.43529963531E+03  0.43856948567E+03  0.47000000000E+01 0.  1.
         11    1    4    4    0    0  0.15816409939E+02  0.56275383556E+02 -0.13162012156E+03  0.14401713099E+03  0.00000000000E+00 0. -1.
        -12    1    4    4    0    0 -0.43414369449E+02  0.29772821879E+01 -0.15189874997E+03  0.15800918305E+03  0.00000000000E+00 0.  1.
</event>
<event>
12    1  0.8562501E-002  0.2068916E+03  0.7818608E-02  0.1144139E+00
         21   -1    0    0  503  502  0.00000000000E+00  0.00000000000E+00  0.53235462792E+02  0.53235462792E+02  0.00000000000E+00 0.  1.
         21   -1    0    0  501  503 -0.00000000000E+00 -0.00000000000E+00 -0.92719792755E+03  0.92719792755E+03  0.00000000000E+00 0. -1.
          6    2    1    2  501    0  0.10606480721E+03 -0.45324225989E+02 -0.61645064484E+03  0.65010554244E+03  0.17123606509E+03 0.  0.
         24    2    3    3    0    0  0.24986566792E+02 -0.81648709267E+02 -0.32538207812E+03  0.34574366951E+03  0.79839514038E+02 0.  0.
         -6    2    1    2    0  502 -0.10606480721E+03  0.45324225989E+02 -0.25751181992E+03  0.33032784791E+03  0.17175599237E+03 0.  0.
        -24    2    5    5    0    0  0.29780799621E+01 -0.12297142404E+02 -0.13173831226E+03  0.15411309663E+03  0.78966923229E+02 0.  0.
          5    1    3    3  501    0  0.81078240423E+02  0.36324483278E+02 -0.29106856673E+03  0.30436187293E+03  0.47000000000E+01 0. -1.
        -11    1    4    4    0    0  0.86593551039E+00 -0.82664800965E+01  0.26621926638E+01  0.87276461473E+01  0.00000000000E+00 0.  1.
         12    1    4    4    0    0  0.24120631281E+02 -0.73382229171E+02 -0.32804427078E+03  0.33701602336E+03  0.00000000000E+00 0. -1.
         -5    1    5    5    0  502 -0.10904288718E+03  0.57621368393E+02 -0.12577350766E+03  0.17621475128E+03  0.47000000000E+01 0.  1.
         11    1    6    6    0    0  0.33884900355E+01 -0.46064592982E+02 -0.74614546021E+02  0.87753968966E+02  0.00000000000E+00 0. -1.
        -12    1    6    6    0    0 -0.41041007335E+00  0.33767450578E+02 -0.57123766243E+02  0.66359127667E+02  0.00000000000E+00 0.  1.
</event>
<event>
12    1  0.8562501E-002  0.2209114E+03  0.7818608E-02  0.1133543E+00
         21   -1    0    0  501  502  0.00000000000E+00  0.00000000000E+00  0.75171872329E+02  0.75171872329E+02  0.00000000000E+00 0. -1.
         21   -1    0    0  502  503 -0.00000000000E+00 -0.00000000000E+00 -0.64392350623E+03  0.64392350623E+03  0.00000000000E+00 0.  1.
         -6    2    1    2    0  503 -0.13902533769E+03  0.25252718599E+01 -0.28307563639E+03  0.35907330867E+03  0.17166072226E+03 0.  0.
        -24    2    3    3    0    0 -0.14931827784E+03 -0.31519489720E+02 -0.18461012049E+03  0.25427570264E+03  0.85356956601E+02 0.  0.
          6    2    1    2  501    0  0.13902533769E+03 -0.25252718599E+01 -0.28567599752E+03  0.36002206989E+03  0.16932422666E+03 0.  0.
         24    2    5    5    0    0  0.54130471232E+02 -0.41399212593E+02 -0.22637877607E+03  0.24931266609E+03  0.79154611353E+02 0.  0.
          5    1    5    5  501    0  0.84894866456E+02  0.38873940733E+02 -0.59297221447E+02  0.11070940380E+03  0.47000000000E+01 0. -1.
        -13    1    6    6    0    0 -0.55961348213E+01 -0.40881747579E+02 -0.12514285192E+03  0.13177013090E+03  0.00000000000E+00 0.  1.
         14    1    6    6    0    0  0.59726606053E+02 -0.51746501330E+00 -0.10123592415E+03  0.11754253519E+03  0.00000000000E+00 0. -1.
         -5    1    3    3    0  503  0.10292940147E+02  0.34044761579E+02 -0.98465515902E+02  0.10479760603E+03  0.47000000000E+01 0.  1.
         13    1    4    4    0    0  0.70920355054E+01 -0.87753490398E+01 -0.34497327677E+02  0.36295582861E+02  0.00000000000E+00 0. -1.
        -14    1    4    4    0    0 -0.15641031334E+03 -0.22744140680E+02 -0.15011279281E+03  0.21798011978E+03  0.00000000000E+00 0.  1.
</event>
<event>
12    1  0.8562501E-002  0.1741507E+03  0.7818608E-02  0.1173791E+00
         21   -1    0    0  503  502  0.00000000000E+00  0.00000000000E+00  0.30216989655E+03  0.30216989655E+03  0.00000000000E+00 0. -1.
         21   -1    0    0  501  503 -0.00000000000E+00 -0.00000000000E+00 -0.26764212287E+03  0.26764212287E+03  0.00000000000E+00 0. -1.
          6    2    1    2  501    0 -0.14320112380E+02 -0.14479546280E+02 -0.20826859312E+03  0.27148528919E+03  0.17295586861E+03 0.  0.
         24    2    3    3    0    0 -0.12412259161E+02  0.31056664455E+02 -0.20671721562E+03  0.22564117110E+03  0.84043740257E+02 0.  0.
         -6    2    1    2    0  502  0.14320112380E+02  0.14479546280E+02  0.24279636681E+03  0.29832673022E+03  0.17214540177E+03 0.  0.
        -24    2    5    5    0    0  0.22056223729E+02  0.45813984620E+02  0.24832751546E+03  0.26524534497E+03  0.78122595333E+02 0.  0.
          5    1    3    3  501    0 -0.19078532189E+01 -0.45536210735E+02 -0.15513775062E+01  0.45844118098E+02  0.47000000000E+01 0. -1.
        -11    1    4    4    0    0 -0.35299191221E+01  0.58733034679E+02 -0.11131088363E+03  0.12590529181E+03  0.00000000000E+00 0.  1.
         12    1    4    4    0    0 -0.88823400387E+01 -0.27676370224E+02 -0.95406331988E+02  0.99735879285E+02  0.00000000000E+00 0. -1.
         -5    1    5    5    0  502 -0.77361113496E+01 -0.31334438340E+02 -0.55311486533E+01  0.33081385254E+02  0.47000000000E+01 0.  1.
         11    1    6    6    0    0 -0.13131433322E+02 -0.16132932906E+02  0.75411088921E+02  0.78227478533E+02  0.00000000000E+00 0. -1.
        -12    1    6    6    0    0  0.35187657051E+02  0.61946917526E+02  0.17291642654E+03  0.18701786644E+03  0.00000000000E+00 0.  1.
</event>
<event>
12    1  0.8562501E-002  0.2278344E+03  0.7818608E-02  0.1128262E+00
         21   -1    0    0  503  502  0.00000000000E+00  0.00000000000E+00  0.35194554809E+03  0.35194554809E+03  0.00000000000E+00 0. -1.
         21   -1    0    0  501  503 -0.00000000000E+00 -0.00000000000E+00 -0.27144703905E+03  0.27144703905E+03  0.00000000000E+00 0.  1.
          6    2    1    2  501    0 -0.12055656344E+03  0.87459016711E+02 -0.17063289564E+03  0.28464733643E+03  0.17241101029E+03 0.  0.
         24    2    3    3    0    0 -0.85605637757E+02  0.12811379840E+03 -0.12588661719E+03  0.21465663765E+03  0.80551605474E+02 0.  0.
         -6    2    1    2    0  502  0.12055656344E+03 -0.87459016711E+02  0.25113140468E+03  0.33874525072E+03  0.17175097635E+03 0.  0.
        -24    2    5    5    0    0  0.15436646938E+03 -0.60745521252E+02  0.20454081655E+03  0.27510962012E+03  0.79557100413E+02 0.  0.
          5    1    3    3  501    0 -0.34950925678E+02 -0.40654781691E+02 -0.44746278451E+02  0.69990698777E+02  0.47000000000E+01 0. -1.
        -11    1    4    4    0    0 -0.36368310155E+02  0.90018163714E+02 -0.32423617457E+02  0.10235826665E+03  0.00000000000E+00 0.  1.
         12    1    4    4    0    0 -0.49237327603E+02  0.38095634687E+02 -0.93462999731E+02  0.11229837100E+03  0.00000000000E+00 0. -1.
         -5    1    5    5    0  502 -0.33809905946E+02 -0.26713495459E+02  0.46590588127E+02  0.63635630599E+02  0.47000000000E+01 0.  1.
         11    1    6    6    0    0  0.75282065320E+02 -0.17528747268E+02  0.38884823652E+02  0.86525579166E+02  0.00000000000E+00 0. -1.
        -12    1    6    6    0    0  0.79084404062E+02 -0.43216773984E+02  0.16565599290E+03  0.18858404095E+03  0.00000000000E+00 0.  1.
</event>
<event>
12    1  0.8562501E-002  0.1841276E+03  0.7818608E-02  0.1163932E+00
         21   -1    0    0  503  502  0.00000000000E+00  0.00000000000E+00  0.20043493475E+02  0.20043493475E+02  0.00000000000E+00 0.  1.
         21   -1    0    0  501  503 -0.00000000000E+00 -0.00000000000E+00 -0.20841946406E+04  0.20841946406E+04  0.00000000000E+00 0.  1.
          6    2    1    2  501    0  0.29547380570E+01 -0.62849302015E+02 -0.57451574627E+03  0.60330035532E+03  0.17304395620E+03 0.  0.
         24    2    3    3    0    0  0.18533674646E+02 -0.53049286511E+02 -0.57663172080E+03  0.58418724680E+03  0.74919116283E+02 0.  0.
         -6    2    1    2    0  502 -0.29547380570E+01  0.62849302015E+02 -0.14896354008E+04  0.15009377787E+04  0.17274785954E+03 0.  0.
        -24    2    5    5    0    0  0.64108348453E+01  0.21897759361E+02 -0.13921642825E+04  0.13946953592E+04  0.80827871455E+02 0.  0.
          5    1    3    3  501    0 -0.15578936589E+02 -0.98000155035E+01  0.21159745373E+01  0.19113108522E+02  0.47000000000E+01 0. -1.
        -11    1    4    4    0    0  0.32283484456E+02 -0.62299009358E+02 -0.35081325135E+03  0.35776155084E+03  0.00000000000E+00 0.  1.
         12    1    4    4    0    0 -0.13749809810E+02  0.92497228474E+01 -0.22581846945E+03  0.22642569596E+03  0.00000000000E+00 0. -1.
         -5    1    5    5    0  502 -0.93655729023E+01  0.40951542653E+02 -0.97471118317E+02  0.10624241953E+03  0.47000000000E+01 0.  1.
         13    1    6    6    0    0 -0.16999269088E+02 -0.24786037349E+02 -0.65098459358E+03  0.65167803698E+03  0.00000000000E+00 0. -1.
        -14    1    6    6    0    0  0.23410103933E+02  0.46683796710E+02 -0.74117968894E+03  0.74301732223E+03  0.00000000000E+00 0.  1.
</event>
<event>
12    1  0.8562501E-002  0.2394712E+03  0.7818608E-02  0.1120255E+00
         21   -1    0    0  503  502  0.00000000000E+00  0.00000000000E+00  0.18920530038E+03  0.18920530038E+03  0.00000000000E+00 0. -1.
         21   -1    0    0  501  503 -0.00000000000E+00 -0.00000000000E+00 -0.56717833698E+03  0.56717833698E+03  0.00000000000E+00 0.  1.
          6    2    1    2  501    0  0.15746793055E+03 -0.50467998778E+02 -0.44759129471E+03  0.50762627538E+03  0.17321460764E+03 0.  0.
         24    2    3    3    0    0  0.12505837713E+03 -0.92318520177E+02 -0.39804149677E+03  0.43496873778E+03  0.81230922883E+02 0.  0.
         -6    2    1    2    0  502 -0.15746793055E+03  0.50467998778E+02  0.69618258114E+02  0.24875736197E+03  0.17230889477E+03 0.  0.
        -24    2    5    5    0    0 -0.46945837052E+02  0.77297732539E+02  0.76531516365E+01  0.11915515448E+03  0.77204462543E+02 0.  0.
          5    1    3    3  501    0  0.32409553428E+02  0.41850521399E+02 -0.49549797941E+02  0.72657537605E+02  0.47000000000E+01 0. -1.
        -13    1    4    4    0    0  0.91845934605E+02 -0.58227536353E+02 -0.35325570165E+03  0.36961562797E+03  0.00000000000E+00 0.  1.
         14    1    4    4    0    0  0.33212442521E+02 -0.34090983824E+02 -0.44785795125E+02  0.65353109806E+02  0.00000000000E+00 0. -1.
         -5    1    5    5    0  502 -0.11052209350E+03 -0.26829733761E+02  0.61965106477E+02  0.12960220749E+03  0.47000000000E+01 0.  1.
         13    1    6    6    0    0 -0.64602108305E+02  0.54026244241E+02  0.21368307865E+02  0.86884245093E+02  0.00000000000E+00 0. -1.
        -14    1    6    6    0    0  0.17656271254E+02  0.23271488298E+02 -0.13715156228E+02  0.32270909385E+02  0.00000000000E+00 0.  1.
</event>
<event>
12    1  0.8562501E-002  0.2496458E+03  0.7818608E-02  0.1114347E+00
         21   -1    0    0  501  502  0.00000000000E+00  0.00000000000E+00  0.38673419363E+03  0.38673419363E+03  0.00000000000E+00 0.  1.
         21   -1    0    0  502  503 -0.00000000000E+00 -0.00000000000E+00 -0.22120597791E+03  0.22120597791E+03  0.00000000000E+00 0.  1.
         -6    2    1    2    0  503 -0.17521086560E+03  0.42290108830E+02 -0.80495556378E+02  0.25743952707E+03  0.16525215512E+03 0.  0.
        -24    2    3    3    0    0 -0.61974451483E+02 -0.15367363664E+02 -0.79415071995E+02  0.13027771258E+03  0.81169823413E+02 0.  0.
          6    2    1    2  501    0  0.17521086560E+03 -0.42290108830E+02  0.24602377210E+03  0.35050064448E+03  0.17273014969E+03 0.  0.
         24    2    5    5    0    0  0.13172024062E+03  0.37130523250E+02  0.17879853039E+03  0.23762728897E+03  0.75953383387E+02 0.  0.
          5    1    5    5  501    0  0.43490624985E+02 -0.79420632080E+02  0.67225241708E+02  0.11287335551E+03  0.47000000000E+01 0. -1.
        -13    1    6    6    0    0  0.54688155705E+02 -0.70782648439E+01  0.11724635006E+03  0.12956698195E+03  0.00000000000E+00 0.  1.
         14    1    6    6    0    0  0.77032084914E+02  0.44208788094E+02  0.61552180325E+02  0.10806030702E+03  0.00000000000E+00 0. -1.
         -5    1    3    3    0  503 -0.11323641412E+03  0.57657472495E+02 -0.10804843826E+01  0.12716181449E+03  0.47000000000E+01 0.  1.
         11    1    4    4    0    0 -0.40175520325E+02 -0.30302816863E+01  0.64778674147E+01  0.40807080351E+02  0.00000000000E+00 0. -1.
        -12    1    4    4    0    0 -0.21798931158E+02 -0.12337081978E+02 -0.85892939410E+02  0.89470632231E+02  0.00000000000E+00 0.  1.
</event>
<event>
12    1  0.8562501E-002  0.1795627E+03  0.7818608E-02  0.1168953E+00
         21   -1    0    0  501  502  0.00000000000E+00  0.00000000000E+00  0.18944500787E+04  0.18944500787E+04  0.00000000000E+00 0. -1.
         21   -1    0    0  502  503 -0.00000000000E+00 -0.00000000000E+00 -0.28810452135E+02  0.28810452135E+02  0.00000000000E+00 0. -1.
         -6    2    1    2    0  503 -0.42962235166E+02 -0.23714282205E+02  0.30587140534E+03  0.35319057528E+03  0.16964122444E+03 0.  0.
        -24    2    3    3    0    0 -0.59630316845E+02 -0.36545990053E+02  0.31230603767E+03  0.33069675021E+03  0.83270014760E+02 0.  0.
          6    2    1    2  501    0  0.42962235166E+02  0.23714282205E+02  0.15597682212E+04  0.15700699555E+04  0.17272706959E+03 0.  0.
         24    2    5    5    0    0 -0.23480634169E+02  0.54455958073E+02  0.66638091224E+03  0.67367568997E+03  0.79111462567E+02 0.  0.
          5    1    5    5  501    0  0.66442869335E+02 -0.30741675868E+02  0.89338730897E+03  0.89639426558E+03  0.47000000000E+01 0. -1.
        -13    1    6    6    0    0 -0.51338971658E+02  0.22610989989E+02  0.41165655276E+03  0.41546126692E+03  0.00000000000E+00 0.  1.
         14    1    6    6    0    0  0.27858337489E+02  0.31844968084E+02  0.25472435948E+03  0.25821442305E+03  0.00000000000E+00 0. -1.
         -5    1    3    3    0  503  0.16668081679E+02  0.12831707848E+02 -0.64346323262E+01  0.22493825071E+02  0.47000000000E+01 0.  1.
         13    1    4    4    0    0 -0.24073433041E+01 -0.48655150330E+02  0.16992422323E+03  0.17676922978E+03  0.00000000000E+00 0. -1.
        -14    1    4    4    0    0 -0.57222973541E+02  0.12109160277E+02  0.14238181444E+03  0.15392752043E+03  0.00000000000E+00 0.  1.
</event>
<event>
12    1  0.8562501E-002  0.2563193E+03  0.7818608E-02  0.1109462E+00
         21   -1    0    0  501  502  0.00000000000E+00  0.00000000000E+00  0.10745362031E+04  0.10745362031E+04  0.00000000000E+00 0.  1.
         21   -1    0    0  502  503 -0.00000000000E+00 -0.00000000000E+00 -0.81028289039E+02  0.81028289039E+02  0.00000000000E+00 0.  1.
         -6    2    1    2    0  503 -0.14699145311E+03 -0.11983413879E+03  0.20913222764E+03  0.33037069986E+03  0.17158613749E+03 0.  0.
        -24    2    3    3    0    0 -0.11966587883E+03 -0.10605999016E+03  0.23076108095E+03  0.29260416076E+03  0.82449222819E+02 0.  0.
          6    2    1    2  501    0  0.14699145311E+03  0.11983413879E+03  0.78437568644E+03  0.82519379229E+03  0.17243221642E+03 0.  0.
         24    2    5    5    0    0  0.17304258180E+03  0.12391319143E+03  0.73042377976E+03  0.76495926556E+03  0.79659059819E+02 0.  0.
          5    1    5    5  501    0 -0.26051128684E+02 -0.40790526401E+01  0.53951906679E+02  0.60234526731E+02  0.47000000000E+01 0. -1.
        -11    1    6    6    0    0  0.11172196056E+03  0.63984679489E+02  0.55453789781E+03  0.56928737540E+03  0.00000000000E+00 0.  1.
         12    1    6    6    0    0  0.61320621235E+02  0.59928511943E+02  0.17588588195E+03  0.19567189017E+03  0.00000000000E+00 0. -1.
         -5    1    3    3    0  503 -0.27325574283E+02 -0.13774148629E+02 -0.21628853308E+02  0.37766539102E+02  0.47000000000E+01 0.  1.
         13    1    4    4    0    0  0.46308355816E+01  0.41794382922E+01 -0.20721926096E+01  0.65731518188E+01  0.00000000000E+00 0. -1.
        -14    1    4    4    0    0 -0.12429671441E+03 -0.11023942846E+03  0.23283327356E+03  0.28603100894E+03  0.00000000000E+00 0.  1.
</event>
<event>
12    1  0.8562501E-002  0.1973683E+03  0.7818608E-02  0.1152665E+00
         21   -1    0    0  503  502  0.00000000000E+00  0.00000000000E+00  0.11614063598E+03  0.11614063598E+03  0.00000000000E+00 0. -1.
         21   -1    0    0  501  503 -0.00000000000E+00 -0.00000000000E+00 -0.41641232971E+03  0.41641232971E+03  0.00000000000E+00 0. -1.
          6    2    1    2  501    0  0.24188164039E+02 -0.93701824382E+02 -0.27236749497E+03  0.33636038672E+03  0.17201499431E+03 0.  0.
         24    2    3    3    0    0  0.48477761222E+02  0.31656500728E+01 -0.16840848953E+03  0.19212843135E+03  0.78687992180E+02 0.  0.
         -6    2    1    2    0  502 -0.24188164039E+02  0.93701824382E+02 -0.27904198761E+02  0.19619257897E+03  0.16836800338E+03 0.  0.
        -24    2    5    5    0    0  0.18741624750E+02  0.15625761095E+02 -0.56483979642E+02  0.10250302619E+03  0.81981812097E+02 0.  0.
          5    1    3    3  501    0 -0.24289597183E+02 -0.96867474454E+02 -0.10395900544E+03  0.14423195537E+03  0.47000000000E+01 0. -1.
        -13    1    4    4    0    0 -0.17887559784E+02 -0.40707987858E+01 -0.75661168890E+02  0.77853379345E+02  0.00000000000E+00 0.  1.
         14    1    4    4    0    0  0.66365321006E+02  0.72364488586E+01 -0.92747320636E+02  0.11427505200E+03  0.00000000000E+00 0. -1.
         -5    1    5    5    0  502 -0.42929788790E+02  0.78076063286E+02  0.28579780881E+02  0.93689552774E+02  0.47000000000E+01 0.  1.
         11    1    6    6    0    0 -0.18633956419E+02  0.31600003728E+02 -0.48939581282E+02  0.61162628978E+02  0.00000000000E+00 0. -1.
        -12    1    6    6    0    0  0.37375581169E+02 -0.15974242632E+02 -0.75443983591E+01  0.41340397216E+02  0.00000000000E+00 0.  1.
</event>
<event>
12    1  0.8562501E-002  0.1767107E+03  0.7818608E-02  0.1171390E+00
         21   -1    0    0  501  502  0.00000000000E+00  0.00000000000E+00  0.36136968591E+02  0.36136968591E+02  0.00000000000E+00 0. -1.
         21   -1    0    0  502  503 -0.00000000000E+00 -0.00000000000E+00 -0.89855599231E+03  0.89855599231E+03  0.00000000000E+00 0. -1.
         -6    2    1    2    0  503 -0.54124392849E+01 -0.34956947816E+02 -0.53347819913E+03  0.56198368285E+03  0.17313401786E+03 0.  0.
        -24    2    3    3    0    0  0.38623466195E+01 -0.65153842959E+02 -0.18797538111E+03  0.21500794682E+03  0.81447727529E+02 0.  0.
          6    2    1    2  501    0  0.54124392849E+01  0.34956947816E+02 -0.32894082459E+03  0.37270927806E+03  0.17163582716E+03 0.  0.
         24    2    5    5    0    0  0.10234241117E+02 -0.25260956093E+02 -0.80530502835E+02  0.11701566515E+03  0.80403037320E+02 0.  0.
          5    1    5    5  501    0 -0.48218018316E+01  0.60217903909E+02 -0.24841032176E+03  0.25569361290E+03  0.47000000000E+01 0. -1.
        -11    1    6    6    0    0  0.27328154407E+02  0.21677512023E+02 -0.30939738428E+02  0.46626279766E+02  0.00000000000E+00 0.  1.
         12    1    6    6    0    0 -0.17093913290E+02 -0.46938468116E+02 -0.49590764407E+02  0.70389385387E+02  0.00000000000E+00 0. -1.
         -5    1    3    3    0  503 -0.92747859045E+01  0.30196895143E+02 -0.34550281802E+03  0.34697573603E+03  0.47000000000E+01 0.  1.
         11    1    4    4    0    0  0.24438738089E+02  0.96842401606E+01 -0.56847989294E+02  0.62631703742E+02  0.00000000000E+00 0. -1.
        -12    1    4    4    0    0 -0.20576391469E+02 -0.74838083119E+02 -0.13112739181E+03  0.15237624308E+03  0.00000000000E+00 0.  1.
</event>
<event>
12    1  0.8562501E-002  0.1934847E+03  0.7818608E-02  0.1156024E+00
         21   -1    0    0  501  502  0.00000000000E+00  0.00000000000E+00  0.28557634497E+03  0.28557634497E+03  0.00000000000E+00 0. -1.
         21   -1    0    0  502  503 -0.00000000000E+00 -0.00000000000E+00 -0.12949315152E+03  0.12949315152E+03  0.00000000000E+00 0. -1.
         -6    2    1    2    0  503 -0.86218656580E+02 -0.21907534935E+02  0.89469965194E+02  0.21043895642E+03  0.16842233485E+03 0.  0.
        -24    2    3    3    0    0 -0.49696747008E+02  0.30814024326E+02  0.67813995715E+01  0.10568733794E+03  0.87775596049E+02 0.  0.
          6    2    1    2  501    0  0.86218656580E+02  0.21907534935E+02  0.66613228250E+02  0.20463054008E+03  0.17182182319E+03 0.  0.
         24    2    5    5    0    0 -0.10232501725E+02 -0.21530449401E+02  0.43219908102E+02  0.96191516429E+02  0.82562600696E+02 0.  0.
          5    1    5    5  501    0  0.96451158305E+02  0.43437984337E+02  0.23393320148E+02  0.10843902365E+03  0.47000000000E+01 0. -1.
        -13    1    6    6    0    0  0.23472848139E+02 -0.33364370327E+02  0.44599700968E+02  0.60442444801E+02  0.00000000000E+00 0.  1.
         14    1    6    6    0    0 -0.33705349864E+02  0.11833920926E+02 -0.13797928663E+01  0.35749071628E+02  0.00000000000E+00 0. -1.
         -5    1    3    3    0  503 -0.36521909573E+02 -0.52721559261E+02  0.82688565622E+02  0.10475161848E+03  0.47000000000E+01 0.  1.
         13    1    4    4    0    0 -0.43054473957E+02 -0.17284193275E+02  0.26330038561E+02  0.53345121572E+02  0.00000000000E+00 0. -1.
        -14    1    4    4    0    0 -0.66422730505E+01  0.48098217601E+02 -0.19548638990E+02  0.52342216365E+02  0.00000000000E+00 0.  1.
</event>
<event>
12    1  0.8562501E-002  0.2160802E+03  0.7818608E-02  0.1137012E+00
         21   -1    0    0  503  502  0.00000000000E+00  0.00000000000E+00  0.79406267089E+03  0.79406267089E+03  0.00000000000E+00 0. -1.
         21   -1    0    0  501  503 -0.00000000000E+00 -0.00000000000E+00 -0.72927283098E+02  0.72927283098E+02  0.00000000000E+00 0. -1.
          6    2    1    2  501    0  0.99706332377E+02 -0.82956298824E+02  0.55362290471E+03  0.59429703177E+03  0.17282228191E+03 0.  0.
         24    2    3    3    0    0  0.35838832337E+02 -0.70758299916E+02  0.16183901180E+03  0.19712634116E+03  0.79848417198E+02 0.  0.
         -6    2    1    2    0  502 -0.99706332377E+02  0.82956298824E+02  0.16751248309E+03  0.27269292222E+03  0.17169128576E+03 0.  0.
        -24    2    5    5    0    0 -0.91236569720E+02  0.11050954819E+03  0.17767027835E+03  0.24177061255E+03  0.79685816723E+02 0.  0.
          5    1    3    3  501    0  0.63867500040E+02 -0.12197998908E+02  0.39178389290E+03  0.39717069061E+03  0.47000000000E+01 0. -1.
        -13    1    4    4    0    0  0.15541683606E+02 -0.12864261852E+02  0.12271821642E+03  0.12436556518E+03  0.00000000000E+00 0.  1.
         14    1    4    4    0    0  0.20297148731E+02 -0.57894038064E+02  0.39120795387E+02  0.72760775983E+02  0.00000000000E+00 0. -1.
         -5    1    5    5    0  502 -0.84697626562E+01 -0.27553249370E+02 -0.10157795268E+02  0.30922309665E+02  0.47000000000E+01 0.  1.
         11    1    6    6    0    0 -0.67094935299E+02  0.53780024458E+02  0.15271355608E+03  0.17525824255E+03  0.00000000000E+00 0. -1.
        -12    1    6    6    0    0 -0.24141634422E+02  0.56729523736E+02  0.24956722277E+02  0.66512369997E+02  0.00000000000E+00 0.  1.
</event>
<event>
12    1  0.8562501E-002  0.1801601E+03  0.7818608E-02  0.1168168E+00
         21   -1    0    0  503  502  0.00000000000E+00  0.00000000000E+00  0.57909971290E+03  0.57909971290E+03  0.00000000000E+00 0.  1.
         21   -1    0    0  501  503 -0.00000000000E+00 -0.00000000000E+00 -0.81976741904E+02  0.81976741904E+02  0.00000000000E+00 0.  1.
          6    2    1    2  501    0  0.22821630254E+02 -0.38915177080E+02  0.61311031199E+02  0.19030689144E+03  0.17442033301E+03 0.  0.
         24    2    3    3    0    0 -0.20164145137E+02 -0.62121969223E+02 -0.98537245466E+01  0.10386127531E+03  0.80151960755E+02 0.  0.
         -6    2    1    2    0  502 -0.22821630254E+02  0.38915177080E+02  0.43581193980E+03  0.47076956337E+03  0.17221125720E+03 0.  0.
        -24    2    5    5    0    0  0.39910854296E+02 -0.74615101902E+00  0.14129267613E+03  0.16700637890E+03  0.79586916220E+02 0.  0.
          5    1    3    3  501    0  0.42985775391E+02  0.23206792143E+02  0.71164755745E+02  0.86445616128E+02  0.47000000000E+01 0. -1.
        -11    1    4    4    0    0 -0.64174816903E+00 -0.71902292433E+02  0.12078900831E+02  0.72912628145E+02  0.00000000000E+00 0.  1.
         12    1    4    4    0    0 -0.19522396968E+02  0.97803232101E+01 -0.21932625378E+02  0.30948647167E+02  0.00000000000E+00 0. -1.
         -5    1    5    5    0  502 -0.62732484550E+02  0.39661328099E+02  0.29451926367E+03  0.30376318447E+03  0.47000000000E+01 0.  1.
         13    1    6    6    0    0 -0.12292964472E+02 -0.23268701900E+02  0.76009096105E+02  0.80435888472E+02  0.00000000000E+00 0. -1.
        -14    1    6    6    0    0  0.52203818768E+02  0.22522550881E+02  0.65283580025E+02  0.86570490428E+02  0.00000000000E+00 0.  1.
</event>
<event>
12    1  0.8562501E-002  0.1738590E+03  0.7818608E-02  0.1174143E+00
         21   -1    0    0  503  502  0.00000000000E+00  0.00000000000E+00  0.29694401073E+03  0.29694401073E+03  0.00000000000E+00 0.  1.
         21   -1    0    0  501  503 -0.00000000000E+00 -0.00000000000E+00 -0.26849991982E+03  0.26849991982E+03  0.00000000000E+00 0.  1.
          6    2    1    2  501    0  0.25299538261E+02  0.19431199859E+00 -0.20893644314E+03  0.27181134103E+03  0.17200832377E+03 0.  0.
         24    2    3    3    0    0  0.72293600862E+02 -0.32905891637E+02 -0.16289936880E+03  0.19801725174E+03  0.79783865548E+02 0.  0.
         -6    2    1    2    0  502 -0.25299538261E+02 -0.19431199859E+00  0.23738053405E+03  0.29363258953E+03  0.17096922324E+03 0.  0.
        -24    2    5    5    0    0  0.12117860596E+02  0.29198721342E+01  0.40774404267E+02  0.93418154114E+02  0.83120582746E+02 0.  0.
          5    1    3    3  501    0 -0.46994062601E+02  0.33100203635E+02 -0.46037074344E+02  0.73794089293E+02  0.47000000000E+01 0. -1.
        -13    1    4    4    0    0 -0.16556787922E+02 -0.39424700281E+01 -0.13181365771E+02  0.21527161908E+02  0.00000000000E+00 0.  1.
         14    1    4    4    0    0  0.88850388785E+02 -0.28963421609E+02 -0.14971800302E+03  0.17649008983E+03  0.00000000000E+00 0. -1.
         -5    1    5    5    0  502 -0.37417398857E+02 -0.31141841328E+01  0.19660612978E+03  0.20021443541E+03  0.47000000000E+01 0.  1.
         11    1    6    6    0    0 -0.83255945641E+00 -0.34420239256E+02  0.41457226725E+02  0.53890144493E+02  0.00000000000E+00 0. -1.
        -12    1    6    6    0    0  0.12950420052E+02  0.37340111390E+02 -0.68282245790E+00  0.39528009622E+02  0.00000000000E+00 0.  1.
</event>
<event>
12    1  0.8562501E-002  0.1877204E+03  0.7818608E-02  0.1160936E+00
         21   -1    0    0  501  502  0.00000000000E+00  0.00000000000E+00  0.38711924635E+03  0.38711924635E+03  0.00000000000E+00 0. -1.
         21   -1    0    0  502  503 -0.00000000000E+00 -0.00000000000E+00 -0.12098916294E+03  0.12098916294E+03  0.00000000000E+00 0. -1.
         -6    2    1    2    0  503  0.10124365763E+02  0.69424659876E+02  0.44049636421E+01  0.18602301463E+03  0.17222912671E+03 0.  0.
        -24    2    3    3    0    0  0.67544227472E+02  0.51998758270E+02 -0.24766754014E+02  0.11913668063E+03  0.79461078777E+02 0.  0.
          6    2    1    2  501    0 -0.10124365763E+02 -0.69424659876E+02  0.26172511976E+03  0.32208539466E+03  0.17411684857E+03 0.  0.
         24    2    5    5    0    0 -0.41972824009E+02 -0.55550359910E+02  0.26635313393E+03  0.28672540304E+03  0.80124305628E+02 0.  0.
          5    1    5    5  501    0  0.31848458246E+02 -0.13874299966E+02 -0.46280141689E+01  0.35359991619E+02  0.47000000000E+01 0. -1.
        -13    1    6    6    0    0 -0.18359267674E+02  0.16171495693E+02  0.11510267257E+03  0.11767414846E+03  0.00000000000E+00 0.  1.
         14    1    6    6    0    0 -0.23613556335E+02 -0.71721855603E+02  0.15125046135E+03  0.16905125458E+03  0.00000000000E+00 0. -1.
         -5    1    3    3    0  503 -0.57419861709E+02  0.17425901605E+02  0.29171717656E+02  0.66886334004E+02  0.47000000000E+01 0.  1.
         13    1    4    4    0    0 -0.10526822040E+02  0.35064964343E+02 -0.64021807958E+01  0.37166565964E+02  0.00000000000E+00 0. -1.
        -14    1    4    4    0    0  0.78071049512E+02  0.16933793927E+02 -0.18364573218E+02  0.81970114665E+02  0.00000000000E+00 0.  1.
</event>
<event>
12    1  0.8562501E-002  0.2183542E+03  0.7818608E-02  0.1135252E+00
         21   -1    0    0  503  502  0.00000000000E+00  0.00000000000E+00  0.76509223489E+02  0.76509223489E+02  0.00000000000E+00 0. -1.
         21   -1    0    0  501  503 -0.00000000000E+00 -0.00000000000E+00 -0.62207167607E+03  0.62207167607E+03  0.00000000000E+00 0.  1.
          6    2    1    2  501    0  0.56131578091E+02 -0.12096667106E+03 -0.25869571147E+03  0.33806584760E+03  0.17199231557E+03 0.  0.
         24    2    3    3    0    0  0.62970930272E+02 -0.62409688568E+02 -0.25149786623E+03  0.27848736229E+03  0.80272828198E+02 0.  0.
         -6    2    1    2    0  502 -0.56131578091E+02  0.12096667106E+03 -0.28686674111E+03  0.36051505196E+03  0.17290137642E+03 0.  0.
        -24    2    5    5    0    0 -0.60634184865E+02  0.41188547176E+01 -0.11261577781E+03  0.15061227956E+03  0.79424656138E+02 0.  0.
          5    1    3    3  501    0 -0.68393521805E+01 -0.58556982490E+02 -0.71978452412E+01  0.59578485317E+02  0.47000000000E+01 0. -1.
        -11    1    4    4    0    0  0.13238419158E+02 -0.19847975118E+02 -0.17990619886E+03  0.18148123386E+03  0.00000000000E+00 0.  1.
         12    1    4    4    0    0  0.49732511114E+02 -0.42561713451E+02 -0.71591667376E+02  0.97006128421E+02  0.00000000000E+00 0. -1.
         -5    1    5    5    0  502  0.45026067737E+01  0.11684781634E+03 -0.17425096330E+03  0.20990277240E+03  0.47000000000E+01 0.  1.
         11    1    6    6    0    0  0.76207426451E+01  0.72065549116E+01  0.71737802456E+01  0.12707213509E+02  0.00000000000E+00 0. -1.
        -12    1    6    6    0    0 -0.68254927510E+02 -0.30877001941E+01 -0.11978955806E+03  0.13790506605E+03  0.00000000000E+00 0.  1.
</event>
<event>
12    1  0.8562501E-002  0.2367464E+03  0.7818608E-02  0.1122026E+00
         21   -1    0    0  501  502  0.00000000000E+00  0.00000000000E+00  0.12574620020E+03  0.12574620020E+03  0.00000000000E+00 0. -1.
         21   -1    0    0  502  503 -0.00000000000E+00 -0.00000000000E+00 -0.61800955761E+03  0.61800955761E+03  0.00000000000E+00 0. -1.
         -6    2    1    2    0  503  0.12390813687E+03 -0.10432376854E+03 -0.44287628842E+03  0.50218347376E+03  0.17266198019E+03 0.  0.
        -24    2    3    3    0    0 -0.20902566630E+01 -0.57270130992E+02 -0.22535869103E+03  0.24639912092E+03  0.81496933023E+02 0.  0.
          6    2    1    2  501    0 -0.12390813687E+03  0.10432376854E+03 -0.49387068991E+02  0.24157228405E+03  0.17228293814E+03 0.  0.
         24    2    5    5    0    0 -0.43636440109E+02  0.18686429143E+02 -0.76302630017E+02  0.12105740271E+03  0.81114005342E+02 0.  0.
          5    1    5    5  501    0 -0.80271696760E+02  0.85637339400E+02  0.26915561026E+02  0.12051488135E+03  0.47000000000E+01 0. -1.
        -11    1    6    6    0    0 -0.20212890661E+02 -0.31676686141E+02 -0.38957636899E+02  0.54126434082E+02  0.00000000000E+00 0.  1.
         12    1    6    6    0    0 -0.23423549448E+02  0.50363115283E+02 -0.37344993118E+02  0.66930968623E+02  0.00000000000E+00 0. -1.
         -5    1    3    3    0  503  0.12599839353E+03 -0.47053637551E+02 -0.21751759739E+03  0.25578435283E+03  0.47000000000E+01 0.  1.
         11    1    4    4    0    0  0.36252059446E+02 -0.47859700233E+02 -0.13026035592E+03  0.14343124849E+03  0.00000000000E+00 0. -1.
        -12    1    4    4    0    0 -0.38342316109E+02 -0.94104307593E+01 -0.95098335109E+02  0.10296787243E+03  0.00000000000E+00 0.  1.
</event>
<event>
12    1  0.8562501E-002  0.1887018E+03  0.7818608E-02  0.1160068E+00
         21   -1    0    0  501  502  0.00000000000E+00  0.00000000000E+00  0.25549634749E+03  0.25549634749E+03  0.00000000000E+00 0.  1.
         21   -1    0    0  502  503 -0.00000000000E+00 -0.00000000000E+00 -0.17781752300E+03  0.17781752300E+03  0.00000000000E+00 0. -1.
         -6    2    1    2    0  503 -0.10435439938E+01 -0.74249611179E+02 -0.63552648872E+02  0.19911631189E+03  0.17347700925E+03 0.  0.
        -24    2    3    3    0    0  0.51878452353E+02 -0.73877650029E+01 -0.46848308635E+01  0.95391897367E+02  0.79572065154E+02 0.  0.
          6    2    1    2  501    0  0.10435439938E+01  0.74249611179E+02  0.14123147337E+03  0.23419755860E+03  0.17142950049E+03 0.  0.
         24    2    5    5    0    0  0.53795222015E+02  0.75627944033E+02  0.58614377212E+02  0.13605320617E+03  0.80382323082E+02 0.  0.
          5    1    5    5  501    0 -0.52751678021E+02 -0.13783328544E+01  0.82617096155E+02  0.98144352423E+02  0.47000000000E+01 0. -1.
        -11    1    6    6    0    0  0.12664882967E+02  0.29119543991E+02  0.66281104577E+02  0.73495114985E+02  0.00000000000E+00 0.  1.
         12    1    6    6    0    0  0.41130339048E+02  0.46508400042E+02 -0.76667273649E+01  0.62558091189E+02  0.00000000000E+00 0. -1.
         -5    1    3    3    0  503 -0.52921996346E+02 -0.66861846176E+02 -0.58867818009E+02  0.10372441452E+03  0.47000000000E+01 0.  1.
         13    1    4    4    0    0  0.53017679371E+02  0.39453286674E+01 -0.34566092168E+02  0.63413363512E+02  0.00000000000E+00 0. -1.
        -14    1    4    4    0    0 -0.11392270180E+01 -0.11333093670E+02  0.29881261305E+02  0.31978533855E+02  0.00000000000E+00 0.  1.
</event>
<event>
12    1  0.8562501E-002  0.2477878E+03  0.7818608E-02  0.1114827E+00
         21   -1    0    0  501  502  0.00000000000E+00  0.00000000000E+00  0.55582714552E+03  0.55582714552E+03  0.00000000000E+00 0. -1.
         21   -1    0    0  502  503 -0.00000000000E+00 -0.00000000000E+00 -0.21689478620E+03  0.21689478620E+03  0.00000000000E+00 0.  1.
         -6    2    1    2    0  503 -0.17138819135E+03 -0.46815591148E+02 -0.10171841704E+03  0.26718072008E+03  0.17167786435E+03 0.  0.
        -24    2    3    3    0    0 -0.13705590927E+03 -0.15098768789E+02 -0.29775946590E+01  0.15783492721E+03  0.76750915908E+02 0.  0.
          6    2    1    2  501    0  0.17138819135E+03  0.46815591148E+02  0.44065077636E+03  0.50554121164E+03  0.17272289441E+03 0.  0.
         24    2    5    5    0    0  0.51470474593E+02  0.75473306529E+02  0.16984569316E+03  0.20795255842E+03  0.77789956380E+02 0.  0.
          5    1    5    5  501    0  0.11991771675E+03 -0.28657715381E+02  0.27080508320E+03  0.29758865323E+03  0.47000000000E+01 0. -1.
        -11    1    6    6    0    0  0.86226386984E+00 -0.11600272880E+02  0.50351101269E+02  0.51677298970E+02  0.00000000000E+00 0.  1.
         12    1    6    6    0    0  0.50608210724E+02  0.87073579409E+02  0.11949459189E+03  0.15627525945E+03  0.00000000000E+00 0. -1.
         -5    1    3    3    0  503 -0.34332282076E+02 -0.31716822359E+02 -0.98740822384E+02  0.10934579287E+03  0.47000000000E+01 0.  1.
         11    1    4    4    0    0 -0.44029511242E+02  0.22361522203E+02  0.22646258283E+02  0.54327603938E+02  0.00000000000E+00 0. -1.
        -12    1    4    4    0    0 -0.93026398028E+02 -0.37460290992E+02 -0.25623852942E+02  0.10350732327E+03  0.00000000000E+00 0.  1.
</event>
<event>
12    1  0.8562501E-002  0.1953126E+03  0.7818608E-02  0.1153807E+00
         21   -1    0    0  501  502  0.00000000000E+00  0.00000000000E+00  0.14370534369E+03  0.14370534369E+03  0.00000000000E+00 0.  1.
         21   -1    0    0  502  503 -0.00000000000E+00 -0.00000000000E+00 -0.30240095453E+03  0.30240095453E+03  0.00000000000E+00 0.  1.
         -6    2    1    2    0  503  0.72750690276E+02  0.56134307962E+02 -0.10817663749E+01  0.19531557376E+03  0.17234639442E+03 0.  0.
        -24    2    3    3    0    0  0.63879003474E+02  0.10650798124E+03 -0.27664740700E+02  0.13747995921E+03  0.52066535831E+02 0.  0.
          6    2    1    2  501    0 -0.72750690276E+02 -0.56134307962E+02 -0.15761384446E+03  0.25079072446E+03  0.17207597172E+03 0.  0.
         24    2    5    5    0    0 -0.18986840205E+02 -0.81181464995E+02 -0.15402941812E+03  0.19118493815E+03  0.76653040182E+02 0.  0.
          5    1    5    5  501    0 -0.53763850071E+02  0.25047157033E+02 -0.35844263443E+01  0.59605786314E+02  0.47000000000E+01 0. -1.
        -13    1    6    6    0    0  0.85639325440E+01  0.10615852830E+02 -0.61471595183E+01  0.14960776787E+02  0.00000000000E+00 0.  1.
         14    1    6    6    0    0 -0.27550772749E+02 -0.91797317825E+02 -0.14788225860E+03  0.17622416136E+03  0.00000000000E+00 0. -1.
         -5    1    3    3    0  503  0.88716868023E+01 -0.50373673278E+02  0.26582974325E+02  0.57835614549E+02  0.47000000000E+01 0.  1.
         11    1    4    4    0    0  0.67385545439E+02  0.10044110121E+03 -0.13532738839E+02  0.12170604573E+03  0.00000000000E+00 0. -1.
        -12    1    4    4    0    0 -0.35065419653E+01  0.60668800282E+01 -0.14132001861E+02  0.15773913479E+02  0.00000000000E+00 0.  1.
</event>
<event>
12    1  0.8562501E-002  0.1894917E+03  0.7818608E-02  0.1158922E+00
         21   -1    0    0  503  502  0.00000000000E+00  0.00000000000E+00  0.23329360454E+03  0.23329360454E+03  0.00000000000E+00 0. -1.
         21   -1    0    0  501  503 -0.00000000000E+00 -0.00000000000E+00 -0.15803584282E+03  0.15803584282E+03  0.00000000000E+00 0. -1.
          6    2    1    2  501    0 -0.72924739446E+02 -0.32067862951E+02  0.69244925564E+02  0.20174234235E+03  0.17192657597E+03 0.  0.
         24    2    3    3    0    0  0.59278844669E+01 -0.14068385985E+01 -0.15992285439E+02  0.81553712057E+02  0.79737919133E+02 0.  0.
         -6    2    1    2    0  502  0.72924739446E+02  0.32067862951E+02  0.60128361479E+01  0.18958710501E+03  0.17193240163E+03 0.  0.
        -24    2    5    5    0    0 -0.72695324310E+01 -0.15153074168E+02 -0.31534574103E+02  0.89123996553E+02  0.81646773599E+02 0.  0.
          5    1    3    3  501    0 -0.78852623913E+02 -0.30661024353E+02  0.85237211003E+02  0.12018863029E+03  0.47000000000E+01 0. -1.
        -13    1    4    4    0    0 -0.26520754645E+01  0.22908810481E+01  0.32237452609E+02  0.32427380267E+02  0.00000000000E+00 0.  1.
         14    1    4    4    0    0  0.85799599314E+01 -0.36977196466E+01 -0.48229738048E+02  0.49126331790E+02  0.00000000000E+00 0. -1.
         -5    1    5    5    0  502  0.80194271877E+02  0.47220937119E+02  0.37547410251E+02  0.10046310846E+03  0.47000000000E+01 0.  1.
         13    1    6    6    0    0 -0.14144777050E+02  0.19630179654E+02  0.16598497789E+02  0.29341588231E+02  0.00000000000E+00 0. -1.
        -14    1    6    6    0    0  0.68752446187E+01 -0.34783253822E+02 -0.48133071892E+02  0.59782408322E+02  0.00000000000E+00 0.  1.
</event>
<event>
12    1  0.8562501E-002  0.2763446E+03  0.7818608E-02  0.1097972E+00
         21   -1    0    0  503  502  0.00000000000E+00  0.00000000000E+00  0.21747347871E+03  0.21747347871E+03  0.00000000000E+00 0. -1.
         21   -1    0    0  501  503 -0.00000000000E+00 -0.00000000000E+00 -0.61583729543E+03  0.61583729543E+03  0.00000000000E+00 0. -1.
          6    2    1    2  501    0  0.13190772754E+03 -0.17030089054E+03 -0.47320296295E+03  0.54701157341E+03  0.16999580994E+03 0.  0.
         24    2    3    3    0    0  0.80252112390E+02 -0.20027139208E+02 -0.19612504343E+03  0.22756710812E+03  0.80500112998E+02 0.  0.
         -6    2    1    2    0  502 -0.13190772754E+03  0.17030089054E+03  0.74839146228E+02  0.28629920072E+03  0.17310197174E+03 0.  0.
        -24    2    5    5    0    0  0.57244267543E+01  0.53005042911E+02  0.27988668520E+02  0.99435659523E+02  0.79131417172E+02 0.  0.
          5    1    3    3  501    0  0.51655615151E+02 -0.15027375133E+03 -0.27707791952E+03  0.31944446529E+03  0.47000000000E+01 0. -1.
        -11    1    4    4    0    0  0.62845378429E+01 -0.31027305162E+02 -0.23456048501E+02  0.39400194071E+02  0.00000000000E+00 0.  1.
         12    1    4    4    0    0  0.73967574547E+02  0.11000165954E+02 -0.17266899493E+03  0.18816691405E+03  0.00000000000E+00 0. -1.
         -5    1    5    5    0  502 -0.13763215430E+03  0.11729584763E+03  0.46850477707E+02  0.18686354120E+03  0.47000000000E+01 0.  1.
         11    1    6    6    0    0 -0.34886865407E+02  0.10058495468E+02  0.10650018308E+02  0.37837674333E+02  0.00000000000E+00 0. -1.
        -12    1    6    6    0    0  0.40611292161E+02  0.42946547443E+02  0.17338650212E+02  0.61597985190E+02  0.00000000000E+00 0.  1.
</event>
<event>
12    1  0.8562501E-002  0.2138385E+03  0.7818608E-02  0.1138852E+00
         21   -1    0    0  501  502  0.00000000000E+00  0.00000000000E+00  0.12741742462E+03  0.12741742462E+03  0.00000000000E+00 0.  1.
         21   -1    0    0  502  503 -0.00000000000E+00 -0.00000000000E+00 -0.68063247469E+03  0.68063247469E+03  0.00000000000E+00 0.  1.
         -6    2    1    2    0  503  0.93118817227E+02 -0.82703360224E+02 -0.55496804000E+03  0.59420418155E+03  0.17198291786E+03 0.  0.
        -24    2    3    3    0    0  0.73325155035E+02 -0.62833753704E+02 -0.18593094947E+03  0.22407305004E+03  0.79459139296E+02 0.  0.
          6    2    1    2  501    0 -0.93118817227E+02  0.82703360224E+02  0.17529899384E+01  0.21384571776E+03  0.17382738022E+03 0.  0.
         24    2    5    5    0    0  0.57006654721E+01 -0.49268031206E+01  0.15024440116E+02  0.81020429960E+02  0.79257840586E+02 0.  0.
          5    1    5    5  501    0 -0.98819482699E+02  0.87630163345E+02 -0.13271450178E+02  0.13282528780E+03  0.47000000000E+01 0. -1.
        -13    1    6    6    0    0 -0.24257645177E+02  0.26298895941E+02  0.20168974488E+01  0.35834803649E+02  0.00000000000E+00 0.  1.
         14    1    6    6    0    0  0.29958310649E+02 -0.31225699062E+02  0.13007542667E+02  0.45185626311E+02  0.00000000000E+00 0. -1.
         -5    1    3    3    0  503  0.19793662192E+02 -0.19869606521E+02 -0.36903709054E+03  0.37013113152E+03  0.47000000000E+01 0.  1.
         13    1    4    4    0    0  0.17386035757E+02 -0.66443475577E+02 -0.94387020199E+02  0.11673011295E+03  0.00000000000E+00 0. -1.
        -14    1    4    4    0    0  0.55939119278E+02  0.36097218737E+01 -0.91543929267E+02  0.10734293709E+03  0.00000000000E+00 0.  1.
</event>
<event>
12    1  0.8562501E-002  0.1808329E+03  0.7818608E-02  0.1167735E+00
         21   -1    0    0  501  502  0.00000000000E+00  0.00000000000E+00  0.45466642242E+02  0.45466642242E+02  0.00000000000E+00 0. -1.
         21   -1    0    0  502  503 -0.00000000000E+00 -0.00000000000E+00 -0.76283230526E+03  0.76283230526E+03  0.00000000000E+00 0. -1.
         -6    2    1    2    0  503  0.24925994428E+02 -0.47616366319E+02 -0.47060873381E+03  0.50415586375E+03  0.17266131896E+03 0.  0.
        -24    2    3    3    0    0  0.12560609291E+02 -0.74129168659E+02 -0.46014385267E+03  0.47273238248E+03  0.78042538029E+02 0.  0.
          6    2    1    2  501    0 -0.24925994428E+02  0.47616366319E+02 -0.24675692920E+03  0.30414308375E+03  0.16948572137E+03 0.  0.
         24    2    5    5    0    0  0.34370370689E+02  0.72433076329E+02 -0.16576014808E+03  0.20063223136E+03  0.79680566267E+02 0.  0.
          5    1    5    5  501    0 -0.59296365117E+02 -0.24816710010E+02 -0.80996781116E+02  0.10351085239E+03  0.47000000000E+01 0. -1.
        -11    1    6    6    0    0  0.29824247834E+02  0.28354952079E+02 -0.14675679354E+03  0.15241733994E+03  0.00000000000E+00 0.  1.
         12    1    6    6    0    0  0.45461228555E+01  0.44078124250E+02 -0.19003354546E+02  0.48214891417E+02  0.00000000000E+00 0. -1.
         -5    1    3    3    0  503  0.12365385137E+02  0.26512802340E+02 -0.10464881144E+02  0.31423481266E+02  0.47000000000E+01 0.  1.
         11    1    4    4    0    0  0.33164640673E+02 -0.98746657140E+01 -0.23992692159E+03  0.24240942663E+03  0.00000000000E+00 0. -1.
        -12    1    4    4    0    0 -0.20604031382E+02 -0.64254502945E+02 -0.22021693108E+03  0.23032295585E+03  0.00000000000E+00 0.  1.
</event>
<event>
12    1  0.8562501E-002  0.2119308E+03  0.7818608E-02  0.1140072E+00
         21   -1    0    0  503  502  0.00000000000E+00  0.00000000000E+00  0.43156052552E+02  0.43156052552E+02  0.00000000000E+00 0. -1.
         21   -1    0    0  501  503 -0.00000000000E+00 -0.00000000000E+00 -0.14578942039E+04  0.14578942039E+04  0.00000000000E+00 0.  1.
          6    2    1    2  501    0  0.10929575231E+02 -0.12296384655E+03 -0.11093093399E+04  0.11293723339E+04  0.17226460397E+03 0.  0.
         24    2    3    3    0    0  0.74618000036E+02 -0.49744214376E+02 -0.51359346582E+03  0.52578570164E+03  0.68044273271E+02 0.  0.
         -6    2    1    2    0  502 -0.10929575231E+02  0.12296384655E+03 -0.30542881147E+03  0.37167792259E+03  0.17209926233E+03 0.  0.
        -24    2    5    5    0    0 -0.49948510295E+02  0.10651376842E+03 -0.13485379132E+03  0.19586265060E+03  0.79602740690E+02 0.  0.
          5    1    3    3  501    0 -0.63688424805E+02 -0.73219632170E+02 -0.59571587411E+03  0.60358663227E+03  0.47000000000E+01 0. -1.
        -13    1    4    4    0    0  0.70075668353E+02 -0.15362073010E+02 -0.41764869031E+03  0.42376529010E+03  0.00000000000E+00 0.  1.
         14    1    4    4    0    0  0.45423316830E+01 -0.34382141366E+02 -0.95944775512E+02  0.10202041154E+03  0.00000000000E+00 0. -1.
         -5    1    5    5    0  502  0.39018935064E+02  0.16450078130E+02 -0.17057502015E+03  0.17581527199E+03  0.47000000000E+01 0.  1.
         13    1    6    6    0    0 -0.51506543931E+02  0.48871397715E+02 -0.31854501271E+02  0.77820606741E+02  0.00000000000E+00 0. -1.
        -14    1    6    6    0    0  0.15580336359E+01  0.57642370701E+02 -0.10299929005E+03  0.11804204386E+03  0.00000000000E+00 0.  1.
</event>
<event>
12    1  0.8562501E-002  0.1963152E+03  0.7818608E-02  0.1153229E+00
         21   -1    0    0  501  502  0.00000000000E+00  0.00000000000E+00  0.15546885816E+03  0.15546885816E+03  0.00000000000E+00 0. -1.
         21   -1    0    0  502  503 -0.00000000000E+00 -0.00000000000E+00 -0.25694670546E+03  0.25694670546E+03  0.00000000000E+00 0.  1.
         -6    2    1    2    0  503  0.49399358648E+02  0.76123070703E+02 -0.77856763628E+01  0.19488882483E+03  0.17229631093E+03 0.  0.
        -24    2    3    3    0    0  0.73280372184E+02  0.10470348533E+02  0.30557584898E+02  0.11505851467E+03  0.82613889015E+02 0.  0.
          6    2    1    2  501    0 -0.49399358648E+02 -0.76123070703E+02 -0.93692170935E+02  0.21752673879E+03  0.17408228131E+03 0.  0.
         24    2    5    5    0    0 -0.46211336911E+02 -0.55751544355E+02 -0.13287041858E+03  0.17300497268E+03  0.83859704759E+02 0.  0.
          5    1    5    5  501    0 -0.31880217380E+01 -0.20371526348E+02  0.39178247646E+02  0.44521766103E+02  0.47000000000E+01 0. -1.
        -11    1    6    6    0    0  0.15055206121E+02 -0.28256457857E+02 -0.84163195702E+02  0.90047377267E+02  0.00000000000E+00 0.  1.
         12    1    6    6    0    0 -0.61266543032E+02 -0.27495086499E+02 -0.48707222879E+02  0.82957595416E+02  0.00000000000E+00 0. -1.
         -5    1    3    3    0  503 -0.23881013535E+02  0.65652722170E+02 -0.38343261261E+02  0.79830310158E+02  0.47000000000E+01 0.  1.
         11    1    4    4    0    0  0.42533426927E+02  0.15720713206E+02  0.57924565994E+02  0.73562820606E+02  0.00000000000E+00 0. -1.
        -12    1    4    4    0    0  0.30746945257E+02 -0.52503646726E+01 -0.27366981096E+02  0.41495694068E+02  0.00000000000E+00 0.  1.
</event>
<event>
12    1  0.8562501E-002  0.3098790E+03  0.7818608E-02  0.1080415E+00
         21   -1    0    0  503  502  0.00000000000E+00  0.00000000000E+00  0.74255664847E+03  0.74255664847E+03  0.00000000000E+00 0. -1.
         21   -1    0    0  501  503 -0.00000000000E+00 -0.00000000000E+00 -0.12983749785E+03  0.12983749785E+03  0.00000000000E+00 0. -1.
          6    2    1    2  501    0 -0.61624799408E+01 -0.25781337218E+03  0.27780935580E+03  0.41617669449E+03  0.17181179188E+03 0.  0.
         24    2    3    3    0    0  0.20151121852E+02 -0.97923201973E+02  0.52319560805E+02  0.13846279528E+03  0.80247043784E+02 0.  0.
         -6    2    1    2    0  502  0.61624799408E+01  0.25781337218E+03  0.33490979483E+03  0.45621745183E+03  0.17165104617E+03 0.  0.
        -24    2    5    5    0    0 -0.36510742491E+02  0.23504483252E+03  0.22974825063E+03  0.34037078296E+03  0.80553731232E+02 0.  0.
          5    1    3    3  501    0 -0.26313601793E+02 -0.15989017021E+03  0.22548979499E+03  0.27771389921E+03  0.47000000000E+01 0. -1.
        -11    1    4    4    0    0 -0.27876545756E+02 -0.14768906432E+02  0.71748123500E+01  0.32352748457E+02  0.00000000000E+00 0.  1.
         12    1    4    4    0    0  0.48027667608E+02 -0.83154295541E+02  0.45144748455E+02  0.10611004682E+03  0.00000000000E+00 0. -1.
         -5    1    5    5    0  502  0.42673222432E+02  0.22768539664E+02  0.10516154420E+03  0.11584666887E+03  0.47000000000E+01 0.  1.
         11    1    6    6    0    0 -0.58716368273E+02  0.12021437587E+03  0.13199728920E+03  0.18794252426E+03  0.00000000000E+00 0. -1.
        -12    1    6    6    0    0  0.22205625782E+02  0.11483045665E+03  0.97750961432E+02  0.15242825870E+03  0.00000000000E+00 0.  1.
</event>
<event>
12    1  0.8562501E-002  0.2203171E+03  0.7818608E-02  0.1133887E+00
         21   -1    0    0  503  502  0.00000000000E+00  0.00000000000E+00  0.47689391833E+03  0.47689391833E+03  0.00000000000E+00 0.  1.
         21   -1    0    0  501  503 -0.00000000000E+00 -0.00000000000E+00 -0.10658648150E+03  0.10658648150E+03  0.00000000000E+00 0. -1.
          6    2    1    2  501    0  0.43053137015E+01 -0.13504993266E+03  0.25028920168E+03  0.33259393995E+03  0.17238626503E+03 0.  0.
         24    2    3    3    0    0 -0.60225812858E+02 -0.51156663506E+02  0.14414440672E+03  0.18262342817E+03  0.79558492774E+02 0.  0.
         -6    2    1    2    0  502 -0.43053137015E+01  0.13504993266E+03  0.12001823515E+03  0.25088645988E+03  0.17401901892E+03 0.  0.
        -24    2    5    5    0    0  0.19365557798E+02  0.16253014876E+03  0.11722029203E+03  0.21420688900E+03  0.73163654560E+02 0.  0.
          5    1    3    3  501    0  0.64531126560E+02 -0.83893269159E+02  0.10614479496E+03  0.14997051178E+03  0.47000000000E+01 0. -1.
        -11    1    4    4    0    0 -0.26704672828E+02 -0.40208381831E+02  0.17793391163E+02  0.51443739069E+02  0.00000000000E+00 0.  1.
         12    1    4    4    0    0 -0.33521140030E+02 -0.10948281676E+02  0.12635101556E+03  0.13117968910E+03  0.00000000000E+00 0. -1.
         -5    1    5    5    0  502 -0.23670871499E+02 -0.27480216094E+02  0.27979431183E+01  0.36679570878E+02  0.47000000000E+01 0.  1.
         13    1    6    6    0    0  0.22002819924E+02  0.11329091121E+03  0.39148528276E+02  0.12186698451E+03  0.00000000000E+00 0. -1.
        -14    1    6    6    0    0 -0.26372621259E+01  0.49239237546E+02  0.78071763756E+02  0.92339904492E+02  0.00000000000E+00 0.  1.
</event>
<event>
12    1  0.8562501E-002  0.1721525E+03  0.7818608E-02  0.1175691E+00
         21   -1    0    0  501  502  0.00000000000E+00  0.00000000000E+00  0.10727224022E+03  0.10727224022E+03  0.00000000000E+00 0.  1.
         21   -1    0    0  502  503 -0.00000000000E+00 -0.00000000000E+00 -0.29943048898E+03  0.29943048898E+03  0.00000000000E+00 0.  1.
         -6    2    1    2    0  503 -0.41532474610E+01  0.99020723159E+01 -0.15308833106E+03  0.23017241501E+03  0.17154592104E+03 0.  0.
        -24    2    3    3    0    0  0.51747704537E+02  0.39480737010E+02 -0.76602335022E+02  0.13081441871E+03  0.83713445108E+02 0.  0.
          6    2    1    2  501    0  0.41532474610E+01 -0.99020723159E+01 -0.39069917698E+02  0.17653031419E+03  0.17181732409E+03 0.  0.
         24    2    5    5    0    0  0.38973514916E+02 -0.58863404827E+02 -0.46893079054E+02  0.11576062634E+03  0.78852561505E+02 0.  0.
          5    1    5    5  501    0 -0.34820267455E+02  0.48961332511E+02  0.78231613557E+01  0.60769687843E+02  0.47000000000E+01 0. -1.
        -13    1    6    6    0    0  0.12629488573E+02 -0.68960670474E+02 -0.12394554491E+02  0.71194824495E+02  0.00000000000E+00 0.  1.
         14    1    6    6    0    0  0.26344026342E+02  0.10097265647E+02 -0.34498524563E+02  0.44565801850E+02  0.00000000000E+00 0. -1.
         -5    1    3    3    0  503 -0.55900951998E+02 -0.29578664694E+02 -0.76485996035E+02  0.99357996300E+02  0.47000000000E+01 0.  1.
         11    1    4    4    0    0  0.21613342067E+02 -0.22938093801E+02 -0.44242599163E+02  0.54320348703E+02  0.00000000000E+00 0. -1.
        -12    1    4    4    0    0  0.30134362470E+02  0.62418830811E+02 -0.32359735859E+02  0.76494070006E+02  0.00000000000E+00 0.  1.
</event>
<event>
12    1  0.8562501E-002  0.1733825E+03  0.7818608E-02  0.1174401E+00
         21   -1    0    0  503  502  0.00000000000E+00  0.00000000000E+00  0.18201739299E+02  0.18201739299E+02  0.00000000000E+00 0. -1.
         21   -1    0    0  501  503 -0.00000000000E+00 -0.00000000000E+00 -0.18069610093E+04  0.18069610093E+04  0.00000000000E+00 0. -1.
          6    2    1    2  501    0  0.42377242013E+01  0.18212335129E+02 -0.62596443564E+03  0.64953288652E+03  0.17237125201E+03 0.  0.
         24    2    3    3    0    0  0.86938897432E+01  0.72952890788E+02 -0.51127265019E+03  0.52228241895E+03  0.77340121022E+02 0.  0.
         -6    2    1    2    0  502 -0.42377242013E+01 -0.18212335129E+02 -0.11627948344E+04  0.11756298621E+04  0.17223268667E+03 0.  0.
        -24    2    5    5    0    0  0.27934051365E+02 -0.22397824413E+01 -0.37235769840E+03  0.38436309197E+03  0.91101059605E+02 0.  0.
          5    1    3    3  501    0 -0.44561655419E+01 -0.54740555659E+02 -0.11469178546E+03  0.12725046757E+03  0.47000000000E+01 0. -1.
        -13    1    4    4    0    0  0.17527919373E+02 -0.11324316301E+02 -0.13360587658E+03  0.13522573111E+03  0.00000000000E+00 0.  1.
         14    1    4    4    0    0 -0.88340296295E+01  0.84277207089E+02 -0.37766677361E+03  0.38705668784E+03  0.00000000000E+00 0. -1.
         -5    1    5    5    0  502 -0.32171775566E+02 -0.15972552688E+02 -0.79043713598E+03  0.79126677013E+03  0.47000000000E+01 0.  1.
         11    1    6    6    0    0  0.13696963951E+02 -0.18838385080E+01 -0.36959815589E+03  0.36985666481E+03  0.00000000000E+00 0. -1.
        -12    1    6    6    0    0  0.14237087414E+02 -0.35594393338E+00 -0.27595425126E+01  0.14506427162E+02  0.00000000000E+00 0.  1.
</event>
<event>
12    1  0.8562501E-002  0.1919084E+03  0.7818608E-02  0.1156858E+00
         21   -1    0    0  501  502  0.00000000000E+00  0.00000000000E+00  0.71813789046E+02  0.71813789046E+02  0.00000000000E+00 0.  1.
         21   -1    0    0  502  503 -0.00000000000E+00 -0.00000000000E+00 -0.94397654191E+03  0.94397654191E+03  0.00000000000E+00 0.  1.
         -6    2    1    2    0  503 -0.76271916944E+02  0.37779701312E+02 -0.78012988396E+03  0.80338748766E+03  0.17200031493E+03 0.  0.
        -24    2    3    3    0    0 -0.45081956487E+02 -0.45121019740E+02 -0.40833630102E+03  0.42115993567E+03  0.81048550025E+02 0.  0.
          6    2    1    2  501    0  0.76271916944E+02 -0.37779701312E+02 -0.92032868896E+02  0.21240284329E+03  0.17146488776E+03 0.  0.
         24    2    5    5    0    0  0.16003434656E+02 -0.43843747925E+02  0.12969155294E+02  0.91090940727E+02  0.77142571519E+02 0.  0.
          5    1    5    5  501    0  0.60268482288E+02  0.60640466133E+01 -0.10500202419E+03  0.12131190256E+03  0.47000000000E+01 0. -1.
        -13    1    6    6    0    0  0.34146259328E+02 -0.57088957953E+02  0.16014839478E+02  0.68422154524E+02  0.00000000000E+00 0.  1.
         14    1    6    6    0    0 -0.18142824672E+02  0.13245210027E+02 -0.30456841838E+01  0.22668786203E+02  0.00000000000E+00 0. -1.
         -5    1    3    3    0  503 -0.31189960457E+02  0.82900721052E+02 -0.37179358294E+03  0.38222755199E+03  0.47000000000E+01 0.  1.
         13    1    4    4    0    0  0.21427934208E+02 -0.16913700114E+02 -0.68700017047E+02  0.73925110471E+02  0.00000000000E+00 0. -1.
        -14    1    4    4    0    0 -0.66509890695E+02 -0.28207319627E+02 -0.33963628397E+03  0.34723482520E+03  0.00000000000E+00 0.  1.
</event>
<event>
12    1  0.8562501E-002  0.1722178E+03  0.7818608E-02  0.1175768E+00
         21   -1    0    0  501  502  0.00000000000E+00  0.00000000000E+00  0.24947253945E+03  0.24947253945E+03  0.00000000000E+00 0.  1.
         21   -1    0    0  502  503 -0.00000000000E+00 -0.00000000000E+00 -0.12633533111E+03  0.12633533111E+03  0.00000000000E+00 0.  1.
         -6    2    1    2    0  503  0.94318258432E+01  0.31606265781E+01  0.10877353711E+03  0.20299210602E+03  0.17109986508E+03 0.  0.
        -24    2    3    3    0    0  0.38970921211E+02  0.55158143886E+02  0.94675360938E+02  0.14137109878E+03  0.80381652539E+02 0.  0.
          6    2    1    2  501    0 -0.94318258432E+01 -0.31606265781E+01  0.14363671231E+02  0.17281576455E+03  0.17193028973E+03 0.  0.
         24    2    5    5    0    0  0.49677187795E+02 -0.18364499212E+02  0.42735363506E+02  0.10534668897E+03  0.80414773299E+02 0.  0.
          5    1    5    5  501    0 -0.59109013638E+02  0.15203872634E+02 -0.28371692275E+02  0.67469075574E+02  0.47000000000E+01 0. -1.
        -13    1    6    6    0    0  0.54971736525E+02  0.19252803278E+02  0.24113329460E+02  0.63039788295E+02  0.00000000000E+00 0.  1.
         14    1    6    6    0    0 -0.52945487305E+01 -0.37617302489E+02  0.18622034046E+02  0.42306900676E+02  0.00000000000E+00 0. -1.
         -5    1    3    3    0  503 -0.29539095368E+02 -0.51997517308E+02  0.14098176170E+02  0.61621007235E+02  0.47000000000E+01 0.  1.
         11    1    4    4    0    0  0.49149518857E+02  0.32305806128E+02  0.99793311781E+02  0.11583628702E+03  0.00000000000E+00 0. -1.
        -12    1    4    4    0    0 -0.10178597646E+02  0.22852337758E+02 -0.51179508431E+01  0.25534811765E+02  0.00000000000E+00 0.  1.
</event>
<event>
12    1  0.8562501E-002  0.2589590E+03  0.7818608E-02  0.1107869E+00
         21   -1    0    0  501  502  0.00000000000E+00  0.00000000000E+00  0.31368641791E+02  0.31368641791E+02  0.00000000000E+00 0. -1.
         21   -1    0    0  502  503 -0.00000000000E+00 -0.00000000000E+00 -0.22890084339E+04  0.22890084339E+04  0.00000000000E+00 0. -1.
         -6    2    1    2    0  503 -0.68894926745E+02  0.17970232121E+03 -0.14335745502E+04  0.14567758098E+04  0.17326376961E+03 0.  0.
        -24    2    3    3    0    0 -0.26819819434E+02  0.19299560671E+03 -0.12680330302E+04  0.12853899558E+04  0.79705495230E+02 0.  0.
          6    2    1    2  501    0  0.68894926745E+02 -0.17970232121E+03 -0.82406524192E+03  0.86360126590E+03  0.17229099902E+03 0.  0.
         24    2    5    5    0    0 -0.11306730403E+02 -0.52333453726E+02 -0.20960052823E+03  0.23095277852E+03  0.80871329536E+02 0.  0.
          5    1    5    5  501    0  0.80201657148E+02 -0.12736886749E+03 -0.61446471369E+03  0.63264848738E+03  0.47000000000E+01 0. -1.
        -11    1    6    6    0    0 -0.63424633634E+01  0.18645899711E+02 -0.18442303959E+02  0.26981752961E+02  0.00000000000E+00 0.  1.
         12    1    6    6    0    0 -0.49642670394E+01 -0.70979353436E+02 -0.19115822427E+03  0.20397102556E+03  0.00000000000E+00 0. -1.
         -5    1    3    3    0  503 -0.42075107311E+02 -0.13293285501E+02 -0.16554152004E+03  0.17138585400E+03  0.47000000000E+01 0.  1.
         11    1    4    4    0    0 -0.25289053009E+02  0.10295439355E+03 -0.44543031398E+03  0.45787258923E+03  0.00000000000E+00 0. -1.
        -12    1    4    4    0    0 -0.15307664256E+01  0.90041213168E+02 -0.82260271619E+03  0.82751736658E+03  0.00000000000E+00 0.  1.
</event>
<event>
12    1  0.8562501E-002  0.1878305E+03  0.7818608E-02  0.1160603E+00
         21   -1    0    0  501  502  0.00000000000E+00  0.00000000000E+00  0.13307472982E+04  0.13307472982E+04  0.00000000000E+00 0. -1.
         21   -1    0    0  502  503 -0.00000000000E+00 -0.00000000000E+00 -0.64009464830E+02  0.64009464830E+02  0.00000000000E+00 0.  1.
         -6    2    1    2    0  503  0.59699135958E+02 -0.41092580897E+02  0.98342890494E+02  0.21136037001E+03  0.17247983900E+03 0.  0.
        -24    2    3    3    0    0  0.91291451791E+02  0.32447532780E+01  0.33588587078E+02  0.12663089797E+03  0.81009465778E+02 0.  0.
          6    2    1    2  501    0 -0.59699135958E+02  0.41092580897E+02  0.11683949429E+04  0.11833963930E+04  0.17328500635E+03 0.  0.
         24    2    5    5    0    0 -0.31105506437E+02 -0.87013756324E+01  0.27339632939E+03  0.28654543445E+03  0.79495072843E+02 0.  0.
          5    1    5    5  501    0 -0.28593629521E+02  0.49793956529E+02  0.89499861349E+03  0.89685095858E+03  0.47000000000E+01 0. -1.
        -13    1    6    6    0    0  0.22156287794E+02 -0.17724517779E+02  0.13563665122E+03  0.13857258305E+03  0.00000000000E+00 0.  1.
         14    1    6    6    0    0 -0.53261794231E+02  0.90231421467E+01  0.13775967817E+03  0.14797285139E+03  0.00000000000E+00 0. -1.
         -5    1    3    3    0  503 -0.31592315834E+02 -0.44337334175E+02  0.64754303415E+02  0.84729472040E+02  0.47000000000E+01 0.  1.
         13    1    4    4    0    0  0.22166648033E+02  0.86469194304E+01  0.50006084010E+02  0.55378135927E+02  0.00000000000E+00 0. -1.
        -14    1    4    4    0    0  0.69124803758E+02 -0.54021661524E+01 -0.16417496932E+02  0.71252762047E+02  0.00000000000E+00 0.  1.
</event>
<event>
12    1  0.8562501E-002  0.2119174E+03  0.7818608E-02  0.1140176E+00
         21   -1    0    0  503  502  0.00000000000E+00  0.00000000000E+00  0.36600309356E+03  0.36600309356E+03  0.00000000000E+00 0.  1.
         21   -1    0    0  501  503 -0.00000000000E+00 -0.00000000000E+00 -0.13254259106E+03  0.13254259106E+03  0.00000000000E+00 0.  1.
          6    2    1    2  501    0  0.28172082227E+01 -0.12282606803E+03  0.47753106039E+02  0.21723109426E+03  0.17266965434E+03 0.  0.
         24    2    3    3    0    0 -0.33253858800E+02 -0.17633726216E+01  0.16422791211E+02  0.86996779574E+02  0.78675300933E+02 0.  0.
         -6    2    1    2    0  502 -0.28172082227E+01  0.12282606803E+03  0.18570739646E+03  0.28131459036E+03  0.17191998720E+03 0.  0.
        -24    2    5    5    0    0  0.59525753366E+02  0.43616842810E+02  0.11357033632E+03  0.15727188938E+03  0.79940487914E+02 0.  0.
          5    1    3    3  501    0  0.36071067023E+02 -0.12106269541E+03  0.31330314828E+02  0.13023431469E+03  0.47000000000E+01 0. -1.
        -13    1    4    4    0    0 -0.85870122295E+01 -0.30324180099E+02 -0.17676224234E+02  0.36135046435E+02  0.00000000000E+00 0.  1.
         14    1    4    4    0    0 -0.24666846571E+02  0.28560807478E+02  0.34099015445E+02  0.50861733138E+02  0.00000000000E+00 0. -1.
         -5    1    5    5    0  502 -0.62342961589E+02  0.79209225219E+02  0.72137060141E+02  0.12404270098E+03  0.47000000000E+01 0.  1.
         13    1    6    6    0    0  0.51540622521E+02  0.48302980966E+02  0.36243473908E+02  0.79392714659E+02  0.00000000000E+00 0. -1.
        -14    1    6    6    0    0  0.79851308450E+01 -0.46861381559E+01  0.77326862408E+02  0.77879174721E+02  0.00000000000E+00 0.  1.
</event>
<event>
12    1  0.8562501E-002  0.2369278E+03  0.7818608E-02  0.1121948E+00
         21   -1    0    0  503  502  0.00000000000E+00  0.00000000000E+00  0.62086594303E+03  0.62086594303E+03  0.00000000000E+00 0.  1.
         21   -1    0    0  501  503 -0.00000000000E+00 -0.00000000000E+00 -0.12640397727E+03  0.12640397727E+03  0.00000000000E+00 0. -1.
          6    2    1    2  501    0  0.15715256256E+03  0.40290933382E+02  0.47491742863E+02  0.24164077035E+03  0.17266878416E+03 0.  0.
         24    2    3    3    0    0  0.98085794714E+02  0.74049311928E+02 -0.16087597384E+02  0.14840486690E+03  0.81615378501E+02 0.  0.
         -6    2    1    2    0  502 -0.15715256256E+03 -0.40290933382E+02  0.44697022290E+03  0.50562914996E+03  0.17192489609E+03 0.  0.
        -24    2    5    5    0    0 -0.11354062942E+02 -0.37645779390E+02  0.14198144791E+03  0.16753975024E+03  0.79779175913E+02 0.  0.
          5    1    3    3  501    0  0.59066767849E+02 -0.33758378547E+02  0.63579340247E+02  0.93235903452E+02  0.47000000000E+01 0. -1.
        -13    1    4    4    0    0 -0.13562791766E+02  0.50612517701E+01  0.53284713637E+01  0.15425893719E+02  0.00000000000E+00 0.  1.
         14    1    4    4    0    0  0.11164858648E+03  0.68988060158E+02 -0.21416068748E+02  0.13297897318E+03  0.00000000000E+00 0. -1.
         -5    1    5    5    0  502 -0.14579849962E+03 -0.26451539911E+01  0.30498877499E+03  0.33808939972E+03  0.47000000000E+01 0.  1.
         13    1    6    6    0    0 -0.19608583512E+02 -0.29184519258E+02  0.12193233587E+02  0.37214347462E+02  0.00000000000E+00 0. -1.
        -14    1    6    6    0    0  0.82545205701E+01 -0.84612601320E+01  0.12978821432E+03  0.13032540278E+03  0.00000000000E+00 0.  1.
</event>
<event>
12    1  0.8562501E-002  0.1755528E+03  0.7818608E-02  0.1172322E+00
         21   -1    0    0  503  502  0.00000000000E+00  0.00000000000E+00  0.38157115693E+03  0.38157115693E+03  0.00000000000E+00 0.  1.
         21   -1    0    0  501  503 -0.00000000000E+00 -0.00000000000E+00 -0.80517793121E+02  0.80517793121E+02  0.00000000000E+00 0.  1.
          6    2    1    2  501    0  0.12340614047E+02 -0.29936696832E+02  0.15336598331E+03  0.23267589920E+03  0.17195479830E+03 0.  0.
         24    2    3    3    0    0 -0.26827644868E+02  0.22810343298E+02  0.22799382820E+02  0.86435925483E+02  0.75573295989E+02 0.  0.
         -6    2    1    2    0  502 -0.12340614047E+02  0.29936696832E+02  0.14768738050E+03  0.22941305085E+03  0.17254068787E+03 0.  0.
        -24    2    5    5    0    0 -0.70201000697E+02 -0.13621673138E+02  0.75129412611E+02  0.12678798256E+03  0.72917990953E+02 0.  0.
          5    1    3    3  501    0  0.39168258914E+02 -0.52747040130E+02  0.13056660049E+03  0.14623997371E+03  0.47000000000E+01 0. -1.
        -11    1    4    4    0    0 -0.48262823317E+02  0.11655233120E+01 -0.18148944779E+00  0.48277235810E+02  0.00000000000E+00 0.  1.
         12    1    4    4    0    0  0.21435178449E+02  0.21644819985E+02  0.22980872268E+02  0.38158689673E+02  0.00000000000E+00 0. -1.
         -5    1    5    5    0  502  0.57860386650E+02  0.43558369970E+02  0.72557967890E+02  0.10262506829E+03  0.47000000000E+01 0.  1.
         13    1    6    6    0    0  0.33340973917E+01 -0.22104517677E+02  0.15361805106E+01  0.22407270198E+02  0.00000000000E+00 0. -1.
        -14    1    6    6    0    0 -0.73535098088E+02  0.84828445398E+01  0.73593232101E+02  0.10438071236E+03  0.00000000000E+00 0.  1.
</event>
<event>
12    1  0.8562501E-002  0.3714981E+03  0.7818608E-02  0.1054166E+00
         21   -1    0    0  501  502  0.00000000000E+00  0.00000000000E+00  0.64236980416E+03  0.64236980416E+03  0.00000000000E+00 0.  1.
         21   -1    0    0  502  503 -0.00000000000E+00 -0.00000000000E+00 -0.38817565767E+03  0.38817565767E+03  0.00000000000E+00 0. -1.
         -6    2    1    2    0  503 -0.38975953369E+02  0.32750219100E+03 -0.21753357033E+03  0.43009742227E+03  0.16995919620E+03 0.  0.
        -24    2    3    3    0    0 -0.24062038116E+02  0.31692958209E+03 -0.23584795247E+03  0.40379701314E+03  0.80027679314E+02 0.  0.
          6    2    1    2  501    0  0.38975953369E+02 -0.32750219100E+03  0.47172771682E+03  0.60044803956E+03  0.17097952902E+03 0.  0.
         24    2    5    5    0    0  0.21612591871E+02 -0.33767793588E+03  0.46057389753E+03  0.57696336815E+03  0.79151251396E+02 0.  0.
          5    1    5    5  501    0  0.17363361498E+02  0.10175744879E+02  0.11153819297E+02  0.23484671411E+02  0.47000000000E+01 0. -1.
        -13    1    6    6    0    0  0.19302056339E+02 -0.29136651873E+03  0.43525670767E+03  0.52413301669E+03  0.00000000000E+00 0.  1.
         14    1    6    6    0    0  0.23105355318E+01 -0.46311417151E+02  0.25317189855E+02  0.52830351457E+02  0.00000000000E+00 0. -1.
         -5    1    3    3    0  503 -0.14913915252E+02  0.10572608911E+02  0.18314382139E+02  0.26300409131E+02  0.47000000000E+01 0.  1.
         11    1    4    4    0    0 -0.89705201112E+01  0.50592092526E+02 -0.79298209704E+02  0.94489343946E+02  0.00000000000E+00 0. -1.
        -12    1    4    4    0    0 -0.15091518005E+02  0.26633748956E+03 -0.15654974276E+03  0.30930766919E+03  0.00000000000E+00 0.  1.
</event>
<event>
12    1  0.8562501E-002  0.1770955E+03  0.7818608E-02  0.1170803E+00
         21   -1    0    0  501  502  0.00000000000E+00  0.00000000000E+00  0.11754665950E+03  0.11754665950E+03  0.00000000000E+00 0. -1.
         21   -1    0    0  502  503 -0.00000000000E+00 -0.00000000000E+00 -0.28493239454E+03  0.28493239454E+03  0.00000000000E+00 0. -1.
         -6    2    1    2    0  503  0.32299053332E+02 -0.29849720996E+02 -0.13563757175E+03  0.22256031373E+03  0.17088390120E+03 0.  0.
        -24    2    3    3    0    0 -0.31507017780E+02 -0.49754355735E+02 -0.44254058736E+02  0.10924462353E+03  0.80670799999E+02 0.  0.
          6    2    1    2  501    0 -0.32299053332E+02  0.29849720996E+02 -0.31748163287E+02  0.17991874031E+03  0.17154758101E+03 0.  0.
         24    2    5    5    0    0 -0.70230640231E+02  0.62442254778E+02 -0.27322766660E+01  0.12190934262E+03  0.77608275811E+02 0.  0.
          5    1    5    5  501    0  0.37931586899E+02 -0.32592533781E+02 -0.29015886621E+02  0.58009397681E+02  0.47000000000E+01 0. -1.
        -11    1    6    6    0    0 -0.21941503560E+02  0.67143089230E+02 -0.14210896087E+02  0.72052575092E+02  0.00000000000E+00 0.  1.
         12    1    6    6    0    0 -0.48289136671E+02 -0.47008344519E+01  0.11478619421E+02  0.49856767532E+02  0.00000000000E+00 0. -1.
         -5    1    3    3    0  503  0.63806071113E+02  0.19904634739E+02 -0.91383513010E+02  0.11331569020E+03  0.47000000000E+01 0.  1.
         13    1    4    4    0    0  0.11980284186E+02  0.15953176358E+02 -0.26063719271E+01  0.20120244027E+02  0.00000000000E+00 0. -1.
        -14    1    4    4    0    0 -0.43487301966E+02 -0.65707532093E+02 -0.41647686809E+02  0.89124379507E+02  0.00000000000E+00 0.  1.
</event>
<event>
12    1  0.8562501E-002  0.2937737E+03  0.7818608E-02  0.1088417E+00
         21   -1    0    0  501  502  0.00000000000E+00  0.00000000000E+00  0.71410944935E+03  0.71410944935E+03  0.00000000000E+00 0. -1.
         21   -1    0    0  502  503 -0.00000000000E+00 -0.00000000000E+00 -0.12444473024E+03  0.12444473024E+03  0.00000000000E+00 0.  1.
         -6    2    1    2    0  503  0.63167164494E+02  0.22939382043E+03  0.22301195602E+03  0.36883238710E+03  0.17231187342E+03 0.  0.
        -24    2    3    3    0    0 -0.18303466177E+02  0.12151107533E+03  0.16730446644E+03  0.22253965061E+03  0.80206940488E+02 0.  0.
          6    2    1    2  501    0 -0.63167164494E+02 -0.22939382043E+03  0.36665276309E+03  0.46972179249E+03  0.17202528342E+03 0.  0.
         24    2    5    5    0    0 -0.64629064758E+02 -0.24978533085E+03  0.32123162158E+03  0.41969059277E+03  0.79879981458E+02 0.  0.
          5    1    5    5  501    0  0.14619002636E+01  0.20391510419E+02  0.45421141506E+02  0.50031199718E+02  0.47000000000E+01 0. -1.
        -13    1    6    6    0    0 -0.68549774209E+02 -0.20334519357E+03  0.21538536711E+03  0.30403814836E+03  0.00000000000E+00 0.  1.
         14    1    6    6    0    0  0.39207094515E+01 -0.46440137280E+02  0.10584625447E+03  0.11565244441E+03  0.00000000000E+00 0. -1.
         -5    1    3    3    0  503  0.81470630671E+02  0.10788274510E+03  0.55707489578E+02  0.14629273648E+03  0.47000000000E+01 0.  1.
         13    1    4    4    0    0 -0.41261125273E+02  0.34128938552E+02  0.84195942340E+02  0.99780867966E+02  0.00000000000E+00 0. -1.
        -14    1    4    4    0    0  0.22957659097E+02  0.87382136777E+02  0.83108524102E+02  0.12275878265E+03  0.00000000000E+00 0.  1.
</event>
<event>
12    1  0.8562501E-002  0.2089210E+03  0.7818608E-02  0.1143588E+00
         21   -1    0    0  501  502  0.00000000000E+00  0.00000000000E+00  0.86886406641E+02  0.86886406641E+02  0.00000000000E+00 0. -1.
         21   -1    0    0  502  503 -0.00000000000E+00 -0.00000000000E+00 -0.71452116988E+03  0.71452116988E+03  0.00000000000E+00 0. -1.
         -6    2    1    2    0  503  0.83196042446E+02 -0.84106291555E+02 -0.54211637503E+03  0.58098034561E+03  0.17219915257E+03 0.  0.
        -24    2    3    3    0    0  0.76897737142E+02 -0.55626099943E+02 -0.53671816532E+03  0.55094668729E+03  0.80425980108E+02 0.  0.
          6    2    1    2  501    0 -0.83196042446E+02  0.84106291555E+02 -0.85518388202E+02  0.22042723091E+03  0.16516452297E+03 0.  0.
         24    2    5    5    0    0 -0.74184616472E+02  0.11988155617E+03 -0.86143233275E+02  0.18323105117E+03  0.79233936179E+02 0.  0.
          5    1    5    5  501    0 -0.90114259738E+01 -0.35775264613E+02  0.62484507243E+00  0.37196179744E+02  0.47000000000E+01 0. -1.
        -13    1    6    6    0    0 -0.41872676154E+02  0.51885591492E+02 -0.84882821557E+02  0.10793761628E+03  0.00000000000E+00 0.  1.
         14    1    6    6    0    0 -0.32311940317E+02  0.67995964676E+02 -0.12604117175E+01  0.75293434886E+02  0.00000000000E+00 0. -1.
         -5    1    3    3    0  503  0.62983053037E+01 -0.28480191611E+02 -0.53982097113E+01  0.30033658319E+02  0.47000000000E+01 0.  1.
         13    1    4    4    0    0 -0.11769943032E+02 -0.28323342256E+02 -0.16492563352E+03  0.16775341387E+03  0.00000000000E+00 0. -1.
        -14    1    4    4    0    0  0.88667680174E+02 -0.27302757687E+02 -0.37179253180E+03  0.38319327342E+03  0.00000000000E+00 0.  1.
</event>
<event>
12    1  0.8562501E-002  0.1713095E+03  0.7818608E-02  0.1176577E+00
         21   -1    0    0  503  502  0.00000000000E+00  0.00000000000E+00  0.63914809539E+02  0.63914809539E+02  0.00000000000E+00 0.  1.
         21   -1    0    0  501  503 -0.00000000000E+00 -0.00000000000E+00 -0.46972331924E+03  0.46972331924E+03  0.00000000000E+00 0.  1.
          6    2    1    2  501    0  0.53186413529E+01 -0.92228747583E+01 -0.16139943203E+03  0.23536508468E+03  0.17097835262E+03 0.  0.
         24    2    3    3    0    0  0.28158090687E+02 -0.45238875381E+02 -0.16652913105E+03  0.19215401482E+03  0.79698055222E+02 0.  0.
         -6    2    1    2    0  502 -0.53186413529E+01  0.92228747583E+01 -0.24440907767E+03  0.29827304409E+03  0.17063898212E+03 0.  0.
        -24    2    5    5    0    0 -0.59539198971E+02  0.21360294437E+02 -0.10739269364E+03  0.15034480028E+03  0.84078474839E+02 0.  0.
          5    1    3    3  501    0 -0.22839449335E+02  0.36016000622E+02  0.51296990209E+01  0.43211069864E+02  0.47000000000E+01 0. -1.
        -13    1    4    4    0    0  0.47835311927E+02 -0.42420089958E+02 -0.75286377344E+02  0.98771046936E+02  0.00000000000E+00 0.  1.
         14    1    4    4    0    0 -0.19677221240E+02 -0.28187854223E+01 -0.91242753705E+02  0.93382967883E+02  0.00000000000E+00 0. -1.
         -5    1    5    5    0  502  0.54220557618E+02 -0.12137419679E+02 -0.13701638403E+03  0.14792824382E+03  0.47000000000E+01 0.  1.
         11    1    6    6    0    0 -0.35838308778E+02  0.17874053285E+01  0.27551180505E+01  0.35988468561E+02  0.00000000000E+00 0. -1.
        -12    1    6    6    0    0 -0.23700890193E+02  0.19572889108E+02 -0.11014781169E+03  0.11435633172E+03  0.00000000000E+00 0.  1.
</event>
<event>
12    1  0.8562501E-002  0.2397570E+03  0.7818608E-02  0.1120162E+00
         21   -1    0    0  501  502  0.00000000000E+00  0.00000000000E+00  0.26866257324E+03  0.26866257324E+03  0.00000000000E+00 0.  1.
         21   -1    0    0  502  503 -0.00000000000E+00 -0.00000000000E+00 -0.52799497428E+03  0.52799497428E+03  0.00000000000E+00 0. -1.
         -6    2    1    2    0  503  0.12023290251E+03 -0.11605064450E+03 -0.43726466951E+03  0.49808875509E+03  0.17020080437E+03 0.  0.
        -24    2    3    3    0    0  0.32353040466E+02 -0.65559734874E+01 -0.24454648539E+03  0.25960533507E+03  0.80636508271E+02 0.  0.
          6    2    1    2  501    0 -0.12023290251E+03  0.11605064450E+03  0.17793226847E+03  0.29856879243E+03  0.17192942947E+03 0.  0.
         24    2    5    5    0    0 -0.10463330295E+03  0.12455837678E+03  0.19962638146E+03  0.27013547477E+03  0.81606159332E+02 0.  0.
          5    1    5    5  501    0 -0.15599599557E+02 -0.85077322799E+01 -0.21694112993E+02  0.28433317665E+02  0.47000000000E+01 0. -1.
        -11    1    6    6    0    0 -0.94749818948E+02  0.52502087076E+02  0.13268706437E+03  0.17128880404E+03  0.00000000000E+00 0.  1.
         12    1    6    6    0    0 -0.98834840016E+01  0.72056289700E+02  0.66939317093E+02  0.98846670729E+02  0.00000000000E+00 0. -1.
         -5    1    3    3    0  503  0.87879862040E+02 -0.10949467101E+03 -0.19271818413E+03  0.23848342002E+03  0.47000000000E+01 0.  1.
         11    1    4    4    0    0  0.52338340958E+02  0.17402381226E+02 -0.17221615307E+03  0.18083292893E+03  0.00000000000E+00 0. -1.
        -12    1    4    4    0    0 -0.19985300491E+02 -0.23958354714E+02 -0.72330332312E+02  0.78772406138E+02  0.00000000000E+00 0.  1.
</event>
<event>
12    1  0.8562501E-002  0.2560048E+03  0.7818608E-02  0.1109681E+00
         21   -1    0    0  503  502  0.00000000000E+00  0.00000000000E+00  0.73481271055E+03  0.73481271055E+03  0.00000000000E+00 0.  1.
         21   -1    0    0  501  503 -0.00000000000E+00 -0.00000000000E+00 -0.24445012921E+03  0.24445012921E+03  0.00000000000E+00 0. -1.
          6    2    1    2  501    0  0.11550036402E+03  0.14910014240E+03 -0.14522763683E+03  0.29432897058E+03  0.17311062899E+03 0.  0.
         24    2    3    3    0    0  0.11250706966E+03  0.14907472220E+03 -0.65587769104E+02  0.21449439794E+03  0.82613423670E+02 0.  0.
         -6    2    1    2    0  502 -0.11550036402E+03 -0.14910014240E+03  0.63559021817E+03  0.68493386918E+03  0.17201247964E+03 0.  0.
        -24    2    5    5    0    0 -0.11326353968E+03 -0.59794238758E+02  0.27791998827E+03  0.31624615421E+03  0.79800562422E+02 0.  0.
          5    1    3    3  501    0  0.29932943589E+01  0.25420205936E-01 -0.79639867724E+02  0.79834572639E+02  0.47000000000E+01 0. -1.
        -11    1    4    4    0    0  0.24092198288E+02  0.87934995367E+02 -0.54917379464E+01  0.91340881396E+02  0.00000000000E+00 0.  1.
         12    1    4    4    0    0  0.88414871372E+02  0.61139726831E+02 -0.60096031157E+02  0.12315351655E+03  0.00000000000E+00 0. -1.
         -5    1    5    5    0  502 -0.22368243416E+01 -0.89305903646E+02  0.35767022990E+03  0.36868771497E+03  0.47000000000E+01 0.  1.
         11    1    6    6    0    0 -0.38261346913E+01  0.12225593154E+02  0.54599763584E+01  0.13925364501E+02  0.00000000000E+00 0. -1.
        -12    1    6    6    0    0 -0.10943740499E+03 -0.72019831912E+02  0.27246001192E+03  0.30232078971E+03  0.00000000000E+00 0.  1.
</event>
<event>
12    1  0.8562501E-002  0.2390416E+03  0.7818608E-02  0.1120615E+00
         21   -1    0    0  503  502  0.00000000000E+00  0.00000000000E+00  0.89356614316E+02  0.89356614316E+02  0.00000000000E+00 0. -1.
         21   -1    0    0  501  503 -0.00000000000E+00 -0.00000000000E+00 -0.13932404788E+04  0.13932404788E+04  0.00000000000E+00 0.  1.
          6    2    1    2  501    0  0.36739255061E+02  0.16064544019E+03 -0.11975656794E+04  0.12209781816E+04  0.17166080845E+03 0.  0.
         24    2    3    3    0    0  0.47412161182E+01  0.87379591890E+02 -0.10098884991E+04  0.10169277638E+04  0.81299593123E+02 0.  0.
         -6    2    1    2    0  502 -0.36739255061E+02 -0.16064544019E+03 -0.10631818507E+03  0.26161891150E+03  0.17315937185E+03 0.  0.
        -24    2    5    5    0    0 -0.63000267471E+02 -0.33302222971E+02 -0.62404811077E+02  0.12430026688E+03  0.80486794842E+02 0.  0.
          5    1    3    3  501    0  0.31998038943E+02  0.73265848303E+02 -0.18767718027E+03  0.20405041783E+03  0.47000000000E+01 0. -1.
        -13    1    4    4    0    0  0.52437922792E+01  0.33558486663E+01 -0.50917291582E+03  0.50921097522E+03  0.00000000000E+00 0.  1.
         14    1    4    4    0    0 -0.50257616099E+00  0.84023743224E+02 -0.50071558331E+03  0.50771678856E+03  0.00000000000E+00 0. -1.
         -5    1    5    5    0  502  0.26261012410E+02 -0.12734321722E+03 -0.43913373992E+02  0.13731864462E+03  0.47000000000E+01 0.  1.
         13    1    6    6    0    0 -0.47357036888E+02 -0.46764971547E+02 -0.91444448026E+01  0.67180892948E+02  0.00000000000E+00 0. -1.
        -14    1    6    6    0    0 -0.15643230584E+02  0.13462748576E+02 -0.53260366275E+02  0.57119373929E+02  0.00000000000E+00 0.  1.
</event>
<event>
12    1  0.8562501E-002  0.2038385E+03  0.7818608E-02  0.1146604E+00
         21   -1    0    0  501  502  0.00000000000E+00  0.00000000000E+00  0.98360496499E+02  0.98360496499E+02  0.00000000000E+00 0. -1.
         21   -1    0    0  502  503 -0.00000000000E+00 -0.00000000000E+00 -0.86638144852E+03  0.86638144852E+03  0.00000000000E+00 0. -1.
         -6    2    1    2    0  503  0.91562874741E+02 -0.59973252772E+02 -0.72941676950E+03  0.75728008776E+03  0.17159183142E+03 0.  0.
        -24    2    3    3    0    0  0.86580764280E+02 -0.55528481781E+02 -0.29020180458E+03  0.31798923556E+03  0.79501103898E+02 0.  0.
          6    2    1    2  501    0 -0.91562874741E+02  0.59973252772E+02 -0.38604182527E+02  0.20746185726E+03  0.17195810022E+03 0.  0.
         24    2    5    5    0    0 -0.10329576682E+03  0.22394179791E+02 -0.75482753962E+02  0.15331422099E+03  0.81462196642E+02 0.  0.
          5    1    5    5  501    0  0.11732892079E+02  0.37579072981E+02  0.36878571435E+02  0.54147636270E+02  0.47000000000E+01 0. -1.
        -13    1    6    6    0    0 -0.84662759434E+02 -0.18326086371E+02 -0.62075962745E+02  0.10656947700E+03  0.00000000000E+00 0.  1.
         14    1    6    6    0    0 -0.18633007386E+02  0.40720266162E+02 -0.13406791217E+02  0.46744743997E+02  0.00000000000E+00 0. -1.
         -5    1    3    3    0  503  0.49821104607E+01 -0.44447709908E+01 -0.43921496492E+03  0.43929085219E+03  0.47000000000E+01 0.  1.
         13    1    4    4    0    0  0.63424759587E+02 -0.54935200005E+02 -0.28066490909E+03  0.29293918742E+03  0.00000000000E+00 0. -1.
        -14    1    4    4    0    0  0.23156004694E+02 -0.59328177576E+00 -0.95368954863E+01  0.25050048147E+02  0.00000000000E+00 0.  1.
</event>
<event>
12    1  0.8562501E-002  0.4576321E+03  0.7818608E-02  0.1025476E+00
         21   -1    0    0  501  502  0.00000000000E+00  0.00000000000E+00  0.55300679484E+03  0.55300679484E+03  0.00000000000E+00 0.  1.
         21   -1    0    0  502  503 -0.00000000000E+00 -0.00000000000E+00 -0.53399359096E+03  0.53399359096E+03  0.00000000000E+00 0. -1.
         -6    2    1    2    0  503  0.20738523353E+03 -0.37038968062E+03  0.30265674632E+03  0.54866042923E+03  0.17096786223E+03 0.  0.
        -24    2    3    3    0    0  0.79955536872E+02 -0.23470755731E+03  0.23329289268E+03  0.34996115805E+03  0.81035257966E+02 0.  0.
          6    2    1    2  501    0 -0.20738523353E+03  0.37038968062E+03 -0.28364354244E+03  0.53833995657E+03  0.17076035571E+03 0.  0.
         24    2    5    5    0    0 -0.16017105359E+03  0.15022629334E+03 -0.13642035732E+03  0.26927146692E+03  0.75325317064E+02 0.  0.
          5    1    5    5  501    0 -0.47214179940E+02  0.22016338727E+03 -0.14722318512E+03  0.26906848965E+03  0.47000000000E+01 0. -1.
        -11    1    6    6    0    0 -0.28766323768E+02 -0.37296943828E+01 -0.10284250939E+02  0.30776254169E+02  0.00000000000E+00 0.  1.
         12    1    6    6    0    0 -0.13140472982E+03  0.15395598772E+03 -0.12613610638E+03  0.23849521276E+03  0.00000000000E+00 0. -1.
         -5    1    3    3    0  503  0.12742969666E+03 -0.13568212331E+03  0.69363853637E+02  0.19869927118E+03  0.47000000000E+01 0.  1.
         13    1    4    4    0    0  0.22602679154E+02 -0.44705928510E+02  0.97635277670E+01  0.51037511923E+02  0.00000000000E+00 0. -1.
        -14    1    4    4    0    0  0.57352857718E+02 -0.19000162880E+03  0.22352936491E+03  0.29892364612E+03  0.00000000000E+00 0.  1.
</event>
<event>
12    1  0.8562501E-002  0.2147825E+03  0.7818608E-02  0.1137917E+00
         21   -1    0    0  501  502  0.00000000000E+00  0.00000000000E+00  0.25149148183E+02  0.25149148183E+02  0.00000000000E+00 0. -1.
         21   -1    0    0  502  503 -0.00000000000E+00 -0.00000000000E+00 -0.20152521839E+04  0.20152521839E+04  0.00000000000E+00 0. -1.
         -6    2    1    2    0  503  0.79679124096E+02 -0.10062526485E+03 -0.13029391014E+04  0.13204528667E+04  0.17167196749E+03 0.  0.
        -24    2    3    3    0    0 -0.22032603561E+02 -0.20737714735E+02 -0.50543551945E+03  0.51251639057E+03  0.79325266135E+02 0.  0.
          6    2    1    2  501    0 -0.79679124096E+02  0.10062526485E+03 -0.68716393433E+03  0.71994846541E+03  0.17221298868E+03 0.  0.
         24    2    5    5    0    0  0.20024177578E+02  0.80303637605E+01 -0.33022631998E+03  0.33792606475E+03  0.68404301038E+02 0.  0.
          5    1    5    5  501    0 -0.99703301674E+02  0.92594901093E+02 -0.35693761434E+03  0.38202240066E+03  0.47000000000E+01 0. -1.
        -11    1    6    6    0    0  0.37825011530E+02  0.17719576475E+02 -0.28883111134E+03  0.29183578562E+03  0.00000000000E+00 0.  1.
         12    1    6    6    0    0 -0.17800833952E+02 -0.96892127147E+01 -0.41395208638E+02  0.46090279134E+02  0.00000000000E+00 0. -1.
         -5    1    3    3    0  503  0.10171172766E+03 -0.79887550119E+02 -0.79750358197E+03  0.80793647613E+03  0.47000000000E+01 0.  1.
         11    1    4    4    0    0 -0.86716428556E+00 -0.18530201211E+02 -0.47509505789E+03  0.47545707941E+03  0.00000000000E+00 0. -1.
        -12    1    4    4    0    0 -0.21165439276E+02 -0.22075135234E+01 -0.30340461555E+02  0.37059311152E+02  0.00000000000E+00 0.  1.
</event>
<event>
12    1  0.8562501E-002  0.2114550E+03  0.7818608E-02  0.1141391E+00
         21   -1    0    0  503  502  0.00000000000E+00  0.00000000000E+00  0.25420765759E+03  0.25420765759E+03  0.00000000000E+00 0. -1.
         21   -1    0    0  501  503 -0.00000000000E+00 -0.00000000000E+00 -0.20593858364E+03  0.20593858364E+03  0.00000000000E+00 0. -1.
          6    2    1    2  501    0  0.71002942115E+02  0.92348982556E+02  0.11797575555E+03  0.24213938369E+03  0.17647506869E+03 0.  0.
         24    2    3    3    0    0  0.59194594215E+02  0.12204712828E+03  0.47301559011E+02  0.16443256934E+03  0.80007067611E+02 0.  0.
         -6    2    1    2    0  502 -0.71002942115E+02 -0.92348982556E+02 -0.69706681607E+02  0.21800685754E+03  0.17058199232E+03 0.  0.
        -24    2    5    5    0    0 -0.75261022889E+01 -0.82514922400E+02  0.97762855304E+01  0.11570509803E+03  0.80166946534E+02 0.  0.
          5    1    3    3  501    0  0.11808347900E+02 -0.29698145727E+02  0.70674196544E+02  0.77706814353E+02  0.47000000000E+01 0. -1.
        -13    1    4    4    0    0 -0.13047358154E+02  0.18794753805E+02 -0.11229850151E+02  0.25486974316E+02  0.00000000000E+00 0.  1.
         14    1    4    4    0    0  0.72241952369E+02  0.10325237448E+03  0.58531409162E+02  0.13894559502E+03  0.00000000000E+00 0. -1.
         -5    1    5    5    0  502 -0.63476839826E+02 -0.98340601563E+01 -0.79482967138E+02  0.10230175951E+03  0.47000000000E+01 0.  1.
         11    1    6    6    0    0  0.37242140445E+01 -0.39646430427E+02 -0.34771653226E+02  0.52865651268E+02  0.00000000000E+00 0. -1.
        -12    1    6    6    0    0 -0.11250316333E+02 -0.42868491972E+02  0.44547938757E+02  0.62839446760E+02  0.00000000000E+00 0.  1.
</event>
<event>
12    1  0.8562501E-002  0.2145646E+03  0.7818608E-02  0.1138416E+00
         21   -1    0    0  501  502  0.00000000000E+00  0.00000000000E+00  0.65477345698E+02  0.65477345698E+02  0.00000000000E+00 0.  1.
         21   -1    0    0  502  503 -0.00000000000E+00 -0.00000000000E+00 -0.71909631897E+03  0.71909631897E+03  0.00000000000E+00 0.  1.
         -6    2    1    2    0  503  0.12461591808E+03  0.88654087549E+01 -0.25825950361E+03  0.33576173313E+03  0.17444267747E+03 0.  0.
        -24    2    3    3    0    0  0.82996782272E+02 -0.61351714617E+02 -0.18268861994E+03  0.22442600061E+03  0.79620343745E+02 0.  0.
          6    2    1    2  501    0 -0.12461591808E+03 -0.88654087549E+01 -0.39535946966E+03  0.44881193153E+03  0.17180022445E+03 0.  0.
         24    2    5    5    0    0 -0.87261655634E+02 -0.72048976616E+02 -0.26939807610E+03  0.30294943862E+03  0.79983669443E+02 0.  0.
          5    1    5    5  501    0 -0.37354262443E+02  0.63183567861E+02 -0.12596139356E+03  0.14586249291E+03  0.47000000000E+01 0. -1.
        -11    1    6    6    0    0  0.10624231846E+02 -0.29092706509E+02 -0.74053328426E+02  0.80269267626E+02  0.00000000000E+00 0.  1.
         12    1    6    6    0    0 -0.97885887480E+02 -0.42956270107E+02 -0.19534474768E+03  0.22268017100E+03  0.00000000000E+00 0. -1.
         -5    1    3    3    0  503  0.41619135805E+02  0.70217123372E+02 -0.75570883666E+02  0.11133573253E+03  0.47000000000E+01 0.  1.
         11    1    4    4    0    0  0.20280102676E+02 -0.30196575444E+02 -0.13471853827E+03  0.13954282600E+03  0.00000000000E+00 0. -1.
        -12    1    4    4    0    0  0.62716679596E+02 -0.31155139173E+02 -0.47970081670E+02  0.84883174610E+02  0.00000000000E+00 0.  1.
</event>
<event>
12    1  0.8562501E-002  0.2617035E+03  0.7818608E-02  0.1106328E+00
         21   -1    0    0  501  502  0.00000000000E+00  0.00000000000E+00  0.71249791040E+02  0.71249791040E+02  0.00000000000E+00 0.  1.
         21   -1    0    0  502  503 -0.00000000000E+00 -0.00000000000E+00 -0.11868536329E+04  0.11868536329E+04  0.00000000000E+00 0. -1.
         -6    2    1    2    0  503 -0.13488929036E+03  0.14189534948E+03 -0.83626678776E+03  0.87625957389E+03  0.17366430164E+03 0.  0.
        -24    2    3    3    0    0 -0.12991567444E+03  0.37720430193E+02 -0.50988192388E+03  0.53358433399E+03  0.80198203659E+02 0.  0.
          6    2    1    2  501    0  0.13488929036E+03 -0.14189534948E+03 -0.27933705413E+03  0.38184385008E+03  0.17159873303E+03 0.  0.
         24    2    5    5    0    0  0.14087099283E+03 -0.58416229640E+02 -0.22186024909E+03  0.28020617335E+03  0.77694510415E+02 0.  0.
          5    1    5    5  501    0 -0.59817024732E+01 -0.83479119841E+02 -0.57476805031E+02  0.10163767673E+03  0.47000000000E+01 0. -1.
        -13    1    6    6    0    0  0.44105089994E+02 -0.52757122268E+02 -0.58637035081E+02  0.90370762952E+02  0.00000000000E+00 0.  1.
         14    1    6    6    0    0  0.96765902838E+02 -0.56591073714E+01 -0.16322321401E+03  0.18983541040E+03  0.00000000000E+00 0. -1.
         -5    1    3    3    0  503 -0.49736159233E+01  0.10417491929E+03 -0.32638486388E+03  0.34267523990E+03  0.47000000000E+01 0.  1.
         11    1    4    4    0    0 -0.22445827290E+01  0.18839612754E+02 -0.15128346925E+03  0.15246854504E+03  0.00000000000E+00 0. -1.
        -12    1    4    4    0    0 -0.12767109171E+03  0.18880817439E+02 -0.35859845463E+03  0.38111578895E+03  0.00000000000E+00 0.  1.
</event>
<event>
12    1  0.8562501E-002  0.2296138E+03  0.7818608E-02  0.1127507E+00
         21   -1    0    0  503  502  0.00000000000E+00  0.00000000000E+00  0.38991318680E+02  0.38991318680E+02  0.00000000000E+00 0. -1.
         21   -1    0    0  501  503 -0.00000000000E+00 -0.00000000000E+00 -0.21751087034E+04  0.21751087034E+04  0.00000000000E+00 0. -1.
          6    2    1    2  501    0  0.76445258024E+02 -0.12466937211E+03 -0.17618871181E+04  0.17767860603E+04  0.17702021686E+03 0.  0.
         24    2    3    3    0    0 -0.20440541506E+02 -0.52425935129E+02 -0.10251344620E+04  0.10301720110E+04  0.84778609167E+02 0.  0.
         -6    2    1    2    0  502 -0.76445258024E+02  0.12466937211E+03 -0.37423026660E+03  0.43731396181E+03  0.17265248024E+03 0.  0.
        -24    2    5    5    0    0 -0.69089566270E+02  0.88725260469E+02 -0.37576579478E+03  0.40029324856E+03  0.79932548440E+02 0.  0.
          5    1    3    3  501    0  0.96885799530E+02 -0.72243436979E+02 -0.73675265614E+03  0.74661404933E+03  0.47000000000E+01 0. -1.
        -11    1    4    4    0    0  0.88811031851E+01  0.94049583519E+01 -0.54826855286E+03  0.54842112769E+03  0.00000000000E+00 0.  1.
         12    1    4    4    0    0 -0.29321644691E+02 -0.61830893481E+02 -0.47686590914E+03  0.48175088327E+03  0.00000000000E+00 0. -1.
         -5    1    5    5    0  502 -0.73556917544E+01  0.35944111640E+02  0.15355281790E+01  0.37020713250E+02  0.47000000000E+01 0.  1.
         13    1    6    6    0    0 -0.97875518335E+01  0.71669791109E+02 -0.24920906161E+03  0.25949472348E+03  0.00000000000E+00 0. -1.
        -14    1    6    6    0    0 -0.59302014436E+02  0.17055469360E+02 -0.12655673318E+03  0.14079852507E+03  0.00000000000E+00 0.  1.
</event>
<event>
12    1  0.8562501E-002  0.1786746E+03  0.7818608E-02  0.1169441E+00
         21   -1    0    0  503  502  0.00000000000E+00  0.00000000000E+00  0.48125420339E+03  0.48125420339E+03  0.00000000000E+00 0. -1.
         21   -1    0    0  501  503 -0.00000000000E+00 -0.00000000000E+00 -0.11440705466E+03  0.11440705466E+03  0.00000000000E+00 0. -1.
          6    2    1    2  501    0 -0.10930485423E+02 -0.45151319900E+02  0.37711331055E+03  0.41669201631E+03  0.17105458269E+03 0.  0.
         24    2    3    3    0    0 -0.56000029259E+02 -0.57609566978E+02  0.33310154409E+03  0.35230570341E+03  0.81901187387E+02 0.  0.
         -6    2    1    2    0  502  0.10930485423E+02  0.45151319900E+02 -0.10266161825E+02  0.17896924173E+03  0.17252964443E+03 0.  0.
        -24    2    5    5    0    0 -0.27505764738E+02  0.82157413730E+02  0.16510772472E+02  0.11908693619E+03  0.80016779727E+02 0.  0.
          5    1    3    3  501    0  0.45069543836E+02  0.12458247079E+02  0.44011766465E+02  0.64386312903E+02  0.47000000000E+01 0. -1.
        -13    1    4    4    0    0 -0.14896724199E+02  0.14177619384E+02  0.20861239842E+02  0.29293490933E+02  0.00000000000E+00 0.  1.
         14    1    4    4    0    0 -0.41103305060E+02 -0.71787186362E+02  0.31224030425E+03  0.32301221248E+03  0.00000000000E+00 0. -1.
         -5    1    5    5    0  502  0.38436250162E+02 -0.37006093830E+02 -0.26776934297E+02  0.59882305545E+02  0.47000000000E+01 0.  1.
         11    1    6    6    0    0 -0.25887240985E+02  0.77038830133E+02 -0.18760753716E+02  0.83409210967E+02  0.00000000000E+00 0. -1.
        -12    1    6    6    0    0 -0.16185237536E+01  0.51185835970E+01  0.35271526188E+02  0.35677725219E+02  0.00000000000E+00 0.  1.
</event>
<event>
12    1  0.8562501E-002  0.1885085E+03  0.7818608E-02  0.1160629E+00
         21   -1    0    0  503  502  0.00000000000E+00  0.00000000000E+00  0.58911833169E+02  0.58911833169E+02  0.00000000000E+00 0.  1.
         21   -1    0    0  501  503 -0.00000000000E+00 -0.00000000000E+00 -0.74854114496E+03  0.74854114496E+03  0.00000000000E+00 0. -1.
          6    2    1    2  501    0 -0.68785748872E+00 -0.70720238272E+02 -0.52689692723E+03  0.55842029839E+03  0.17091235322E+03 0.  0.
         24    2    3    3    0    0 -0.53714163463E+02 -0.80871117969E+02 -0.41879553369E+03  0.43749540116E+03  0.81161431263E+02 0.  0.
         -6    2    1    2    0  502  0.68785748872E+00  0.70720238272E+02 -0.16273238457E+03  0.24903267974E+03  0.17473872308E+03 0.  0.
        -24    2    5    5    0    0 -0.60117246757E+02  0.31810111342E+02 -0.55066913141E+02  0.11932068177E+03  0.81111612206E+02 0.  0.
          5    1    3    3  501    0  0.53026305975E+02  0.10150879697E+02 -0.10810139354E+03  0.12092489723E+03  0.47000000000E+01 0. -1.
        -11    1    4    4    0    0  0.11477615992E+00  0.54286557198E+01  0.10282781266E+01  0.55263760636E+01  0.00000000000E+00 0.  1.
         12    1    4    4    0    0 -0.53828939623E+02 -0.86299773688E+02 -0.41982381181E+03  0.43196902510E+03  0.00000000000E+00 0. -1.
         -5    1    5    5    0  502  0.60805104246E+02  0.38910126930E+02 -0.10766547142E+03  0.12971199797E+03  0.47000000000E+01 0.  1.
         11    1    6    6    0    0 -0.23103889774E+02 -0.26403613913E+02 -0.29199944378E+02  0.45646218924E+02  0.00000000000E+00 0. -1.
        -12    1    6    6    0    0 -0.37013356983E+02  0.58213725255E+02 -0.25866968763E+02  0.73674462849E+02  0.00000000000E+00 0.  1.
</event>
<event>
12    1  0.8562501E-002  0.2408369E+03  0.7818608E-02  0.1120528E+00
         21   -1    0    0  503  502  0.00000000000E+00  0.00000000000E+00  0.53025756048E+02  0.53025756048E+02  0.00000000000E+00 0. -1.
         21   -1    0    0  501  503 -0.00000000000E+00 -0.00000000000E+00 -0.11726673832E+04  0.11726673832E+04  0.00000000000E+00 0.  1.
          6    2    1    2  501    0  0.67966551347E+02  0.15414473714E+03 -0.75846004688E+03  0.79577888603E+03  0.17211141924E+03 0.  0.
         24    2    3    3    0    0 -0.19307124678E+02  0.29602563943E+02 -0.24338877808E+03  0.25870538139E+03  0.80257711218E+02 0.  0.
         -6    2    1    2    0  502 -0.67966551347E+02 -0.15414473714E+03 -0.36118158026E+03  0.42991425321E+03  0.16122679401E+03 0.  0.
        -24    2    5    5    0    0  0.16708099881E+02 -0.51913662414E+02 -0.12915629560E+03  0.16255903647E+03  0.82279418430E+02 0.  0.
          5    1    3    3  501    0  0.87273676025E+02  0.12454217320E+03 -0.51507126880E+03  0.53707350463E+03  0.47000000000E+01 0. -1.
        -11    1    4    4    0    0  0.94276129980E+01  0.39520684118E+02 -0.20854222859E+03  0.21246323321E+03  0.00000000000E+00 0.  1.
         12    1    4    4    0    0 -0.28734737676E+02 -0.99181201756E+01 -0.34846549489E+02  0.46242148181E+02  0.00000000000E+00 0. -1.
         -5    1    5    5    0  502 -0.84674651228E+02 -0.10223107473E+03 -0.23202528466E+03  0.26735521674E+03  0.47000000000E+01 0.  1.
         11    1    6    6    0    0  0.77764290922E+01 -0.54429336033E+02 -0.29355760906E+02  0.62328052823E+02  0.00000000000E+00 0. -1.
        -12    1    6    6    0    0  0.89316707891E+01  0.25156736188E+01 -0.99800534697E+02  0.10023098365E+03  0.00000000000E+00 0.  1.
</event>
<event>
12    1  0.8562501E-002  0.1997402E+03  0.7818608E-02  0.1151626E+00
         21   -1    0    0  501  502  0.00000000000E+00  0.00000000000E+00  0.20904599421E+03  0.20904599421E+03  0.00000000000E+00 0. -1.
         21   -1    0    0  502  503 -0.00000000000E+00 -0.00000000000E+00 -0.10718597699E+04  0.10718597699E+04  0.00000000000E+00 0.  1.
         -6    2    1    2    0  503 -0.91705146877E+02  0.99469522555E+01 -0.10129772852E+04  0.10310152989E+04  0.16840662195E+03 0.  0.
        -24    2    3    3    0    0 -0.58088584096E+02 -0.23561132474E+02 -0.92542396895E+03  0.93131305103E+03  0.83696273161E+02 0.  0.
          6    2    1    2  501    0  0.91705146877E+02 -0.99469522555E+01  0.15016350951E+03  0.24989046526E+03  0.17716486451E+03 0.  0.
         24    2    5    5    0    0  0.43976359868E+02 -0.37386464310E+02  0.16510918511E+03  0.19265038184E+03  0.80755548883E+02 0.  0.
          5    1    5    5  501    0  0.47728787009E+02  0.27439512054E+02 -0.14945675596E+02  0.57240083422E+02  0.47000000000E+01 0. -1.
        -11    1    6    6    0    0 -0.43722145953E+01  0.16297848239E+02  0.60040267619E+01  0.17910456584E+02  0.00000000000E+00 0.  1.
         12    1    6    6    0    0  0.48348574464E+02 -0.53684312548E+02  0.15910515834E+03  0.17473992525E+03  0.00000000000E+00 0. -1.
         -5    1    3    3    0  503 -0.33616562781E+02  0.33508084730E+02 -0.87553316263E+02  0.99702247839E+02  0.47000000000E+01 0.  1.
         13    1    4    4    0    0  0.20837167934E+02 -0.11437566580E+01 -0.12941255734E+03  0.13108434592E+03  0.00000000000E+00 0. -1.
        -14    1    4    4    0    0 -0.78925752030E+02 -0.22417375816E+02 -0.79601141161E+03  0.80022870511E+03  0.00000000000E+00 0.  1.
</event>
<event>
12    1  0.8562501E-002  0.2037131E+03  0.7818608E-02  0.1148084E+00
         21   -1    0    0  503  502  0.00000000000E+00  0.00000000000E+00  0.27249976372E+03  0.27249976372E+03  0.00000000000E+00 0.  1.
         21   -1    0    0  501  503 -0.00000000000E+00 -0.00000000000E+00 -0.14851472297E+03  0.14851472297E+03  0.00000000000E+00 0.  1.
          6    2    1    2  501    0  0.93381539556E+02 -0.11384375902E+02  0.82850403243E+02  0.21991638464E+03  0.18069120336E+03 0.  0.
         24    2    3    3    0    0  0.12012021974E+03 -0.32726932469E+02  0.89921264516E+02  0.18466657871E+03  0.10254751183E+03 0.  0.
         -6    2    1    2    0  502 -0.93381539556E+02  0.11384375902E+02  0.41134637505E+02  0.20109810205E+03  0.17291232547E+03 0.  0.
        -24    2    5    5    0    0 -0.31105550491E+02  0.37497922841E+02 -0.33274033584E+02  0.10050507803E+03  0.81366208653E+02 0.  0.
          5    1    3    3  501    0 -0.26738680184E+02  0.21342556567E+02 -0.70708612737E+01  0.35249805928E+02  0.47000000000E+01 0. -1.
        -11    1    4    4    0    0  0.13345397192E+03 -0.94929488003E+01  0.81154045961E+02  0.15648021560E+03  0.00000000000E+00 0.  1.
         12    1    4    4    0    0 -0.13333752182E+02 -0.23233983669E+02  0.87672185547E+01  0.28186363113E+02  0.00000000000E+00 0. -1.
         -5    1    5    5    0  502 -0.62275989066E+02 -0.26113546939E+02  0.74408671089E+02  0.10059302402E+03  0.47000000000E+01 0.  1.
         13    1    6    6    0    0  0.29122886711E+01  0.18870295784E+02  0.24412723165E+02  0.30992749807E+02  0.00000000000E+00 0. -1.
        -14    1    6    6    0    0 -0.34017839162E+02  0.18627627057E+02 -0.57686756749E+02  0.69512328225E+02  0.00000000000E+00 0.  1.
</event>
<event>
12    1  0.8562501E-002  0.1925573E+03  0.7818608E-02  0.1156278E+00
         21   -1    0    0  503  502  0.00000000000E+00  0.00000000000E+00  0.41424782055E+03  0.41424782055E+03  0.00000000000E+00 0.  1.
         21   -1    0    0  501  503 -0.00000000000E+00 -0.00000000000E+00 -0.98449214756E+02  0.98449214756E+02  0.00000000000E+00 0.  1.
          6    2    1    2  501    0 -0.19770390220E+02 -0.84173670934E+02  0.79542310453E+02  0.20790962916E+03  0.17153238626E+03 0.  0.
         24    2    3    3    0    0 -0.73800099818E+02 -0.27753899318E+02  0.31854947581E+02  0.11626589110E+03  0.79286102734E+02 0.  0.
         -6    2    1    2    0  502  0.19770390220E+02  0.84173670934E+02  0.23625629534E+03  0.30478740615E+03  0.17205304603E+03 0.  0.
        -24    2    5    5    0    0  0.42013370707E+02  0.97328450343E+02  0.10121154794E+03  0.16721207331E+03  0.80486952123E+02 0.  0.
          5    1    3    3  501    0  0.54029709599E+02 -0.56419771616E+02  0.47687362872E+02  0.91643738064E+02  0.47000000000E+01 0. -1.
        -11    1    4    4    0    0 -0.79466234265E+02 -0.25995302033E+02  0.49832946139E+02  0.97334272674E+02  0.00000000000E+00 0.  1.
         12    1    4    4    0    0  0.56661344462E+01 -0.17585972853E+01 -0.17977998558E+02  0.18931618424E+02  0.00000000000E+00 0. -1.
         -5    1    5    5    0  502 -0.22242980488E+02 -0.13154779408E+02  0.13504474740E+03  0.13757533283E+03  0.47000000000E+01 0.  1.
         11    1    6    6    0    0 -0.19759458944E+02  0.14916411051E+02  0.30705118652E+01  0.24947215867E+02  0.00000000000E+00 0. -1.
        -12    1    6    6    0    0  0.61772829651E+02  0.82412039291E+02  0.98141036072E+02  0.14226485745E+03  0.00000000000E+00 0.  1.
</event>
<event>
12    1  0.8562501E-002  0.2408865E+03  0.7818608E-02  0.1119499E+00
         21   -1    0    0  503  502  0.00000000000E+00  0.00000000000E+00  0.29466363993E+03  0.29466363993E+03  0.00000000000E+00 0. -1.
         21   -1    0    0  501  503 -0.00000000000E+00 -0.00000000000E+00 -0.22983914549E+03  0.22983914549E+03  0.00000000000E+00 0. -1.
          6    2    1    2  501    0  0.59596702298E+02  0.15858598148E+03  0.13371284961E+03  0.27395952500E+03  0.16874067305E+03 0.  0.
         24    2    3    3    0    0  0.44037200005E+02  0.31559871673E+02  0.10540457269E+02  0.96276495649E+02  0.78884484474E+02 0.  0.
         -6    2    1    2    0  502 -0.59596702298E+02 -0.15858598148E+03 -0.68888355170E+02  0.25054326041E+03  0.17124555297E+03 0.  0.
        -24    2    5    5    0    0  0.27652565367E+02 -0.11951096526E+03 -0.45091190485E+02  0.15191422489E+03  0.77441468709E+02 0.  0.
          5    1    3    3  501    0  0.15559502293E+02  0.12702610981E+03  0.12317239234E+03  0.17768302935E+03  0.47000000000E+01 0. -1.
        -11    1    4    4    0    0 -0.14641145238E+02  0.25674314239E+02  0.21167620954E+02  0.36353840545E+02  0.00000000000E+00 0.  1.
         12    1    4    4    0    0  0.58678345242E+02  0.58855574342E+01 -0.10627163685E+02  0.59922655104E+02  0.00000000000E+00 0. -1.
         -5    1    5    5    0  502 -0.87249267665E+02 -0.39075016218E+02 -0.23797164685E+02  0.98629035519E+02  0.47000000000E+01 0.  1.
         13    1    6    6    0    0  0.74773867378E+01 -0.86298410311E+02  0.70236217497E+01  0.86906030844E+02  0.00000000000E+00 0. -1.
        -14    1    6    6    0    0  0.20175178629E+02 -0.33212554953E+02 -0.52114812234E+02  0.65008194048E+02  0.00000000000E+00 0.  1.
</event>
<event>
12    1  0.8562501E-002  0.3098700E+03  0.7818608E-02  0.1080460E+00
         21   -1    0    0  503  502  0.00000000000E+00  0.00000000000E+00  0.35682553731E+03  0.35682553731E+03  0.00000000000E+00 0. -1.
         21   -1    0    0  501  503 -0.00000000000E+00 -0.00000000000E+00 -0.86706888533E+03  0.86706888533E+03  0.00000000000E+00 0.  1.
          6    2    1    2  501    0 -0.21129872226E+03  0.14809390590E+03 -0.76352927293E+03  0.82401236745E+03  0.17158227210E+03 0.  0.
         24    2    3    3    0    0 -0.18092782918E+03  0.56397349087E+02 -0.59269988172E+03  0.62770795951E+03  0.82514194430E+02 0.  0.
         -6    2    1    2    0  502  0.21129872226E+03 -0.14809390590E+03  0.25328592490E+03  0.39988205519E+03  0.17080088792E+03 0.  0.
        -24    2    5    5    0    0  0.15798000188E+03 -0.14044142429E+03  0.26060626241E+03  0.34531902962E+03  0.81536087463E+02 0.  0.
          5    1    3    3  501    0 -0.30370893081E+02  0.91696556808E+02 -0.17082939121E+03  0.19630440795E+03  0.47000000000E+01 0. -1.
        -11    1    4    4    0    0 -0.44716383648E+01  0.29990608866E+01 -0.12307406787E+03  0.12319178584E+03  0.00000000000E+00 0.  1.
         12    1    4    4    0    0 -0.17645619082E+03  0.53398288201E+02 -0.46962581384E+03  0.50451617366E+03  0.00000000000E+00 0. -1.
         -5    1    5    5    0  502  0.53318720379E+02 -0.76524816017E+01 -0.73203375088E+01  0.54563025564E+02  0.47000000000E+01 0.  1.
         13    1    6    6    0    0  0.33332719143E+02 -0.79920214645E+02  0.81915360435E+02  0.11919914911E+03  0.00000000000E+00 0. -1.
        -14    1    6    6    0    0  0.12464728274E+03 -0.60521209648E+02  0.17869090198E+03  0.22611988051E+03  0.00000000000E+00 0.  1.
</event>
<event>
12    1  0.8562501E-002  0.2097855E+03  0.7818608E-02  0.1141863E+00
         21   -1    0    0  503  502  0.00000000000E+00  0.00000000000E+00  0.19082196343E+03  0.19082196343E+03  0.00000000000E+00 0. -1.
         21   -1    0    0  501  503 -0.00000000000E+00 -0.00000000000E+00 -0.41833415431E+03  0.41833415431E+03  0.00000000000E+00 0. -1.
          6    2    1    2  501    0  0.10559853203E+03  0.57622189534E+02 -0.31806113163E+03  0.38066310200E+03  0.17108520413E+03 0.  0.
         24    2    3    3    0    0  0.11680052348E+03 -0.72077607638E+01 -0.22195453826E+03  0.26409992446E+03  0.82405333238E+02 0.  0.
         -6    2    1    2    0  502 -0.10559853203E+03 -0.57622189534E+02  0.90548940759E+02  0.22849301575E+03  0.17186791695E+03 0.  0.
        -24    2    5    5    0    0 -0.81052219382E+02  0.35219894751E+01 -0.48704857238E+01  0.11244091951E+03  0.77700528129E+02 0.  0.
          5    1    3    3  501    0 -0.11201991443E+02  0.64829950298E+02 -0.96106593373E+02  0.11656317754E+03  0.47000000000E+01 0. -1.
        -11    1    4    4    0    0  0.89470064986E+01 -0.11476207523E+02  0.27557099296E+01  0.14810341036E+02  0.00000000000E+00 0.  1.
         12    1    4    4    0    0  0.10785351698E+03  0.42684467591E+01 -0.22471024819E+03  0.24928958342E+03  0.00000000000E+00 0. -1.
         -5    1    5    5    0  502 -0.24546312651E+02 -0.61144179009E+02  0.95419426483E+02  0.11605209624E+03  0.47000000000E+01 0.  1.
         11    1    6    6    0    0 -0.65842028107E+02  0.44205317387E+01  0.31414883437E+02  0.73086309713E+02  0.00000000000E+00 0. -1.
        -12    1    6    6    0    0 -0.15210191275E+02 -0.89854226361E+00 -0.36285369161E+02  0.39354609793E+02  0.00000000000E+00 0.  1.
</event>
<event>
12    1  0.8562501E-002  0.2025277E+03  0.7818608E-02  0.1147757E+00
         21   -1    0    0  501  502  0.00000000000E+00  0.00000000000E+00  0.64588648525E+03  0.64588648525E+03  0.00000000000E+00 0. -1.
         21   -1    0    0  502  503 -0.00000000000E+00 -0.00000000000E+00 -0.70055161259E+02  0.70055161259E+02  0.00000000000E+00 0.  1.
         -6    2    1    2    0  503 -0.33612734896E+02 -0.10094396332E+03  0.17720564189E+03  0.26910836180E+03  0.17233099313E+03 0.  0.
        -24    2    3    3    0    0 -0.27672811045E+01 -0.33950891518E+02  0.17399968515E+03  0.19513619238E+03  0.81497989345E+02 0.  0.
          6    2    1    2  501    0  0.33612734896E+02  0.10094396332E+03  0.39862568209E+03  0.44683328471E+03  0.17157520281E+03 0.  0.
         24    2    5    5    0    0  0.52967250690E+02  0.12408553957E+02  0.29312465834E+03  0.30767268681E+03  0.76032328827E+02 0.  0.
          5    1    5    5  501    0 -0.19354515794E+02  0.88535409364E+02  0.10550102375E+03  0.13916059789E+03  0.47000000000E+01 0. -1.
        -11    1    6    6    0    0  0.31724435331E+02  0.28030083859E+02  0.62151661631E+02  0.75199431126E+02  0.00000000000E+00 0.  1.
         12    1    6    6    0    0  0.21242815360E+02 -0.15621529902E+02  0.23097299671E+03  0.23247325569E+03  0.00000000000E+00 0. -1.
         -5    1    3    3    0  503 -0.30845453792E+02 -0.66993071803E+02  0.32059567476E+01  0.73972169415E+02  0.47000000000E+01 0.  1.
         11    1    4    4    0    0 -0.24542225342E+02 -0.14929632147E+02  0.16081215792E+03  0.16335778181E+03  0.00000000000E+00 0. -1.
        -12    1    4    4    0    0  0.21774944237E+02 -0.19021259370E+02  0.13187527224E+02  0.31778410578E+02  0.00000000000E+00 0.  1.
</event>
<event>
12    1  0.8562501E-002  0.1902075E+03  0.7818608E-02  0.1158410E+00
         21   -1    0    0  503  502  0.00000000000E+00  0.00000000000E+00  0.34032513337E+03  0.34032513337E+03  0.00000000000E+00 0. -1.
         21   -1    0    0  501  503 -0.00000000000E+00 -0.00000000000E+00 -0.36836422223E+03  0.36836422223E+03  0.00000000000E+00 0. -1.
          6    2    1    2  501    0 -0.32242842184E+02  0.73197661895E+02 -0.31308901294E+03  0.36633814513E+03  0.17257290626E+03 0.  0.
         24    2    3    3    0    0 -0.45303507142E+02  0.88681723684E+02 -0.13133792444E+03  0.18340131092E+03  0.80433417048E+02 0.  0.
         -6    2    1    2    0  502  0.32242842184E+02 -0.73197661895E+02  0.28504992408E+03  0.34235121046E+03  0.17191100462E+03 0.  0.
        -24    2    5    5    0    0  0.42964785594E+02 -0.95607132398E+01  0.61411036479E+02  0.10953999219E+03  0.79311502632E+02 0.  0.
          5    1    3    3  501    0  0.13060664958E+02 -0.15484061788E+02 -0.18175108850E+03  0.18293683421E+03  0.47000000000E+01 0. -1.
        -11    1    4    4    0    0  0.39906422663E+01  0.75541440474E+02 -0.65151476368E+02  0.99835611520E+02  0.00000000000E+00 0.  1.
         12    1    4    4    0    0 -0.49294149408E+02  0.13140283209E+02 -0.66186448071E+02  0.83565699404E+02  0.00000000000E+00 0. -1.
         -5    1    5    5    0  502 -0.10721943409E+02 -0.63636948655E+02  0.22363888760E+03  0.23281121827E+03  0.47000000000E+01 0.  1.
         11    1    6    6    0    0 -0.13482637188E+02  0.36920780169E+01  0.48044625018E+02  0.50036975715E+02  0.00000000000E+00 0. -1.
        -12    1    6    6    0    0  0.56447422781E+02 -0.13252791257E+02  0.13366411461E+02  0.59503016479E+02  0.00000000000E+00 0.  1.
</event>
<event>
12    1  0.8562501E-002  0.1879982E+03  0.7818608E-02  0.1161700E+00
         21   -1    0    0  503  502  0.00000000000E+00  0.00000000000E+00  0.11194570224E+03  0.11194570224E+03  0.00000000000E+00 0. -1.
         21   -1    0    0  501  503 -0.00000000000E+00 -0.00000000000E+00 -0.55749818960E+03  0.55749818960E+03  0.00000000000E+00 0. -1.
          6    2    1    2  501    0 -0.15479040090E+02 -0.57227437399E+02 -0.44576392053E+03  0.48144558190E+03  0.17195870207E+03 0.  0.
         24    2    3    3    0    0 -0.67163947920E+00 -0.93002744956E+02 -0.41282009041E+03  0.43039151559E+03  0.78526861541E+02 0.  0.
         -6    2    1    2    0  502  0.15479040090E+02  0.57227437399E+02  0.21143317253E+00  0.18799830994E+03  0.17840610854E+03 0.  0.
        -24    2    5    5    0    0 -0.54865931978E+02  0.31776096516E+02 -0.31378358599E+02  0.10665833950E+03  0.79821107447E+02 0.  0.
          5    1    3    3  501    0 -0.14807400610E+02  0.35775307556E+02 -0.32943830121E+02  0.51054066309E+02  0.47000000000E+01 0. -1.
        -11    1    4    4    0    0 -0.27576739752E+02 -0.30468277917E+02 -0.25817809350E+03  0.26142823202E+03  0.00000000000E+00 0.  1.
         12    1    4    4    0    0  0.26905100273E+02 -0.62534467038E+02 -0.15464199691E+03  0.16896328357E+03  0.00000000000E+00 0. -1.
         -5    1    5    5    0  502  0.70344972067E+02  0.25451340884E+02  0.31589791771E+02  0.81339970446E+02  0.47000000000E+01 0.  1.
         11    1    6    6    0    0 -0.68005968753E+01  0.49851021497E+02 -0.19436581371E+02  0.53936566052E+02  0.00000000000E+00 0. -1.
        -12    1    6    6    0    0 -0.48065335103E+02 -0.18074924981E+02 -0.11941777228E+02  0.52721773443E+02  0.00000000000E+00 0.  1.
</event>
<event>
12    1  0.8562501E-002  0.1855000E+03  0.7818608E-02  0.1163306E+00
         21   -1    0    0  503  502  0.00000000000E+00  0.00000000000E+00  0.72488469346E+02  0.72488469346E+02  0.00000000000E+00 0.  1.
         21   -1    0    0  501  503 -0.00000000000E+00 -0.00000000000E+00 -0.46970587771E+03  0.46970587771E+03  0.00000000000E+00 0.  1.
          6    2    1    2  501    0  0.12634513117E+02  0.60603078102E+02 -0.22136522213E+03  0.28881277773E+03  0.17486536253E+03 0.  0.
         24    2    3    3    0    0 -0.42138153036E+02  0.58209454692E+02 -0.71696305395E+02  0.12934914856E+03  0.80167808188E+02 0.  0.
         -6    2    1    2    0  502 -0.12634513117E+02 -0.60603078102E+02 -0.17585218623E+03  0.25338156932E+03  0.17159797281E+03 0.  0.
        -24    2    5    5    0    0 -0.24642907671E+02 -0.68066295992E+02 -0.37474877031E+02  0.11420444885E+03  0.79987475149E+02 0.  0.
          5    1    3    3  501    0  0.54772666153E+02  0.23936234104E+01 -0.14966891673E+03  0.15946362917E+03  0.47000000000E+01 0. -1.
        -11    1    4    4    0    0 -0.38913286936E+02  0.18123478672E+01 -0.60195668792E+02  0.71701095154E+02  0.00000000000E+00 0.  1.
         12    1    4    4    0    0 -0.32248661002E+01  0.56397106825E+02 -0.11500636603E+02  0.57648053409E+02  0.00000000000E+00 0. -1.
         -5    1    5    5    0  502  0.12008394554E+02  0.74632178903E+01 -0.13837730920E+03  0.13917712047E+03  0.47000000000E+01 0.  1.
         11    1    6    6    0    0 -0.13683966921E+02  0.13362868118E+02 -0.24407108951E+02  0.31008453080E+02  0.00000000000E+00 0. -1.
        -12    1    6    6    0    0 -0.10958940750E+02 -0.81429164110E+02 -0.13067768079E+02  0.83195995773E+02  0.00000000000E+00 0.  1.
</event>
<event>
12    1  0.8562501E-002  0.3465599E+03  0.7818608E-02  0.1064068E+00
         21   -1    0    0  503  502  0.00000000000E+00  0.00000000000E+00  0.19301614894E+03  0.19301614894E+03  0.00000000000E+00 0. -1.
         21   -1    0    0  501  503 -0.00000000000E+00 -0.00000000000E+00 -0.11028078681E+04  0.11028078681E+04  0.00000000000E+00 0.  1.
          6    2    1    2  501    0 -0.29379873993E+03 -0.62757727831E+02 -0.88296303020E+03  0.94853966177E+03  0.17276442128E+03 0.  0.
         24    2    3    3    0    0 -0.14209837747E+03 -0.10010386147E+03 -0.40425897291E+03  0.44496504154E+03  0.65998780719E+02 0.  0.
         -6    2    1    2    0  502  0.29379873993E+03  0.62757727831E+02 -0.26828688948E+02  0.34728435527E+03  0.17213486827E+03 0.  0.
        -24    2    5    5    0    0  0.19512602640E+03  0.80704068648E+01 -0.76586019460E+02  0.22389517661E+03  0.78258124733E+02 0.  0.
          5    1    3    3  501    0 -0.15170036246E+03  0.37346133642E+02 -0.47870405730E+03  0.50357462023E+03  0.47000000000E+01 0. -1.
        -11    1    4    4    0    0 -0.18557372739E+02 -0.10011448192E+02 -0.12334525185E+03  0.12513455291E+03  0.00000000000E+00 0.  1.
         12    1    4    4    0    0 -0.12354100473E+03 -0.90092413281E+02 -0.28091372106E+03  0.31983048863E+03  0.00000000000E+00 0. -1.
         -5    1    5    5    0  502  0.98672713532E+02  0.54687320966E+02  0.49757330512E+02  0.12338917866E+03  0.47000000000E+01 0.  1.
         13    1    6    6    0    0  0.79787586667E+02 -0.24065859814E+02 -0.30690626292E+01  0.83394506655E+02  0.00000000000E+00 0. -1.
        -14    1    6    6    0    0  0.11533843973E+03  0.32136266679E+02 -0.73516956831E+02  0.14050066995E+03  0.00000000000E+00 0.  1.
</event>
<event>
12    1  0.8562501E-002  0.1865036E+03  0.7818608E-02  0.1161751E+00
         21   -1    0    0  503  502  0.00000000000E+00  0.00000000000E+00  0.65935623305E+03  0.65935623305E+03  0.00000000000E+00 0. -1.
         21   -1    0    0  501  503 -0.00000000000E+00 -0.00000000000E+00 -0.29190367109E+03  0.29190367109E+03  0.00000000000E+00 0. -1.
          6    2    1    2  501    0 -0.36891603328E+01 -0.70359475719E+02 -0.24692961613E+03  0.30919365742E+03  0.17222780477E+03 0.  0.
         24    2    3    3    0    0 -0.62546207845E+02 -0.11839358313E+02 -0.14214103067E+03  0.17543456866E+03  0.80752812700E+02 0.  0.
         -6    2    1    2    0  502  0.36891603328E+01  0.70359475719E+02  0.61438217809E+03  0.64206624672E+03  0.17268334805E+03 0.  0.
        -24    2    5    5    0    0  0.18339938178E+02  0.57644805269E+02  0.16930027848E+03  0.19653701592E+03  0.79403636103E+02 0.  0.
          5    1    3    3  501    0  0.58857047512E+02 -0.58520117406E+02 -0.10478858546E+03  0.13375908876E+03  0.47000000000E+01 0. -1.
        -11    1    4    4    0    0 -0.26441918728E+02  0.33411939245E+02 -0.79099785921E+02  0.89846028754E+02  0.00000000000E+00 0.  1.
         12    1    4    4    0    0 -0.36104289117E+02 -0.45251297558E+02 -0.63041244754E+02  0.85588539907E+02  0.00000000000E+00 0. -1.
         -5    1    5    5    0  502 -0.14650777845E+02  0.12714670450E+02  0.44508189961E+03  0.44552923080E+03  0.47000000000E+01 0.  1.
         11    1    6    6    0    0  0.42271399900E+02  0.26178793764E+02  0.13614938258E+03  0.14494431645E+03  0.00000000000E+00 0. -1.
        -12    1    6    6    0    0 -0.23931461722E+02  0.31466011505E+02  0.33150895896E+02  0.51592699473E+02  0.00000000000E+00 0.  1.
</event>
<event>
12    1  0.8562501E-002  0.1753718E+03  0.7818608E-02  0.1173498E+00
         21   -1    0    0  501  502  0.00000000000E+00  0.00000000000E+00  0.90497734885E+03  0.90497734885E+03  0.00000000000E+00 0.  1.
         21   -1    0    0  502  503 -0.00000000000E+00 -0.00000000000E+00 -0.11279124369E+03  0.11279124369E+03  0.00000000000E+00 0.  1.
         -6    2    1    2    0  503 -0.35333457115E+00 -0.19763216427E+01 -0.33096985617E+02  0.17405807338E+03  0.17087062872E+03 0.  0.
        -24    2    3    3    0    0 -0.36053603525E+02 -0.54679305791E+02 -0.36192986612E+02  0.11015354331E+03  0.80834287373E+02 0.  0.
          6    2    1    2  501    0  0.35333457115E+00  0.19763216427E+01  0.82528309078E+03  0.84371051915E+03  0.17536028487E+03 0.  0.
         24    2    5    5    0    0 -0.67521889298E+02 -0.41460054748E+01  0.58885005449E+03  0.59760647702E+03  0.76241194951E+02 0.  0.
          5    1    5    5  501    0  0.67875223869E+02  0.61223271174E+01  0.23643303629E+03  0.24610404213E+03  0.47000000000E+01 0. -1.
        -11    1    6    6    0    0 -0.16016689542E+02  0.22593453448E+02  0.37502608402E+03  0.37604728715E+03  0.00000000000E+00 0.  1.
         12    1    6    6    0    0 -0.51505199755E+02 -0.26739458922E+02  0.21382397047E+03  0.22155918987E+03  0.00000000000E+00 0. -1.
         -5    1    3    3    0  503  0.35700268954E+02  0.52702984149E+02  0.30960009949E+01  0.63904530072E+02  0.47000000000E+01 0.  1.
         13    1    4    4    0    0  0.26163819506E+02 -0.13722834400E+02 -0.10801531791E+02  0.31456870857E+02  0.00000000000E+00 0. -1.
        -14    1    4    4    0    0 -0.62217423031E+02 -0.40956471391E+02 -0.25391454822E+02  0.78696672454E+02  0.00000000000E+00 0.  1.
</event>
<event>
12    1  0.8562501E-002  0.1760416E+03  0.7818608E-02  0.1172139E+00
         21   -1    0    0  501  502  0.00000000000E+00  0.00000000000E+00  0.18769189704E+03  0.18769189704E+03  0.00000000000E+00 0. -1.
         21   -1    0    0  502  503 -0.00000000000E+00 -0.00000000000E+00 -0.56121909779E+03  0.56121909779E+03  0.00000000000E+00 0. -1.
         -6    2    1    2    0  503 -0.46814447506E+01 -0.37726222254E+02 -0.50173543635E+03  0.53113129766E+03  0.17004947367E+03 0.  0.
        -24    2    3    3    0    0  0.28450337089E+01 -0.82217884681E+02 -0.43822201747E+03  0.45307874945E+03  0.80460809311E+02 0.  0.
          6    2    1    2  501    0  0.46814447506E+01  0.37726222254E+02  0.12820823559E+03  0.21777969717E+03  0.17188793168E+03 0.  0.
         24    2    5    5    0    0  0.18142183679E+02 -0.42639824561E+02  0.82653681125E+02  0.12430670425E+03  0.80456399685E+02 0.  0.
          5    1    5    5  501    0 -0.13460738928E+02  0.80366046815E+02  0.45554554466E+02  0.93472992922E+02  0.47000000000E+01 0. -1.
        -11    1    6    6    0    0  0.14231185921E+02 -0.29281915975E+02 -0.72313476156E+01  0.33350406957E+02  0.00000000000E+00 0.  1.
         12    1    6    6    0    0  0.39109977578E+01 -0.13357908587E+02  0.89885028740E+02  0.90956297291E+02  0.00000000000E+00 0. -1.
         -5    1    3    3    0  503 -0.75264784595E+01  0.44491662427E+02 -0.63513418878E+02  0.78052548203E+02  0.47000000000E+01 0.  1.
         11    1    4    4    0    0 -0.20236197584E+02 -0.63658284411E+02 -0.16139379595E+03  0.17467065649E+03  0.00000000000E+00 0. -1.
        -12    1    4    4    0    0  0.23081231293E+02 -0.18559600269E+02 -0.27682822152E+03  0.27840809297E+03  0.00000000000E+00 0.  1.
</event>
<event>
12    1  0.8562501E-002  0.2102868E+03  0.7818608E-02  0.1141605E+00
         21   -1    0    0  503  502  0.00000000000E+00  0.00000000000E+00  0.28788573697E+02  0.28788573697E+02  0.00000000000E+00 0.  1.
         21   -1    0    0  501  503 -0.00000000000E+00 -0.00000000000E+00 -0.19577288360E+04  0.19577288360E+04  0.00000000000E+00 0.  1.
          6    2    1    2  501    0 -0.11896503076E+03  0.21329341489E+02 -0.14331790991E+04  0.14485243825E+04  0.17208409922E+03 0.  0.
         24    2    3    3    0    0 -0.11724025462E+03  0.48662699223E+02 -0.74540767214E+03  0.76019182257E+03  0.78394348117E+02 0.  0.
         -6    2    1    2    0  502  0.11896503076E+03 -0.21329341489E+02 -0.49576116320E+03  0.53799302721E+03  0.17043986340E+03 0.  0.
        -24    2    5    5    0    0  0.13766942121E+03 -0.50882907583E+02 -0.36087331651E+03  0.39856530875E+03  0.84159461435E+02 0.  0.
          5    1    3    3  501    0 -0.17247761407E+01 -0.27333357734E+02 -0.68777142698E+03  0.68833255994E+03  0.47000000000E+01 0. -1.
        -11    1    4    4    0    0 -0.67623208637E+02 -0.12943119515E+02 -0.39613111582E+03  0.40206999839E+03  0.00000000000E+00 0.  1.
         12    1    4    4    0    0 -0.49617045984E+02  0.61605818738E+02 -0.34927655633E+03  0.35812182418E+03  0.00000000000E+00 0. -1.
         -5    1    5    5    0  502 -0.18704390444E+02  0.29553566094E+02 -0.13488784669E+03  0.13942771846E+03  0.47000000000E+01 0.  1.
         11    1    6    6    0    0  0.38712712526E+02  0.16385850244E+02 -0.49205214693E+02  0.64717256990E+02  0.00000000000E+00 0. -1.
        -12    1    6    6    0    0  0.98956708680E+02 -0.67268757827E+02 -0.31166810182E+03  0.33384805176E+03  0.00000000000E+00 0.  1.
</event>
<event>
12    1  0.8562501E-002  0.1735052E+03  0.7818608E-02  0.1174683E+00
         21   -1    0    0  501  502  0.00000000000E+00  0.00000000000E+00  0.13215614124E+03  0.13215614124E+03  0.00000000000E+00 0.  1.
         21   -1    0    0  502  503 -0.00000000000E+00 -0.00000000000E+00 -0.24000453708E+03  0.24000453708E+03  0.00000000000E+00 0.  1.
         -6    2    1    2    0  503 -0.49623926062E+01  0.36543959702E+01 -0.84746525235E+01  0.17371205943E+03  0.17339573209E+03 0.  0.
        -24    2    3    3    0    0  0.64295588748E+02 -0.62776120964E+01  0.30566787935E+01  0.10264607342E+03  0.79709108374E+02 0.  0.
          6    2    1    2  501    0  0.49623926062E+01 -0.36543959702E+01 -0.99373743324E+02  0.19844861889E+03  0.17166459602E+03 0.  0.
         24    2    5    5    0    0  0.48682886236E+02 -0.47767766950E+02 -0.86000808184E+02  0.13474307394E+03  0.78152248818E+02 0.  0.
          5    1    5    5  501    0 -0.43720493630E+02  0.44113370980E+02 -0.13372935140E+02  0.63705544945E+02  0.47000000000E+01 0. -1.
        -13    1    6    6    0    0  0.50773030430E+02 -0.36193667469E+02 -0.16836631463E+02  0.64586022813E+02  0.00000000000E+00 0.  1.
         14    1    6    6    0    0 -0.20901441931E+01 -0.11574099481E+02 -0.69164176721E+02  0.70157051128E+02  0.00000000000E+00 0. -1.
         -5    1    3    3    0  503 -0.69257981354E+02  0.99320080666E+01 -0.11531331317E+02  0.71065986009E+02  0.47000000000E+01 0.  1.
         13    1    4    4    0    0  0.76113179387E+00 -0.20955677135E+01 -0.30562376896E+02  0.30643589985E+02  0.00000000000E+00 0. -1.
        -14    1    4    4    0    0  0.63534456954E+02 -0.41820443829E+01  0.33619055690E+02  0.72002483437E+02  0.00000000000E+00 0.  1.
</event>
<event>
12    1  0.8562501E-002  0.1746920E+03  0.7818608E-02  0.1173655E+00
         21   -1    0    0  501  502  0.00000000000E+00  0.00000000000E+00  0.78419088057E+03  0.78419088057E+03  0.00000000000E+00 0.  1.
         21   -1    0    0  502  503 -0.00000000000E+00 -0.00000000000E+00 -0.11923671989E+03  0.11923671989E+03  0.00000000000E+00 0.  1.
         -6    2    1    2    0  503  0.21932115886E+02 -0.15258243258E+02 -0.40249636913E+02  0.17690871590E+03  0.17018469025E+03 0.  0.
        -24    2    3    3    0    0 -0.30770397943E+02  0.12734681375E+02  0.24127744774E+02  0.89001400700E+02  0.78931057001E+02 0.  0.
          6    2    1    2  501    0 -0.21932115886E+02  0.15258243258E+02  0.70520379759E+03  0.72651888455E+03  0.17263679149E+03 0.  0.
         24    2    5    5    0    0 -0.33266545559E+02  0.58427671930E+02  0.63151761788E+03  0.64024135591E+03  0.81080430590E+02 0.  0.
          5    1    5    5  501    0  0.11334429674E+02 -0.43169428672E+02  0.73686179717E+02  0.86277528646E+02  0.47000000000E+01 0. -1.
        -11    1    6    6    0    0 -0.39761335576E+02  0.30143233586E+02  0.57045998401E+03  0.57263790627E+03  0.00000000000E+00 0.  1.
         12    1    6    6    0    0  0.64947900161E+01  0.28284438344E+02  0.61057633865E+02  0.67603449638E+02  0.00000000000E+00 0. -1.
         -5    1    3    3    0  503  0.52702513829E+02 -0.27992924633E+02 -0.64377381687E+02  0.87907315204E+02  0.47000000000E+01 0.  1.
         11    1    4    4    0    0 -0.40855642147E+02  0.26764580768E+02 -0.10810642354E+02  0.50023956931E+02  0.00000000000E+00 0. -1.
        -12    1    4    4    0    0  0.10085244203E+02 -0.14029899393E+02  0.34938387129E+02  0.38977443769E+02  0.00000000000E+00 0.  1.
</event>
<event>
12    1  0.8562501E-002  0.1894633E+03  0.7818608E-02  0.1162343E+00
         21   -1    0    0  501  502  0.00000000000E+00  0.00000000000E+00  0.42157830220E+03  0.42157830220E+03  0.00000000000E+00 0. -1.
         21   -1    0    0  502  503 -0.00000000000E+00 -0.00000000000E+00 -0.83159623565E+02  0.83159623565E+02  0.00000000000E+00 0. -1.
         -6    2    1    2    0  503  0.31520468356E+02  0.58149360120E+02  0.22059218278E+03  0.28162486363E+03  0.16210109408E+03 0.  0.
        -24    2    3    3    0    0 -0.82801612024E+01  0.92236025425E+02  0.14750944572E+03  0.19157394847E+03  0.79784056671E+02 0.  0.
          6    2    1    2  501    0 -0.31520468356E+02 -0.58149360120E+02  0.11782649585E+03  0.22311306213E+03  0.17754286063E+03 0.  0.
         24    2    5    5    0    0 -0.32367788878E+02  0.26545827888E+02  0.13051260564E+02  0.88302332764E+02  0.76646016427E+02 0.  0.
          5    1    5    5  501    0  0.84732052183E+00 -0.84695188008E+02  0.10477523529E+03  0.13481072937E+03  0.47000000000E+01 0. -1.
        -11    1    6    6    0    0 -0.24802026107E+02  0.36469562430E+02  0.39405125647E+02  0.59143329380E+02  0.00000000000E+00 0.  1.
         12    1    6    6    0    0 -0.75657627706E+01 -0.99237345424E+01 -0.26353865083E+02  0.29159003384E+02  0.00000000000E+00 0. -1.
         -5    1    3    3    0  503  0.39800629559E+02 -0.34086665306E+02  0.73082737060E+02  0.90050915160E+02  0.47000000000E+01 0.  1.
         11    1    4    4    0    0  0.88163212843E+01  0.48396244932E+01 -0.76762992155E+01  0.12652077137E+02  0.00000000000E+00 0. -1.
        -12    1    4    4    0    0 -0.17096482487E+02  0.87396400932E+02  0.15518574494E+03  0.17892187133E+03  0.00000000000E+00 0.  1.
</event>
<event>
12    1  0.8562501E-002  0.1899889E+03  0.7818608E-02  0.1158984E+00
         21   -1    0    0  503  502  0.00000000000E+00  0.00000000000E+00  0.32858759650E+03  0.32858759650E+03  0.00000000000E+00 0.  1.
         21   -1    0    0  501  503 -0.00000000000E+00 -0.00000000000E+00 -0.11250464489E+03  0.11250464489E+03  0.00000000000E+00 0.  1.
          6    2    1    2  501    0  0.20069673153E+02  0.70134721577E+02  0.67312949198E+02  0.20156097981E+03  0.17542555259E+03 0.  0.
         24    2    3    3    0    0  0.24067691876E+01 -0.24648674892E+02  0.64875104191E+02  0.10500061780E+03  0.78759132060E+02 0.  0.
         -6    2    1    2    0  502 -0.20069673153E+02 -0.70134721577E+02  0.14877000241E+03  0.23953126158E+03  0.17297699472E+03 0.  0.
        -24    2    5    5    0    0  0.49245764802E+02 -0.42661378017E+02  0.12303747570E+03  0.16051438062E+03  0.79884337853E+02 0.  0.
          5    1    3    3  501    0  0.17662903966E+02  0.94783396470E+02  0.24378450072E+01  0.96560362008E+02  0.47000000000E+01 0. -1.
        -11    1    4    4    0    0 -0.10027316136E+01 -0.51630826522E+02  0.26717459760E+02  0.58142672574E+02  0.00000000000E+00 0.  1.
         12    1    4    4    0    0  0.34095008011E+01  0.26982151630E+02  0.38157644431E+02  0.46857945226E+02  0.00000000000E+00 0. -1.
         -5    1    5    5    0  502 -0.69315437955E+02 -0.27473343560E+02  0.25732526716E+02  0.79016880959E+02  0.47000000000E+01 0.  1.
         11    1    6    6    0    0  0.28364880194E+02 -0.37730849706E+02  0.12972093133E+03  0.13804239738E+03  0.00000000000E+00 0. -1.
        -12    1    6    6    0    0  0.20880884608E+02 -0.49305283113E+01 -0.66834556376E+01  0.22471983239E+02  0.00000000000E+00 0.  1.
</event>
<event>
12    1  0.8562501E-002  0.1891514E+03  0.7818608E-02  0.1160330E+00
         21   -1    0    0  501  502  0.00000000000E+00  0.00000000000E+00  0.11104087313E+04  0.11104087313E+04  0.00000000000E+00 0. -1.
         21   -1    0    0  502  503 -0.00000000000E+00 -0.00000000000E+00 -0.42718437394E+02  0.42718437394E+02  0.00000000000E+00 0. -1.
         -6    2    1    2    0  503  0.23309171516E+02  0.64559032613E+02  0.24225355995E+03  0.30735163170E+03  0.17625848074E+03 0.  0.
        -24    2    3    3    0    0  0.82425951323E+02  0.48692013831E+02  0.11508380191E+03  0.16613975791E+03  0.72063777543E+02 0.  0.
          6    2    1    2  501    0 -0.23309171516E+02 -0.64559032613E+02  0.82543673392E+03  0.84577553696E+03  0.17111186703E+03 0.  0.
         24    2    5    5    0    0 -0.41758826091E+01 -0.10730970007E+03  0.53233332561E+03  0.54891631060E+03  0.79984603263E+02 0.  0.
          5    1    5    5  501    0 -0.19133288907E+02  0.42750667454E+02  0.29310340831E+03  0.29685922636E+03  0.47000000000E+01 0. -1.
        -11    1    6    6    0    0  0.95343503373E+01  0.95381946566E+00  0.58163961335E+01  0.11209106651E+02  0.00000000000E+00 0.  1.
         12    1    6    6    0    0 -0.13710232946E+02 -0.10826351953E+03  0.52651692948E+03  0.53770720395E+03  0.00000000000E+00 0. -1.
         -5    1    3    3    0  503 -0.59116779807E+02  0.15867018782E+02  0.12716975804E+03  0.14121187379E+03  0.47000000000E+01 0.  1.
         13    1    4    4    0    0 -0.10671075153E+02  0.17169502529E+02  0.29794673875E+02  0.36005364230E+02  0.00000000000E+00 0. -1.
        -14    1    4    4    0    0  0.93097026476E+02  0.31522511303E+02  0.85289128034E+02  0.13013439368E+03  0.00000000000E+00 0.  1.
</event>
<event>
12    1  0.8562501E-002  0.2136159E+03  0.7818608E-02  0.1138868E+00
         21   -1    0    0  503  502  0.00000000000E+00  0.00000000000E+00  0.34161499997E+03  0.34161499997E+03  0.00000000000E+00 0. -1.
         21   -1    0    0  501  503 -0.00000000000E+00 -0.00000000000E+00 -0.19237369132E+03  0.19237369132E+03  0.00000000000E+00 0. -1.
          6    2    1    2  501    0 -0.12540990307E+03 -0.26183086202E+02 -0.73442019074E+02  0.22588818299E+03  0.17093432440E+03 0.  0.
         24    2    3    3    0    0 -0.11241808147E+03 -0.27658234237E+02 -0.11056494060E+03  0.18625026184E+03  0.95193229712E+02 0.  0.
         -6    2    1    2    0  502  0.12540990307E+03  0.26183086202E+02  0.22268332772E+03  0.30810050830E+03  0.17007310481E+03 0.  0.
        -24    2    5    5    0    0  0.68689992898E+02  0.11061869048E+02  0.32506587172E+02  0.10901489339E+03  0.77374987560E+02 0.  0.
          5    1    3    3  501    0 -0.12991821602E+02  0.14751480350E+01  0.37122921528E+02  0.39637921150E+02  0.47000000000E+01 0. -1.
        -11    1    4    4    0    0 -0.29919584566E+01 -0.10804802996E+02  0.15075838952E+02  0.18787668916E+02  0.00000000000E+00 0.  1.
         12    1    4    4    0    0 -0.10942612301E+03 -0.16853431241E+02 -0.12564077955E+03  0.16746259292E+03  0.00000000000E+00 0. -1.
         -5    1    5    5    0  502  0.56719910171E+02  0.15121217154E+02  0.19017674055E+03  0.19908561491E+03  0.47000000000E+01 0.  1.
         13    1    6    6    0    0  0.23380380038E+02 -0.28510735025E+02  0.32052316935E+02  0.48855452135E+02  0.00000000000E+00 0. -1.
        -14    1    6    6    0    0  0.45309612859E+02  0.39572604073E+02  0.45427023720E+00  0.60159441254E+02  0.00000000000E+00 0.  1.
</event>
<event>
12    1  0.8562501E-002  0.2163303E+03  0.7818608E-02  0.1137565E+00
         21   -1    0    0  501  502  0.00000000000E+00  0.00000000000E+00  0.13618189675E+03  0.13618189675E+03  0.00000000000E+00 0. -1.
         21   -1    0    0  502  503 -0.00000000000E+00 -0.00000000000E+00 -0.33707255300E+03  0.33707255300E+03  0.00000000000E+00 0.  1.
         -6    2    1    2    0  503  0.11682987039E+03  0.39601926963E+02 -0.89130154887E+02  0.23397222986E+03  0.17771125062E+03 0.  0.
        -24    2    3    3    0    0 -0.18946517137E+01  0.42163806858E+02 -0.77883350633E+01  0.89956060520E+02  0.79057310524E+02 0.  0.
          6    2    1    2  501    0 -0.11682987039E+03 -0.39601926963E+02 -0.11176050136E+03  0.23928221989E+03  0.17189543292E+03 0.  0.
         24    2    5    5    0    0 -0.48690101732E+02  0.24671300692E+01  0.94237517379E+01  0.93953121528E+02  0.79759445901E+02 0.  0.
          5    1    5    5  501    0 -0.68139768661E+02 -0.42069057033E+02 -0.12118425310E+03  0.14532909836E+03  0.47000000000E+01 0. -1.
        -11    1    6    6    0    0 -0.83562971720E+01  0.97211093147E+01 -0.32736888874E+02  0.35157240533E+02  0.00000000000E+00 0.  1.
         12    1    6    6    0    0 -0.40333804560E+02 -0.72539792455E+01  0.42160640612E+02  0.58795880995E+02  0.00000000000E+00 0. -1.
         -5    1    3    3    0  503  0.11872452211E+03 -0.25618798942E+01 -0.81341819824E+02  0.14401616934E+03  0.47000000000E+01 0.  1.
         11    1    4    4    0    0  0.25277829164E+02  0.49050147412E+02 -0.20904809559E+02  0.59007598418E+02  0.00000000000E+00 0. -1.
        -12    1    4    4    0    0 -0.27172480878E+02 -0.68863405542E+01  0.13116474495E+02  0.30948462102E+02  0.00000000000E+00 0.  1.
</event>
<event>
12    1  0.8562501E-002  0.2127767E+03  0.7818608E-02  0.1139433E+00
         21   -1    0    0  503  502  0.00000000000E+00  0.00000000000E+00  0.44848389056E+03  0.44848389056E+03  0.00000000000E+00 0. -1.
         21   -1    0    0  501  503 -0.00000000000E+00 -0.00000000000E+00 -0.24189849057E+03  0.24189849057E+03  0.00000000000E+00 0.  1.
          6    2    1    2  501    0  0.12485084579E+03  0.12174649028E+02 -0.16033672194E+03  0.26622938384E+03  0.17156417063E+03 0.  0.
         24    2    3    3    0    0  0.68480658640E+02  0.70399739920E+02 -0.74363053496E+02  0.14798674824E+03  0.82002987388E+02 0.  0.
         -6    2    1    2    0  502 -0.12485084579E+03 -0.12174649028E+02  0.36692212193E+03  0.42415299729E+03  0.17186612749E+03 0.  0.
        -24    2    5    5    0    0 -0.46240618701E+02  0.37060368104E+02  0.28081290735E+03  0.29750173772E+03  0.78356424824E+02 0.  0.
          5    1    3    3  501    0  0.56370187153E+02 -0.58225090892E+02 -0.85973668445E+02  0.11824263561E+03  0.47000000000E+01 0. -1.
        -13    1    4    4    0    0  0.63539946291E+02  0.65504955843E+01 -0.35550285716E+02  0.73103054530E+02  0.00000000000E+00 0.  1.
         14    1    4    4    0    0  0.49407123484E+01  0.63849244336E+02 -0.38812767780E+02  0.74883693709E+02  0.00000000000E+00 0. -1.
         -5    1    5    5    0  502 -0.78610227091E+02 -0.49235017132E+02  0.86109214576E+02  0.12665125957E+03  0.47000000000E+01 0.  1.
         11    1    6    6    0    0 -0.56078061930E+02  0.43548638984E+01  0.22620610930E+03  0.23309422506E+03  0.00000000000E+00 0. -1.
        -12    1    6    6    0    0  0.98374432285E+01  0.32705504206E+02  0.54606798048E+02  0.64407512665E+02  0.00000000000E+00 0.  1.
</event>
<event>
12    1  0.8562501E-002  0.1829173E+03  0.7818608E-02  0.1165353E+00
         21   -1    0    0  503  502  0.00000000000E+00  0.00000000000E+00  0.11529270194E+04  0.11529270194E+04  0.00000000000E+00 0.  1.
         21   -1    0    0  501  503 -0.00000000000E+00 -0.00000000000E+00 -0.42991413185E+02  0.42991413185E+02  0.00000000000E+00 0.  1.
          6    2    1    2  501    0  0.15584154843E+02  0.55029313974E+02  0.21279056932E+03  0.28060391115E+03  0.17374589860E+03 0.  0.
         24    2    3    3    0    0 -0.66880528421E+01  0.66762125410E+02  0.43521049527E+02  0.10940820317E+03  0.74660308925E+02 0.  0.
         -6    2    1    2    0  502 -0.15584154843E+02 -0.55029313974E+02  0.89714503692E+03  0.91531452147E+03  0.17222184719E+03 0.  0.
        -24    2    5    5    0    0 -0.21937930488E+02 -0.90730903821E+02  0.82829187026E+03  0.83735413061E+03  0.79882088173E+02 0.  0.
          5    1    3    3  501    0  0.22272207685E+02 -0.11732811437E+02  0.16926951979E+03  0.17119570798E+03  0.47000000000E+01 0. -1.
        -11    1    4    4    0    0 -0.26693755316E+02 -0.36621815811E+01  0.85036909328E+01  0.28253865333E+02  0.00000000000E+00 0.  1.
         12    1    4    4    0    0  0.20005702474E+02  0.70424306992E+02  0.35017358594E+02  0.81154337836E+02  0.00000000000E+00 0. -1.
         -5    1    5    5    0  502  0.63537756454E+01  0.35701589847E+02  0.68853166669E+02  0.77960390859E+02  0.47000000000E+01 0.  1.
         13    1    6    6    0    0 -0.16856669750E+02  0.11001989963E+02  0.10344508056E+03  0.10538536800E+03  0.00000000000E+00 0. -1.
        -14    1    6    6    0    0 -0.50812607383E+01 -0.10173289378E+03  0.72484678970E+03  0.73196876260E+03  0.00000000000E+00 0.  1.
</event>
<event>
12    1  0.8562501E-002  0.1995998E+03  0.7818608E-02  0.1150446E+00
         21   -1    0    0  501  502  0.00000000000E+00  0.00000000000E+00  0.61858285867E+02  0.61858285867E+02  0.00000000000E+00 0.  1.
         21   -1    0    0  502  503 -0.00000000000E+00 -0.00000000000E+00 -0.64321575561E+03  0.64321575561E+03  0.00000000000E+00 0.  1.
         -6    2    1    2    0  503 -0.43475238464E+01  0.10036028740E+03 -0.31970026829E+03  0.37597742594E+03  0.17046898551E+03 0.  0.
        -24    2    3    3    0    0 -0.31506930746E+02  0.93779455883E+02 -0.15055632540E+03  0.20447610192E+03  0.96726398185E+02 0.  0.
          6    2    1    2  501    0  0.43475238464E+01 -0.10036028740E+03 -0.26165720145E+03  0.32909661554E+03  0.17247899302E+03 0.  0.
         24    2    5    5    0    0 -0.41398332452E+02 -0.94830392878E+02 -0.24852575192E+03  0.28095320406E+03  0.80392960875E+02 0.  0.
          5    1    5    5  501    0  0.45745856298E+02 -0.55298945231E+01 -0.13131449530E+02  0.48143411477E+02  0.47000000000E+01 0. -1.
        -11    1    6    6    0    0  0.11294558275E+02 -0.19225254569E+02 -0.85320374471E+01  0.23874109886E+02  0.00000000000E+00 0.  1.
         12    1    6    6    0    0 -0.52692890727E+02 -0.75605138310E+02 -0.23999371448E+03  0.25707909417E+03  0.00000000000E+00 0. -1.
         -5    1    3    3    0  503  0.27159406900E+02  0.65808315180E+01 -0.16914394289E+03  0.17150132402E+03  0.47000000000E+01 0.  1.
         13    1    4    4    0    0 -0.64821525264E+01 -0.11515046374E+02 -0.65515543130E+02  0.66834878514E+02  0.00000000000E+00 0. -1.
        -14    1    4    4    0    0 -0.25024778220E+02  0.10529450226E+03 -0.85040782274E+02  0.13764122340E+03  0.00000000000E+00 0.  1.
</event>
<event>
12    1  0.8562501E-002  0.2006941E+03  0.7818608E-02  0.1151040E+00
         21   -1    0    0  501  502  0.00000000000E+00  0.00000000000E+00  0.48799752578E+03  0.48799752578E+03  0.00000000000E+00 0. -1.
         21   -1    0    0  502  503 -0.00000000000E+00 -0.00000000000E+00 -0.86110266590E+02  0.86110266590E+02  0.00000000000E+00 0.  1.
         -6    2    1    2    0  503  0.86873800724E+02 -0.56532786353E+02  0.27945896760E+03  0.33901885040E+03  0.16153468102E+03 0.  0.
        -24    2    3    3    0    0  0.56570485133E+02 -0.58734378753E+02  0.28530831768E+03  0.30772279887E+03  0.81501765480E+02 0.  0.
          6    2    1    2  501    0 -0.86873800724E+02  0.56532786353E+02  0.12242829160E+03  0.23508894197E+03  0.17185782167E+03 0.  0.
         24    2    5    5    0    0 -0.36462593434E+02  0.93234217531E+02  0.11382343903E+03  0.17196669265E+03  0.81207315372E+02 0.  0.
          5    1    5    5  501    0 -0.50411207291E+02 -0.36701431178E+02  0.86048525602E+01  0.63122249315E+02  0.47000000000E+01 0. -1.
        -13    1    6    6    0    0 -0.30732532480E+02  0.63969663704E+01  0.37016132452E+01  0.31608727782E+02  0.00000000000E+00 0.  1.
         14    1    6    6    0    0 -0.57300609537E+01  0.86837251161E+02  0.11012182579E+03  0.14035796487E+03  0.00000000000E+00 0. -1.
         -5    1    3    3    0  503  0.30303315592E+02  0.22015924003E+01 -0.58493500782E+01  0.31296051529E+02  0.47000000000E+01 0.  1.
         13    1    4    4    0    0  0.28887702303E+02 -0.14500631054E+02  0.22774748316E+03  0.23002974532E+03  0.00000000000E+00 0. -1.
        -14    1    4    4    0    0  0.27682782830E+02 -0.44233747699E+02  0.57560834515E+02  0.77693053555E+02  0.00000000000E+00 0.  1.
</event>
<event>
12    1  0.8562501E-002  0.1749547E+03  0.7818608E-02  0.1172934E+00
         21   -1    0    0  501  502  0.00000000000E+00  0.00000000000E+00  0.50811123514E+03  0.50811123514E+03  0.00000000000E+00 0. -1.
         21   -1    0    0  502  503 -0.00000000000E+00 -0.00000000000E+00 -0.15694009199E+03  0.15694009199E+03  0.00000000000E+00 0. -1.
         -6    2    1    2    0  503 -0.25058593542E+02  0.37528709414E+01 -0.85600785754E+02  0.19477334772E+03  0.17311021145E+03 0.  0.
        -24    2    3    3    0    0  0.50208305416E+02  0.86317557495E+01 -0.56454417475E+02  0.11377637012E+03  0.84632027070E+02 0.  0.
          6    2    1    2  501    0  0.25058593542E+02 -0.37528709414E+01  0.43677192890E+03  0.47027797941E+03  0.17248084789E+03 0.  0.
         24    2    5    5    0    0  0.13593787481E+01  0.45595038725E+02  0.13206403504E+03  0.16065585559E+03  0.79300940219E+02 0.  0.
          5    1    5    5  501    0  0.23699214794E+02 -0.49347909666E+02  0.30470789387E+03  0.30962212382E+03  0.47000000000E+01 0. -1.
        -11    1    6    6    0    0 -0.40683292373E+01 -0.15400649414E+02  0.96281291247E+00  0.15958017228E+02  0.00000000000E+00 0.  1.
         12    1    6    6    0    0  0.54277079853E+01  0.60995688138E+02  0.13110122212E+03  0.14469783836E+03  0.00000000000E+00 0. -1.
         -5    1    3    3    0  503 -0.75266898958E+02 -0.48788848080E+01 -0.29146368279E+02  0.80996977595E+02  0.47000000000E+01 0.  1.
         13    1    4    4    0    0 -0.12955604223E+02 -0.10364102690E+02 -0.43501657169E+02  0.46558097918E+02  0.00000000000E+00 0. -1.
        -14    1    4    4    0    0  0.63163909639E+02  0.18995858439E+02 -0.12952760306E+02  0.67218272205E+02  0.00000000000E+00 0.  1.
</event>
<event>
12    1  0.8562501E-002  0.1953747E+03  0.7818608E-02  0.1153943E+00
         21   -1    0    0  503  502  0.00000000000E+00  0.00000000000E+00  0.62435978462E+03  0.62435978462E+03  0.00000000000E+00 0.  1.
         21   -1    0    0  501  503 -0.00000000000E+00 -0.00000000000E+00 -0.90447150126E+02  0.90447150126E+02  0.00000000000E+00 0. -1.
          6    2    1    2  501    0 -0.30468230641E+02  0.85600407700E+02  0.62811733549E+02  0.20522329735E+03  0.17296110842E+03 0.  0.
         24    2    3    3    0    0 -0.18807743720E+02  0.42934564374E+02  0.10789928593E+03  0.14188832659E+03  0.79328010670E+02 0.  0.
         -6    2    1    2    0  502  0.30468230641E+02 -0.85600407700E+02  0.47110090095E+03  0.50958363740E+03  0.17170812955E+03 0.  0.
        -24    2    5    5    0    0  0.43081420449E+02 -0.10866504555E+03  0.26696807699E+03  0.30371142001E+03  0.85466786527E+02 0.  0.
          5    1    3    3  501    0 -0.11660486921E+02  0.42665843327E+02 -0.45087552377E+02  0.63334970762E+02  0.47000000000E+01 0. -1.
        -13    1    4    4    0    0 -0.14150345934E+02  0.27710384258E+01  0.99567485202E+02  0.10060613825E+03  0.00000000000E+00 0.  1.
         14    1    4    4    0    0 -0.46573977864E+01  0.40163525948E+02  0.83318007236E+01  0.41282188338E+02  0.00000000000E+00 0. -1.
         -5    1    5    5    0  502 -0.12613189807E+02  0.23064637852E+02  0.20413282396E+03  0.20587221739E+03  0.47000000000E+01 0.  1.
         11    1    6    6    0    0 -0.21384579659E+01 -0.83022073533E+02  0.10662691912E+03  0.13515375532E+03  0.00000000000E+00 0. -1.
        -12    1    6    6    0    0  0.45219878415E+02 -0.25642972019E+02  0.16034115787E+03  0.16855766469E+03  0.00000000000E+00 0.  1.
</event>
<event>
12    1  0.8562501E-002  0.1853173E+03  0.7818608E-02  0.1163588E+00
         21   -1    0    0  501  502  0.00000000000E+00  0.00000000000E+00  0.61141136426E+03  0.61141136426E+03  0.00000000000E+00 0. -1.
         21   -1    0    0  502  503 -0.00000000000E+00 -0.00000000000E+00 -0.76044022803E+02  0.76044022803E+02  0.00000000000E+00 0. -1.
         -6    2    1    2    0  503 -0.70593768493E+02  0.11762187519E+02  0.89171864170E+02  0.20565538150E+03  0.17094059019E+03 0.  0.
        -24    2    3    3    0    0 -0.94533996316E+02 -0.36782778745E+02  0.50882485353E+02  0.13918798507E+03  0.80589196550E+02 0.  0.
          6    2    1    2  501    0  0.70593768493E+02 -0.11762187519E+02  0.44619547729E+03  0.48180000557E+03  0.16708983274E+03 0.  0.
         24    2    5    5    0    0 -0.15390223211E+02  0.18031449052E+02  0.27928712004E+03  0.29163850229E+03  0.80558850981E+02 0.  0.
          5    1    5    5  501    0  0.85983991704E+02 -0.29793636570E+02  0.16690835725E+03  0.19016150328E+03  0.47000000000E+01 0. -1.
        -13    1    6    6    0    0 -0.35577155255E+01 -0.17887783053E+02  0.12327653034E+02  0.22013658297E+02  0.00000000000E+00 0.  1.
         14    1    6    6    0    0 -0.11832507685E+02  0.35919232105E+02  0.26695946700E+03  0.26962484399E+03  0.00000000000E+00 0. -1.
         -5    1    3    3    0  503  0.23940227822E+02  0.48544966264E+02  0.38289378817E+02  0.66467396428E+02  0.47000000000E+01 0.  1.
         13    1    4    4    0    0 -0.88134005334E+02  0.37470963866E+01  0.39154144667E+02  0.96512645142E+02  0.00000000000E+00 0. -1.
        -14    1    4    4    0    0 -0.63999909811E+01 -0.40529875132E+02  0.11728340685E+02  0.42675339928E+02  0.00000000000E+00 0.  1.
</event>
<event>
12    1  0.8562501E-002  0.3502328E+03  0.7818608E-02  0.1062624E+00
         21   -1    0    0  503  502  0.00000000000E+00  0.00000000000E+00  0.48395864655E+03  0.48395864655E+03  0.00000000000E+00 0. -1.
         21   -1    0    0  501  503 -0.00000000000E+00 -0.00000000000E+00 -0.25290845964E+03  0.25290845964E+03  0.00000000000E+00 0.  1.
          6    2    1    2  501    0  0.36264383435E+02  0.30313733856E+03  0.10534623677E+03  0.36475888579E+03  0.16954015343E+03 0.  0.
         24    2    3    3    0    0  0.32038629133E+02  0.26584514961E+03  0.29579556936E+02  0.28007568717E+03  0.76598453147E+02 0.  0.
         -6    2    1    2    0  502 -0.36264383435E+02 -0.30313733856E+03  0.12570395014E+03  0.37210822040E+03  0.17162660946E+03 0.  0.
        -24    2    5    5    0    0 -0.53595775966E+02 -0.22238432870E+03  0.27238800650E+02  0.24350456014E+03  0.78900074117E+02 0.  0.
          5    1    3    3  501    0  0.42257543021E+01  0.37292188950E+02  0.75766679834E+02  0.84683198624E+02  0.47000000000E+01 0. -1.
        -11    1    4    4    0    0  0.39005430851E+02  0.16599040697E+03  0.50464411857E+02  0.17782265240E+03  0.00000000000E+00 0.  1.
         12    1    4    4    0    0 -0.69668017180E+01  0.99854742641E+02 -0.20884854921E+02  0.10225303477E+03  0.00000000000E+00 0. -1.
         -5    1    5    5    0  502  0.17331392531E+02 -0.80753009861E+02  0.98465149487E+02  0.12860366026E+03  0.47000000000E+01 0.  1.
         11    1    6    6    0    0  0.34678039091E+01 -0.92215704692E+02  0.40465734297E+02  0.10076327460E+03  0.00000000000E+00 0. -1.
        -12    1    6    6    0    0 -0.57063579875E+02 -0.13016862401E+03 -0.13226933647E+02  0.14274128554E+03  0.00000000000E+00 0.  1.
</event>
<event>
12    1  0.8562501E-002  0.1760965E+03  0.7818608E-02  0.1171928E+00
         21   -1    0    0  501  502  0.00000000000E+00  0.00000000000E+00  0.36115406724E+03  0.36115406724E+03  0.00000000000E+00 0. -1.
         21   -1    0    0  502  503 -0.00000000000E+00 -0.00000000000E+00 -0.30099780719E+03  0.30099780719E+03  0.00000000000E+00 0. -1.
         -6    2    1    2    0  503  0.31212112896E+02 -0.38738329650E+01 -0.25021970000E+03  0.30530005538E+03  0.17207272583E+03 0.  0.
        -24    2    3    3    0    0  0.41626543234E+02 -0.61438327599E+02 -0.20112942677E+03  0.22878811953E+03  0.79896934390E+02 0.  0.
          6    2    1    2  501    0 -0.31212112896E+02  0.38738329650E+01  0.31037596005E+03  0.35685181905E+03  0.17326506172E+03 0.  0.
         24    2    5    5    0    0  0.14166530873E+02  0.57359718657E+02  0.12444530971E+03  0.15807491392E+03  0.77525578879E+02 0.  0.
          5    1    5    5  501    0 -0.45378643769E+02 -0.53485885692E+02  0.18593065034E+03  0.19877690513E+03  0.47000000000E+01 0. -1.
        -13    1    6    6    0    0 -0.39604241241E+00 -0.15861443409E+02  0.50752467523E+02  0.53174760896E+02  0.00000000000E+00 0.  1.
         14    1    6    6    0    0  0.14562573286E+02  0.73221162066E+02  0.73692842187E+02  0.10490015302E+03  0.00000000000E+00 0. -1.
         -5    1    3    3    0  503 -0.10414430338E+02  0.57564494634E+02 -0.49090273224E+02  0.76511935847E+02  0.47000000000E+01 0.  1.
         13    1    4    4    0    0  0.53216601143E+01 -0.33853406207E+02 -0.17038118784E+03  0.17379333228E+03  0.00000000000E+00 0. -1.
        -14    1    4    4    0    0  0.36304883120E+02 -0.27584921392E+02 -0.30748238935E+02  0.54994787245E+02  0.00000000000E+00 0.  1.
</event>
<event>
12    1  0.8562501E-002  0.1880473E+03  0.7818608E-02  0.1160341E+00
         21   -1    0    0  503  502  0.00000000000E+00  0.00000000000E+00  0.27244802661E+03  0.27244802661E+03  0.00000000000E+00 0. -1.
         21   -1    0    0  501  503 -0.00000000000E+00 -0.00000000000E+00 -0.13120398763E+03  0.13120398763E+03  0.00000000000E+00 0. -1.
          6    2    1    2  501    0  0.23230391321E+02  0.72926073945E+02  0.47526035447E+02  0.19396008295E+03  0.17176707016E+03 0.  0.
         24    2    3    3    0    0 -0.12781582182E+02  0.86545558593E+02 -0.17089946734E+02  0.11859651250E+03  0.78227641802E+02 0.  0.
         -6    2    1    2    0  502 -0.23230391321E+02 -0.72926073945E+02  0.93718003529E+02  0.20969193129E+03  0.17125938958E+03 0.  0.
        -24    2    5    5    0    0 -0.11637101834E+02  0.24384054343E+02  0.71585159476E+02  0.10911550157E+03  0.77793016271E+02 0.  0.
          5    1    3    3  501    0  0.36011973503E+02 -0.13619484648E+02  0.64615982182E+02  0.75363570450E+02  0.47000000000E+01 0. -1.
        -13    1    4    4    0    0 -0.21326674661E+02 -0.67586634157E+01 -0.10377453813E+02  0.24661673319E+02  0.00000000000E+00 0.  1.
         14    1    4    4    0    0  0.85450924789E+01  0.93304222009E+02 -0.67124929216E+01  0.93934839178E+02  0.00000000000E+00 0. -1.
         -5    1    5    5    0  502 -0.11593289487E+02 -0.97310128288E+02  0.22132844053E+02  0.10057642972E+03  0.47000000000E+01 0.  1.
         13    1    6    6    0    0 -0.32600818776E+02  0.61614036014E+01  0.92387981877E+00  0.33190809468E+02  0.00000000000E+00 0. -1.
        -14    1    6    6    0    0  0.20963716943E+02  0.18222650742E+02  0.70661279658E+02  0.75924692103E+02  0.00000000000E+00 0.  1.
</event>
<event>
12    1  0.8562501E-002  0.1911013E+03  0.7818608E-02  0.1157837E+00
         21   -1    0    0  503  502  0.00000000000E+00  0.00000000000E+00  0.44340218030E+02  0.44340218030E+02  0.00000000000E+00 0.  1.
         21   -1    0    0  501  503 -0.00000000000E+00 -0.00000000000E+00 -0.82470152188E+03  0.82470152188E+03  0.00000000000E+00 0.  1.
          6    2    1    2  501    0 -0.68343774574E+02  0.44173787851E+02 -0.34884534353E+03  0.39775972138E+03  0.17290901419E+03 0.  0.
         24    2    3    3    0    0 -0.48225081860E+02 -0.29125240451E+02 -0.11078319868E+03  0.14781335882E+03  0.80012085229E+02 0.  0.
         -6    2    1    2    0  502  0.68343774574E+02 -0.44173787851E+02 -0.43151596032E+03  0.47128201853E+03  0.17110967806E+03 0.  0.
        -24    2    5    5    0    0  0.78675479677E+01  0.34013156815E+02 -0.24829645066E+03  0.26304645236E+03  0.79520535333E+02 0.  0.
          5    1    3    3  501    0 -0.20118692714E+02  0.73299028303E+02 -0.23806214485E+03  0.24994636256E+03  0.47000000000E+01 0. -1.
        -11    1    4    4    0    0 -0.48703851126E+01  0.26436856678E+02 -0.37516869036E+02  0.46153477707E+02  0.00000000000E+00 0.  1.
         12    1    4    4    0    0 -0.43354696747E+02 -0.55562097130E+02 -0.73266329647E+02  0.10165988111E+03  0.00000000000E+00 0. -1.
         -5    1    5    5    0  502  0.60476226607E+02 -0.78186944666E+02 -0.18321950965E+03  0.20823556617E+03  0.47000000000E+01 0.  1.
         13    1    6    6    0    0 -0.24833673994E+02  0.29076008328E+01 -0.25455966285E+02  0.35681532004E+02  0.00000000000E+00 0. -1.
        -14    1    6    6    0    0  0.32701221961E+02  0.31105555982E+02 -0.22284048438E+03  0.22736492036E+03  0.00000000000E+00 0.  1.
</event>
<event>
12    1  0.8562501E-002  0.1892506E+03  0.7818608E-02  0.1159508E+00
         21   -1    0    0  503  502  0.00000000000E+00  0.00000000000E+00  0.11734765569E+03  0.11734765569E+03  0.00000000000E+00 0. -1.
         21   -1    0    0  501  503 -0.00000000000E+00 -0.00000000000E+00 -0.65596592866E+03  0.65596592866E+03  0.00000000000E+00 0. -1.
          6    2    1    2  501    0  0.62001112316E+02 -0.45913065210E+02 -0.55363115954E+03  0.58508398424E+03  0.17281105381E+03 0.  0.
         24    2    3    3    0    0 -0.87315094706E+01  0.29429515587E+02 -0.29260097126E+03  0.30430211613E+03  0.77731035339E+02 0.  0.
         -6    2    1    2    0  502 -0.62001112316E+02  0.45913065210E+02  0.15012886571E+02  0.18822960012E+03  0.17103464009E+03 0.  0.
        -24    2    5    5    0    0 -0.48650231365E+02  0.49334781423E+02  0.72709307500E+02  0.12872396045E+03  0.80513656773E+02 0.  0.
          5    1    3    3  501    0  0.70732621787E+02 -0.75342580798E+02 -0.26103018828E+03  0.28078186811E+03  0.47000000000E+01 0. -1.
        -13    1    4    4    0    0 -0.12296174950E+02  0.55380233773E+02 -0.18171119110E+03  0.19036050846E+03  0.00000000000E+00 0.  1.
         14    1    4    4    0    0  0.35646654797E+01 -0.25950718186E+02 -0.11088978016E+03  0.11394160767E+03  0.00000000000E+00 0. -1.
         -5    1    5    5    0  502 -0.13350880951E+02 -0.34217162123E+01 -0.57696420929E+02  0.59505639666E+02  0.47000000000E+01 0.  1.
         13    1    6    6    0    0 -0.20236064002E+01  0.58546536897E+02  0.43086981176E+02  0.72720560452E+02  0.00000000000E+00 0. -1.
        -14    1    6    6    0    0 -0.46626624965E+02 -0.92117554745E+01  0.29622326323E+02  0.56003399998E+02  0.00000000000E+00 0.  1.
</event>
<event>
12    1  0.8562501E-002  0.4524606E+03  0.7818608E-02  0.1027046E+00
         21   -1    0    0  503  502  0.00000000000E+00  0.00000000000E+00  0.70672781912E+03  0.70672781912E+03  0.00000000000E+00 0. -1.
         21   -1    0    0  501  503 -0.00000000000E+00 -0.00000000000E+00 -0.70283210392E+03  0.70283210392E+03  0.00000000000E+00 0.  1.
          6    2    1    2  501    0  0.37384798389E+03  0.18623585016E+03  0.54262222706E+03  0.70603536047E+03  0.17204924293E+03 0.  0.
         24    2    3    3    0    0  0.17169316107E+03  0.69822895500E+02  0.35102620933E+03  0.40412532021E+03  0.75789817933E+02 0.  0.
         -6    2    1    2    0  502 -0.37384798389E+03 -0.18623585016E+03 -0.53872651185E+03  0.70352456257E+03  0.17399554197E+03 0.  0.
        -24    2    5    5    0    0 -0.18433942352E+03 -0.25946329213E+02 -0.27125522452E+03  0.33860100273E+03  0.80106224210E+02 0.  0.
          5    1    3    3  501    0  0.20215482281E+03  0.11641295466E+03  0.19159601773E+03  0.30191004026E+03  0.47000000000E+01 0. -1.
        -11    1    4    4    0    0  0.77705863570E+02  0.69757101480E+02  0.15733026261E+03  0.18883078662E+03  0.00000000000E+00 0.  1.
         12    1    4    4    0    0  0.93987297505E+02  0.65794020811E-01  0.19369594671E+03  0.21529453359E+03  0.00000000000E+00 0. -1.
         -5    1    5    5    0  502 -0.18950856037E+03 -0.16028952095E+03 -0.26747128733E+03  0.36492355984E+03  0.47000000000E+01 0.  1.
         13    1    6    6    0    0 -0.68401583570E+02 -0.23258304023E+02 -0.47161629616E+02  0.86278297670E+02  0.00000000000E+00 0. -1.
        -14    1    6    6    0    0 -0.11593783995E+03 -0.26880251901E+01 -0.22409359490E+03  0.25232270506E+03  0.00000000000E+00 0.  1.
</event>
<event>
12    1  0.8562501E-002  0.2391441E+03  0.7818608E-02  0.1120447E+00
         21   -1    0    0  501  502  0.00000000000E+00  0.00000000000E+00  0.39522291251E+02  0.39522291251E+02  0.00000000000E+00 0.  1.
         21   -1    0    0  502  503 -0.00000000000E+00 -0.00000000000E+00 -0.18071651817E+04  0.18071651817E+04  0.00000000000E+00 0. -1.
         -6    2    1    2    0  503  0.35306288763E+01 -0.16541969125E+03 -0.12984466047E+04  0.13202853803E+04  0.17266661687E+03 0.  0.
        -24    2    3    3    0    0  0.64582141459E+02 -0.11534339065E+03 -0.98252337903E+03  0.99460993206E+03  0.80135983444E+02 0.  0.
          6    2    1    2  501    0 -0.35306288763E+01  0.16541969125E+03 -0.46919628570E+03  0.52640209260E+03  0.17198217637E+03 0.  0.
         24    2    5    5    0    0 -0.38566642052E+02  0.17846997932E+03 -0.41591467793E+03  0.46114221240E+03  0.79549992706E+02 0.  0.
          5    1    5    5  501    0  0.35036013176E+02 -0.13050288071E+02 -0.53281607768E+02  0.65259880205E+02  0.47000000000E+01 0. -1.
        -13    1    6    6    0    0 -0.15168123005E+02  0.85434321505E+02 -0.10748763330E+03  0.13814009758E+03  0.00000000000E+00 0.  1.
         14    1    6    6    0    0 -0.23398519048E+02  0.93035657813E+02 -0.30842704463E+03  0.32300211481E+03  0.00000000000E+00 0. -1.
         -5    1    3    3    0  503 -0.61051512582E+02 -0.50076300595E+02 -0.31592322569E+03  0.32567544826E+03  0.47000000000E+01 0.  1.
         11    1    4    4    0    0 -0.15750932545E+02 -0.33671217645E+02 -0.33221161040E+03  0.33428490373E+03  0.00000000000E+00 0. -1.
        -12    1    4    4    0    0  0.80333074004E+02 -0.81672173006E+02 -0.65031176863E+03  0.66032502833E+03  0.00000000000E+00 0.  1.
</event>
<event>
12    1  0.8562501E-002  0.1858761E+03  0.7818608E-02  0.1162307E+00
         21   -1    0    0  503  502  0.00000000000E+00  0.00000000000E+00  0.95578257725E+02  0.95578257725E+02  0.00000000000E+00 0.  1.
         21   -1    0    0  501  503 -0.00000000000E+00 -0.00000000000E+00 -0.88282978784E+03  0.88282978784E+03  0.00000000000E+00 0.  1.
          6    2    1    2  501    0  0.46013031449E+01  0.67274992444E+02 -0.76991749054E+03  0.79203715577E+03  0.17321321334E+03 0.  0.
         24    2    3    3    0    0 -0.30104860673E+02  0.22522834227E+02 -0.67887122083E+03  0.68471154512E+03  0.80933212297E+02 0.  0.
         -6    2    1    2    0  502 -0.46013031449E+01 -0.67274992444E+02 -0.17334039573E+02  0.18637088980E+03  0.17287724847E+03 0.  0.
        -24    2    5    5    0    0 -0.16263000206E+02 -0.10950301344E+03  0.56153951625E+01  0.13669224761E+03  0.79986516146E+02 0.  0.
          5    1    3    3  501    0  0.34706163818E+02  0.44752158217E+02 -0.91046269709E+02  0.10732561064E+03  0.47000000000E+01 0. -1.
        -13    1    4    4    0    0 -0.23608341980E+01  0.43344167972E+02 -0.20359318477E+03  0.20816934289E+03  0.00000000000E+00 0.  1.
         14    1    4    4    0    0 -0.27744026475E+02 -0.20821333745E+02 -0.47527803606E+03  0.47654220223E+03  0.00000000000E+00 0. -1.
         -5    1    5    5    0  502  0.11661697061E+02  0.42228020993E+02 -0.22949434735E+02  0.49678642192E+02  0.47000000000E+01 0.  1.
         13    1    6    6    0    0 -0.34381914490E+02 -0.60803705844E+02 -0.27507127785E+02  0.75072290277E+02  0.00000000000E+00 0. -1.
        -14    1    6    6    0    0  0.18118914284E+02 -0.48699307593E+02  0.33122522947E+02  0.61619957330E+02  0.00000000000E+00 0.  1.
</event>
<event>
12    1  0.8562501E-002  0.2335597E+03  0.7818608E-02  0.1125708E+00
         21   -1    0    0  503  502  0.00000000000E+00  0.00000000000E+00  0.46376412119E+03  0.46376412119E+03  0.00000000000E+00 0. -1.
         21   -1    0    0  501  503 -0.00000000000E+00 -0.00000000000E+00 -0.21662349001E+03  0.21662349001E+03  0.00000000000E+00 0. -1.
          6    2    1    2  501    0 -0.12626225927E+03 -0.93847950051E+02 -0.11266703009E+03  0.25142175975E+03  0.16052864468E+03 0.  0.
         24    2    3    3    0    0 -0.15193193931E+03 -0.63428253363E+02 -0.80850903486E+02  0.20024904894E+03  0.80351449904E+02 0.  0.
         -6    2    1    2    0  502  0.12626225927E+03  0.93847950051E+02  0.35980766126E+03  0.42896585145E+03  0.17262836604E+03 0.  0.
        -24    2    5    5    0    0  0.68564313695E+02  0.12858197968E+03  0.26089626878E+03  0.30921168951E+03  0.79439381035E+02 0.  0.
          5    1    3    3  501    0  0.25669680037E+02 -0.30419696688E+02 -0.31816126601E+02  0.51172710810E+02  0.47000000000E+01 0. -1.
        -13    1    4    4    0    0 -0.38157633167E+02  0.19012736822E+02 -0.16556908284E+02  0.45734235998E+02  0.00000000000E+00 0.  1.
         14    1    4    4    0    0 -0.11377430614E+03 -0.82440990185E+02 -0.64293995202E+02  0.15451481294E+03  0.00000000000E+00 0. -1.
         -5    1    5    5    0  502  0.57697945575E+02 -0.34734029627E+02  0.98911392488E+02  0.11975416194E+03  0.47000000000E+01 0.  1.
         13    1    6    6    0    0 -0.22556830374E+01  0.68447037249E+02  0.76120138550E+02  0.10239316631E+03  0.00000000000E+00 0. -1.
        -14    1    6    6    0    0  0.70819996732E+02  0.60134942429E+02  0.18477613023E+03  0.20681852320E+03  0.00000000000E+00 0.  1.
</event>
<event>
12    1  0.8562501E-002  0.2526416E+03  0.7818608E-02  0.1112193E+00
         21   -1    0    0  503  502  0.00000000000E+00  0.00000000000E+00  0.78444049981E+03  0.78444049981E+03  0.00000000000E+00 0. -1.
         21   -1    0    0  501  503 -0.00000000000E+00 -0.00000000000E+00 -0.13264687623E+03  0.13264687623E+03  0.00000000000E+00 0. -1.
          6    2    1    2  501    0  0.15384966145E+03 -0.95755829986E+02  0.36342466657E+02  0.25179953440E+03  0.17100682249E+03 0.  0.
         24    2    3    3    0    0  0.32875434093E+02 -0.20867750698E+02 -0.30659757866E+02  0.94464299329E+02  0.80419064340E+02 0.  0.
         -6    2    1    2    0  502 -0.15384966145E+03  0.95755829986E+02  0.61545115693E+03  0.66528784164E+03  0.17603661086E+03 0.  0.
        -24    2    5    5    0    0 -0.70627403290E+02  0.67911842510E+02  0.17393148980E+03  0.21510683543E+03  0.80115785304E+02 0.  0.
          5    1    3    3  501    0  0.12097422735E+03 -0.74888079288E+02  0.67002224523E+02  0.15733523507E+03  0.47000000000E+01 0. -1.
        -13    1    4    4    0    0  0.41168843465E+02  0.15015801397E+02  0.38533876531E+01  0.43990869056E+02  0.00000000000E+00 0.  1.
         14    1    4    4    0    0 -0.82934093722E+01 -0.35883552095E+02 -0.34513145519E+02  0.50473430274E+02  0.00000000000E+00 0. -1.
         -5    1    5    5    0  502 -0.83222258158E+02  0.27843987475E+02  0.44151966713E+03  0.45018100621E+03  0.47000000000E+01 0.  1.
         13    1    6    6    0    0  0.23934999622E+01  0.44783014564E+02  0.95352251914E+02  0.10537219358E+03  0.00000000000E+00 0. -1.
        -14    1    6    6    0    0 -0.73020903252E+02  0.23128827947E+02  0.78579237890E+02  0.10973464185E+03  0.00000000000E+00 0.  1.
</event>
<event>
12    1  0.8562501E-002  0.3017655E+03  0.7818608E-02  0.1084436E+00
         21   -1    0    0  501  502  0.00000000000E+00  0.00000000000E+00  0.61082772362E+03  0.61082772362E+03  0.00000000000E+00 0. -1.
         21   -1    0    0  502  503 -0.00000000000E+00 -0.00000000000E+00 -0.16012385789E+03  0.16012385789E+03  0.00000000000E+00 0.  1.
         -6    2    1    2    0  503  0.22309985658E+03 -0.10616312842E+03  0.12298006928E+03  0.32586273372E+03  0.17325780774E+03 0.  0.
        -24    2    3    3    0    0  0.68638328902E+02 -0.47838378390E+02 -0.60022884955E+01  0.11629489597E+03  0.80552744963E+02 0.  0.
          6    2    1    2  501    0 -0.22309985658E+03  0.10616312842E+03  0.32772379646E+03  0.44508884780E+03  0.17221219420E+03 0.  0.
         24    2    5    5    0    0 -0.14639888667E+03 -0.14076438096E+01  0.21262134220E+03  0.26980286775E+03  0.78429183427E+02 0.  0.
          5    1    5    5  501    0 -0.76700969913E+02  0.10757077223E+03  0.11510245426E+03  0.17528598005E+03  0.47000000000E+01 0. -1.
        -13    1    6    6    0    0 -0.76496385307E+02  0.28363074908E+02  0.67072666191E+02  0.10561677676E+03  0.00000000000E+00 0.  1.
         14    1    6    6    0    0 -0.69902501361E+02 -0.29770718717E+02  0.14554867600E+03  0.16418609099E+03  0.00000000000E+00 0. -1.
         -5    1    3    3    0  503  0.15446152768E+03 -0.58324750033E+02  0.12898235777E+03  0.20956783774E+03  0.47000000000E+01 0.  1.
         11    1    4    4    0    0  0.22785547170E+02 -0.11322394678E+02  0.36071094119E+02  0.44141835168E+02  0.00000000000E+00 0. -1.
        -12    1    4    4    0    0  0.45852781733E+02 -0.36515983712E+02 -0.42073382615E+02  0.72153060806E+02  0.00000000000E+00 0.  1.
</event>
<event>
12    1  0.8562501E-002  0.2203862E+03  0.7818608E-02  0.1134091E+00
         21   -1    0    0  501  502  0.00000000000E+00  0.00000000000E+00  0.23357044270E+03  0.23357044270E+03  0.00000000000E+00 0.  1.
         21   -1    0    0  502  503 -0.00000000000E+00 -0.00000000000E+00 -0.39175808173E+03  0.39175808173E+03  0.00000000000E+00 0. -1.
         -6    2    1    2    0  503  0.87051674921E+02 -0.10332182961E+03 -0.29445651544E+03  0.36621601929E+03  0.17075168730E+03 0.  0.
        -24    2    3    3    0    0  0.25561381647E+02 -0.17944538095E+02 -0.22300222368E+03  0.23894409039E+03  0.79930569171E+02 0.  0.
          6    2    1    2  501    0 -0.87051674921E+02  0.10332182961E+03  0.13626887640E+03  0.25911250514E+03  0.17411688334E+03 0.  0.
         24    2    5    5    0    0 -0.12375758289E+03  0.89291354201E+02  0.13790546051E+03  0.21950257800E+03  0.76645811707E+02 0.  0.
          5    1    5    5  501    0  0.36705907973E+02  0.14030475409E+02 -0.16365841068E+01  0.39609927138E+02  0.47000000000E+01 0. -1.
        -11    1    6    6    0    0 -0.74909566078E+02  0.15465334695E+02  0.92452019468E+02  0.11999164792E+03  0.00000000000E+00 0.  1.
         12    1    6    6    0    0 -0.48848016817E+02  0.73826019506E+02  0.45453441043E+02  0.99510930081E+02  0.00000000000E+00 0. -1.
         -5    1    3    3    0  503  0.61490293275E+02 -0.85377291516E+02 -0.71454291760E+02  0.12727192889E+03  0.47000000000E+01 0.  1.
         11    1    4    4    0    0  0.78601128317E+01 -0.27427675362E+02 -0.19745786455E+02  0.34698052282E+02  0.00000000000E+00 0. -1.
        -12    1    4    4    0    0  0.17701268815E+02  0.94831372671E+01 -0.20325643723E+03  0.20424603811E+03  0.00000000000E+00 0.  1.
</event>
<event>
12    1  0.8562501E-002  0.2165588E+03  0.7818608E-02  0.1136755E+00
         21   -1    0    0  501  502  0.00000000000E+00  0.00000000000E+00  0.63156811752E+02  0.63156811752E+02  0.00000000000E+00 0. -1.
         21   -1    0    0  502  503 -0.00000000000E+00 -0.00000000000E+00 -0.14299315015E+04  0.14299315015E+04  0.00000000000E+00 0. -1.
         -6    2    1    2    0  503 -0.53878298231E+02 -0.11804900050E+03 -0.12040652288E+04  0.12233849640E+04  0.17337605830E+03 0.  0.
        -24    2    3    3    0    0  0.15961873439E+02 -0.51018023186E+02 -0.32897248349E+03  0.34294177773E+03  0.80799430224E+02 0.  0.
          6    2    1    2  501    0  0.53878298231E+02  0.11804900050E+03 -0.16270946101E+03  0.26970334924E+03  0.17154326086E+03 0.  0.
         24    2    5    5    0    0  0.10296894406E+03  0.82466612333E+02 -0.11242303820E+03  0.19079319668E+03  0.79748095854E+02 0.  0.
          5    1    5    5  501    0 -0.49090645834E+02  0.35582388168E+02 -0.50286422817E+02  0.78910152552E+02  0.47000000000E+01 0. -1.
        -13    1    6    6    0    0 -0.74133611966E+01  0.31436102439E+02 -0.19297112340E+02  0.37623995076E+02  0.00000000000E+00 0.  1.
         14    1    6    6    0    0  0.11038230526E+03  0.51030509893E+02 -0.93125925856E+02  0.15316920161E+03  0.00000000000E+00 0. -1.
         -5    1    3    3    0  503 -0.69840171670E+02 -0.67030977315E+02 -0.87509274527E+03  0.88044318631E+03  0.47000000000E+01 0.  1.
         11    1    4    4    0    0 -0.96601560996E+01 -0.36320015871E+02 -0.29717216448E+03  0.29953924202E+03  0.00000000000E+00 0. -1.
        -12    1    4    4    0    0  0.25622029539E+02 -0.14698007314E+02 -0.31800319010E+02  0.43402535707E+02  0.00000000000E+00 0.  1.
</event>
<event>
12    1  0.8562501E-002  0.2393161E+03  0.7818608E-02  0.1120331E+00
         21   -1    0    0  503  502  0.00000000000E+00  0.00000000000E+00  0.76521132007E+03  0.76521132007E+03  0.00000000000E+00 0.  1.
         21   -1    0    0  501  503 -0.00000000000E+00 -0.00000000000E+00 -0.83309072052E+02  0.83309072052E+02  0.00000000000E+00 0. -1.
          6    2    1    2  501    0 -0.10128887352E+03 -0.13173814814E+03  0.20481998009E+03  0.31499749966E+03  0.17221447378E+03 0.  0.
         24    2    3    3    0    0 -0.70128088753E+02 -0.10741183262E+03  0.22438070771E+03  0.27064125772E+03  0.80279124109E+02 0.  0.
         -6    2    1    2    0  502  0.10128887352E+03  0.13173814814E+03  0.47708226793E+03  0.53352289246E+03  0.17153661658E+03 0.  0.
        -24    2    5    5    0    0  0.10076594698E+03  0.11520258853E+03  0.23874403069E+03  0.29456493901E+03  0.79651607822E+02 0.  0.
          5    1    3    3  501    0 -0.31160784769E+02 -0.24326315514E+02 -0.19560727627E+02  0.44356241942E+02  0.47000000000E+01 0. -1.
        -11    1    4    4    0    0 -0.77173284982E+02 -0.78780816431E+02  0.21137624870E+03  0.23841571145E+03  0.00000000000E+00 0.  1.
         12    1    4    4    0    0  0.70451962284E+01 -0.28631016194E+02  0.13004459011E+02  0.32225546269E+02  0.00000000000E+00 0. -1.
         -5    1    5    5    0  502  0.52292653870E+00  0.16535559605E+02  0.23833823724E+03  0.23895795344E+03  0.47000000000E+01 0.  1.
         13    1    6    6    0    0  0.90257117655E+02  0.44381895459E+02  0.14881123808E+03  0.17961315239E+03  0.00000000000E+00 0. -1.
        -14    1    6    6    0    0  0.10508829329E+02  0.70820693075E+02  0.89932792616E+02  0.11495178663E+03  0.00000000000E+00 0.  1.
</event>
<event>
12    1  0.8562501E-002  0.1934299E+03  0.7818608E-02  0.1155862E+00
         21   -1    0    0  503  502  0.00000000000E+00  0.00000000000E+00  0.10125146385E+03  0.10125146385E+03  0.00000000000E+00 0.  1.
         21   -1    0    0  501  503 -0.00000000000E+00 -0.00000000000E+00 -0.49660707018E+03  0.49660707018E+03  0.00000000000E+00 0.  1.
          6    2    1    2  501    0 -0.53566098363E+02 -0.65853787315E+02 -0.44917711763E+02  0.19857673170E+03  0.17380756412E+03 0.  0.
         24    2    3    3    0    0 -0.76948031699E+01 -0.85163720690E+02 -0.76240219949E+02  0.13958318316E+03  0.79742238285E+02 0.  0.
         -6    2    1    2    0  502  0.53566098363E+02  0.65853787315E+02 -0.35043789456E+03  0.39928180233E+03  0.17150274497E+03 0.  0.
        -24    2    5    5    0    0  0.30061224073E+02 -0.28560777699E+02 -0.20593554242E+03  0.22501301863E+03  0.80635077369E+02 0.  0.
          5    1    3    3  501    0 -0.45871295193E+02  0.19309933374E+02  0.31322508185E+02  0.58993548534E+02  0.47000000000E+01 0. -1.
        -13    1    4    4    0    0 -0.17142593179E+02 -0.33417415781E+02  0.97294824976E+01  0.38797616010E+02  0.00000000000E+00 0.  1.
         14    1    4    4    0    0  0.94477900089E+01 -0.51746304908E+02 -0.85969702446E+02  0.10078556715E+03  0.00000000000E+00 0. -1.
         -5    1    5    5    0  502  0.23504874290E+02  0.94414565014E+02 -0.14450235213E+03  0.17426878371E+03  0.47000000000E+01 0.  1.
         11    1    6    6    0    0 -0.25595588865E+02 -0.19391809075E+02 -0.99513974182E+02  0.10456676090E+03  0.00000000000E+00 0. -1.
        -12    1    6    6    0    0  0.55656812938E+02 -0.91689686240E+01 -0.10642156824E+03  0.12044625772E+03  0.00000000000E+00 0.  1.
</event>
<event>
12    1  0.8562501E-002  0.1829047E+03  0.7818608E-02  0.1166964E+00
         21   -1    0    0  501  502  0.00000000000E+00  0.00000000000E+00  0.10972662069E+03  0.10972662069E+03  0.00000000000E+00 0. -1.
         21   -1    0    0  502  503 -0.00000000000E+00 -0.00000000000E+00 -0.51648772804E+03  0.51648772804E+03  0.00000000000E+00 0. -1.
         -6    2    1    2    0  503  0.14868975508E+02  0.62274966311E+02 -0.40734775258E+03  0.44330872013E+03  0.16276108856E+03 0.  0.
        -24    2    3    3    0    0 -0.16268596860E+02  0.51705115042E+01 -0.34008986365E+03  0.34962744775E+03  0.79289566960E+02 0.  0.
          6    2    1    2  501    0 -0.14868975508E+02 -0.62274966311E+02  0.58664523307E+00  0.18290562860E+03  0.17133262083E+03 0.  0.
         24    2    5    5    0    0 -0.70035309775E+02 -0.55091535538E+02  0.24105867019E+02  0.12232370137E+03  0.80261903718E+02 0.  0.
          5    1    5    5  501    0  0.55166334267E+02 -0.71834307730E+01 -0.23519221786E+02  0.60581927235E+02  0.47000000000E+01 0. -1.
        -11    1    6    6    0    0 -0.47801502344E+02  0.30173375145E+01 -0.13323939401E+02  0.49715342835E+02  0.00000000000E+00 0.  1.
         12    1    6    6    0    0 -0.22233807431E+02 -0.58108873053E+02  0.37429806419E+02  0.72608358533E+02  0.00000000000E+00 0. -1.
         -5    1    3    3    0  503  0.31137572367E+02  0.57104454807E+02 -0.67257888936E+02  0.93681272386E+02  0.47000000000E+01 0.  1.
         11    1    4    4    0    0  0.13808634472E+02  0.96362012301E+01 -0.13384131658E+02  0.21509759189E+02  0.00000000000E+00 0. -1.
        -12    1    4    4    0    0 -0.30077231331E+02 -0.44656897259E+01 -0.32670573199E+03  0.32811768856E+03  0.00000000000E+00 0.  1.
</event>
<event>
12    1  0.8562501E-002  0.2036471E+03  0.7818608E-02  0.1146934E+00
         21   -1    0    0  501  502  0.00000000000E+00  0.00000000000E+00  0.13654020514E+03  0.13654020514E+03  0.00000000000E+00 0. -1.
         21   -1    0    0  502  503 -0.00000000000E+00 -0.00000000000E+00 -0.32075888208E+03  0.32075888208E+03  0.00000000000E+00 0. -1.
         -6    2    1    2    0  503 -0.10695977363E+03  0.22592565499E+02 -0.37106596372E+02  0.20700008412E+03  0.17181768868E+03 0.  0.
        -24    2    3    3    0    0 -0.50447659842E+02 -0.25071201609E+01  0.41243721266E+02  0.10707773678E+03  0.84931414298E+02 0.  0.
          6    2    1    2  501    0  0.10695977363E+03 -0.22592565499E+02 -0.14711208057E+03  0.25029900309E+03  0.17046058052E+03 0.  0.
         24    2    5    5    0    0  0.75139630011E+02  0.51568560633E+02 -0.84328205854E+02  0.14794520935E+03  0.80444131073E+02 0.  0.
          5    1    5    5  501    0  0.31820143614E+02 -0.74161126132E+02 -0.62783874712E+02  0.10235379374E+03  0.47000000000E+01 0. -1.
        -11    1    6    6    0    0  0.68317068880E+02  0.84314849622E+01 -0.77643502229E+02  0.10376331374E+03  0.00000000000E+00 0.  1.
         12    1    6    6    0    0  0.68225611319E+01  0.43137075671E+02 -0.66847036249E+01  0.44181895618E+02  0.00000000000E+00 0. -1.
         -5    1    3    3    0  503 -0.56512113783E+02  0.25099685660E+02 -0.78350317638E+02  0.99922347343E+02  0.47000000000E+01 0.  1.
         13    1    4    4    0    0 -0.77299873824E+01  0.14502796169E+02 -0.22881405569E+02  0.28171661692E+02  0.00000000000E+00 0. -1.
        -14    1    4    4    0    0 -0.42717672459E+02 -0.17009916330E+02  0.64125126835E+02  0.78906075087E+02  0.00000000000E+00 0.  1.
</event>
<event>
12    1  0.8562501E-002  0.1834012E+03  0.7818608E-02  0.1164754E+00
         21   -1    0    0  501  502  0.00000000000E+00  0.00000000000E+00  0.16393072341E+02  0.16393072341E+02  0.00000000000E+00 0.  1.
         21   -1    0    0  502  503 -0.00000000000E+00 -0.00000000000E+00 -0.21093340901E+04  0.21093340901E+04  0.00000000000E+00 0.  1.
         -6    2    1    2    0  503  0.35584337772E+02 -0.55381262868E+02 -0.12336050615E+04  0.12470381944E+04  0.17026297633E+03 0.  0.
        -24    2    3    3    0    0 -0.41217014261E+02 -0.81348363791E+01 -0.66797656813E+03  0.67424821978E+03  0.81565608415E+02 0.  0.
          6    2    1    2  501    0 -0.35584337772E+02  0.55381262868E+02 -0.85933595631E+03  0.87868896811E+03  0.17118027779E+03 0.  0.
         24    2    5    5    0    0 -0.86121463112E+02  0.52817240309E+02 -0.62097601805E+03  0.63497166175E+03  0.85855861542E+02 0.  0.
          5    1    5    5  501    0  0.50537125340E+02  0.25640225589E+01 -0.23835993826E+03  0.24371730636E+03  0.47000000000E+01 0. -1.
        -11    1    6    6    0    0 -0.54043933413E+02  0.16746669715E+02 -0.13194635295E+03  0.14356544759E+03  0.00000000000E+00 0.  1.
         12    1    6    6    0    0 -0.32077529699E+02  0.36070570595E+02 -0.48902966510E+03  0.49140621416E+03  0.00000000000E+00 0. -1.
         -5    1    3    3    0  503  0.76801352033E+02 -0.47246426489E+02 -0.56562849336E+03  0.57278997459E+03  0.47000000000E+01 0.  1.
         13    1    4    4    0    0 -0.41193604680E+02  0.16505649772E+02 -0.17110813733E+03  0.17676918340E+03  0.00000000000E+00 0. -1.
        -14    1    4    4    0    0 -0.23409581007E-01 -0.24640486151E+02 -0.49686843080E+03  0.49747903638E+03  0.00000000000E+00 0.  1.
</event>
<event>
12    1  0.8562501E-002  0.3391095E+03  0.7818608E-02  0.1067192E+00
         21   -1    0    0  503  502  0.00000000000E+00  0.00000000000E+00  0.38350664190E+03  0.38350664190E+03  0.00000000000E+00 0.  1.
         21   -1    0    0  501  503 -0.00000000000E+00 -0.00000000000E+00 -0.56441076356E+03  0.56441076356E+03  0.00000000000E+00 0. -1.
          6    2    1    2  501    0 -0.13115458302E+03  0.26012785708E+03 -0.41503451923E+03  0.53595607214E+03  0.17357198053E+03 0.  0.
         24    2    3    3    0    0 -0.16240715137E+03  0.24011205590E+03 -0.37667215129E+03  0.48237327080E+03  0.82293259847E+02 0.  0.
         -6    2    1    2    0  502  0.13115458302E+03 -0.26012785708E+03  0.23413039758E+03  0.41196133333E+03  0.17328320867E+03 0.  0.
        -24    2    5    5    0    0  0.29355218794E+02 -0.36219561439E+02  0.53953489920E+02  0.10702881051E+03  0.79816049164E+02 0.  0.
          5    1    3    3  501    0  0.31252568346E+02  0.20015801177E+02 -0.38362367940E+02  0.53582801335E+02  0.47000000000E+01 0. -1.
        -11    1    4    4    0    0  0.24268443812E+01  0.52615672476E+01 -0.38267476644E+02  0.38703661742E+02  0.00000000000E+00 0.  1.
         12    1    4    4    0    0 -0.16483399575E+03  0.23485048866E+03 -0.33840467465E+03  0.44366960906E+03  0.00000000000E+00 0. -1.
         -5    1    5    5    0  502  0.10179936423E+03 -0.22390829564E+03  0.18017690766E+03  0.30493252281E+03  0.47000000000E+01 0.  1.
         11    1    6    6    0    0  0.33762211832E+02 -0.35230460961E+02  0.72804342333E+02  0.87644421328E+02  0.00000000000E+00 0. -1.
        -12    1    6    6    0    0 -0.44069930380E+01 -0.98910047830E+00 -0.18850852413E+02  0.19384389186E+02  0.00000000000E+00 0.  1.
</event>
<event>
12    1  0.8562501E-002  0.1995003E+03  0.7818608E-02  0.1150491E+00
         21   -1    0    0  503  502  0.00000000000E+00  0.00000000000E+00  0.51131924943E+03  0.51131924943E+03  0.00000000000E+00 0. -1.
         21   -1    0    0  501  503 -0.00000000000E+00 -0.00000000000E+00 -0.12400108963E+03  0.12400108963E+03  0.00000000000E+00 0.  1.
          6    2    1    2  501    0  0.42452331112E+02  0.89278886095E+02 -0.95054987392E+00  0.19950259013E+03  0.17328433283E+03 0.  0.
         24    2    3    3    0    0 -0.28412575902E+02  0.73910610143E+00 -0.11369718170E+02  0.85521114639E+02  0.79854679328E+02 0.  0.
         -6    2    1    2    0  502 -0.42452331112E+02 -0.89278886095E+02  0.38826870968E+03  0.43581774893E+03  0.17149810332E+03 0.  0.
        -24    2    5    5    0    0  0.32851025768E+02 -0.58474213484E+02  0.13367475075E+03  0.16849828212E+03  0.77616419345E+02 0.  0.
          5    1    3    3  501    0  0.70864907013E+02  0.88539779993E+02  0.10419168297E+02  0.11398147549E+03  0.47000000000E+01 0. -1.
        -13    1    4    4    0    0 -0.10319534521E+02 -0.94793437774E+01 -0.44366494051E+02  0.46526729366E+02  0.00000000000E+00 0.  1.
         14    1    4    4    0    0 -0.18093041381E+02  0.10218449879E+02  0.32996775880E+02  0.38994385273E+02  0.00000000000E+00 0. -1.
         -5    1    5    5    0  502 -0.75303356880E+02 -0.30804672610E+02  0.25459395892E+03  0.26731946680E+03  0.47000000000E+01 0.  1.
         13    1    6    6    0    0  0.14459048759E+02 -0.18923743833E+02  0.12064913374E+03  0.12297717530E+03  0.00000000000E+00 0. -1.
        -14    1    6    6    0    0  0.18391977009E+02 -0.39550469652E+02  0.13025617014E+02  0.45521106825E+02  0.00000000000E+00 0.  1.
</event>
<event>
12    1  0.8562501E-002  0.1888725E+03  0.7818608E-02  0.1159773E+00
         21   -1    0    0  503  502  0.00000000000E+00  0.00000000000E+00  0.41736096617E+02  0.41736096617E+02  0.00000000000E+00 0.  1.
         21   -1    0    0  501  503 -0.00000000000E+00 -0.00000000000E+00 -0.15160119000E+04  0.15160119000E+04  0.00000000000E+00 0.  1.
          6    2    1    2  501    0 -0.93713875604E+01 -0.75488566154E+02 -0.12551812394E+04  0.12693119267E+04  0.17287705774E+03 0.  0.
         24    2    3    3    0    0 -0.50355775015E+02 -0.45179420125E+02 -0.11164014278E+04  0.11213920482E+04  0.81185551514E+02 0.  0.
         -6    2    1    2    0  502  0.93713875604E+01  0.75488566154E+02 -0.21909456400E+03  0.28843606989E+03  0.17148350334E+03 0.  0.
        -24    2    5    5    0    0  0.62526723038E+02  0.84864775899E+02 -0.13683596711E+03  0.18993749244E+03  0.78997138279E+02 0.  0.
          5    1    3    3  501    0  0.40984387454E+02 -0.30309146029E+02 -0.13877981159E+03  0.14791987849E+03  0.47000000000E+01 0. -1.
        -11    1    4    4    0    0  0.13780692940E+02 -0.17236744609E+02 -0.58362316376E+03  0.58404024702E+03  0.00000000000E+00 0.  1.
         12    1    4    4    0    0 -0.64136467954E+02 -0.27942675517E+02 -0.53277826401E+03  0.53735180118E+03  0.00000000000E+00 0. -1.
         -5    1    5    5    0  502 -0.53155335478E+02 -0.93762097452E+01 -0.82258596884E+02  0.98498577453E+02  0.47000000000E+01 0.  1.
         11    1    6    6    0    0  0.18447619673E+02  0.71533929208E+02 -0.43170071864E+02  0.85563267845E+02  0.00000000000E+00 0. -1.
        -12    1    6    6    0    0  0.44079103365E+02  0.13330846691E+02 -0.93665895249E+02  0.10437422459E+03  0.00000000000E+00 0.  1.
</event>
<event>
12    1  0.8562501E-002  0.1767289E+03  0.7818608E-02  0.1171333E+00
         21   -1    0    0  503  502  0.00000000000E+00  0.00000000000E+00  0.72712156654E+02  0.72712156654E+02  0.00000000000E+00 0. -1.
         21   -1    0    0  501  503 -0.00000000000E+00 -0.00000000000E+00 -0.89948669431E+03  0.89948669431E+03  0.00000000000E+00 0. -1.
          6    2    1    2  501    0  0.40168009736E+02  0.35845205930E+01 -0.76666060726E+03  0.78676655199E+03  0.17206627448E+03 0.  0.
         24    2    3    3    0    0 -0.46962354579E+02 -0.31310055008E+01 -0.42099563678E+03  0.43019515593E+03  0.74935172312E+02 0.  0.
         -6    2    1    2    0  502 -0.40168009736E+02 -0.35845205930E+01 -0.60113930394E+02  0.18543229897E+03  0.17071946310E+03 0.  0.
        -24    2    5    5    0    0 -0.25337320557E+01 -0.36102462516E+02 -0.78388446826E+02  0.13223640294E+03  0.10015942327E+03 0.  0.
          5    1    3    3  501    0  0.87130364315E+02  0.67155260938E+01 -0.34566497048E+03  0.35657139606E+03  0.47000000000E+01 0. -1.
        -13    1    4    4    0    0  0.20189958031E+02  0.64429201574E+00 -0.72126551586E+02  0.74901862201E+02  0.00000000000E+00 0.  1.
         14    1    4    4    0    0 -0.67152312610E+02 -0.37752975165E+01 -0.34886908520E+03  0.35529329373E+03  0.00000000000E+00 0. -1.
         -5    1    5    5    0  502 -0.37634277680E+02  0.32517941923E+02  0.18274516431E+02  0.53195896028E+02  0.47000000000E+01 0.  1.
         11    1    6    6    0    0 -0.59902594358E+01 -0.46288936633E+02  0.60947232532E+01  0.47071164360E+02  0.00000000000E+00 0. -1.
        -12    1    6    6    0    0  0.34565273801E+01  0.10186474117E+02 -0.84483170079E+02  0.85165238584E+02  0.00000000000E+00 0.  1.
</event>
<event>
12    1  0.8562501E-002  0.1910155E+03  0.7818608E-02  0.1157654E+00
         21   -1    0    0  503  502  0.00000000000E+00  0.00000000000E+00  0.40023720187E+03  0.40023720187E+03  0.00000000000E+00 0.  1.
         21   -1    0    0  501  503 -0.00000000000E+00 -0.00000000000E+00 -0.10321686316E+03  0.10321686316E+03  0.00000000000E+00 0.  1.
          6    2    1    2  501    0 -0.14103302995E+02 -0.81312370600E+02  0.61855123080E+02  0.20078092098E+03  0.17226815495E+03 0.  0.
         24    2    3    3    0    0  0.34946803592E+02 -0.99688567902E+02  0.64831455736E+02  0.14810696024E+03  0.81076904030E+02 0.  0.
         -6    2    1    2    0  502  0.14103302995E+02  0.81312370600E+02  0.23516521562E+03  0.30267314405E+03  0.17174908653E+03 0.  0.
        -24    2    5    5    0    0  0.52808154503E+02 -0.37457759668E+01  0.97851366320E+02  0.13651016069E+03  0.79103742405E+02 0.  0.
          5    1    3    3  501    0 -0.49050106587E+02  0.18376197303E+02 -0.29763326554E+01  0.52673960735E+02  0.47000000000E+01 0. -1.
        -13    1    4    4    0    0  0.23910761149E+02 -0.10190050284E+03  0.26239490424E+02  0.10790712597E+03  0.00000000000E+00 0.  1.
         14    1    4    4    0    0  0.11036042443E+02  0.22119349329E+01  0.38591965312E+02  0.40199834273E+02  0.00000000000E+00 0. -1.
         -5    1    5    5    0  502 -0.38704851508E+02  0.85058146566E+02  0.13731384930E+03  0.16616298336E+03  0.47000000000E+01 0.  1.
         13    1    6    6    0    0 -0.18352112298E+02 -0.91892443892E+01  0.86506471140E+01  0.22272762148E+02  0.00000000000E+00 0. -1.
        -14    1    6    6    0    0  0.71160266801E+02  0.54434684224E+01  0.89200719206E+02  0.11423739855E+03  0.00000000000E+00 0.  1.
</event>
<event>
12    1  0.8562501E-002  0.1860281E+03  0.7818608E-02  0.1163427E+00
         21   -1    0    0  503  502  0.00000000000E+00  0.00000000000E+00  0.13035850071E+04  0.13035850071E+04  0.00000000000E+00 0. -1.
         21   -1    0    0  501  503 -0.00000000000E+00 -0.00000000000E+00 -0.62456719298E+02  0.62456719298E+02  0.00000000000E+00 0. -1.
          6    2    1    2  501    0 -0.35973471100E+02  0.59919529459E+02  0.10088862676E+03  0.21162461900E+03  0.17240076487E+03 0.  0.
         24    2    3    3    0    0 -0.56089093901E+02  0.20355631803E+02  0.12855886155E+03  0.15911107625E+03  0.72309166097E+02 0.  0.
         -6    2    1    2    0  502  0.35973471100E+02 -0.59919529459E+02  0.11402396610E+04  0.11544171074E+04  0.16627667482E+03 0.  0.
        -24    2    5    5    0    0  0.76627980309E+02 -0.73694245187E+02  0.95429554100E+03  0.96352489254E+03  0.79984684973E+02 0.  0.
          5    1    3    3  501    0  0.20115622801E+02  0.39563897656E+02 -0.27670234798E+02  0.52513542750E+02  0.47000000000E+01 0. -1.
        -11    1    4    4    0    0  0.16044636790E+02  0.60488747504E+01  0.10763521575E+02  0.20245311857E+02  0.00000000000E+00 0.  1.
         12    1    4    4    0    0 -0.72133730691E+02  0.14306757053E+02  0.11779533998E+03  0.13886576440E+03  0.00000000000E+00 0. -1.
         -5    1    5    5    0  502 -0.40654509209E+02  0.13774715728E+02  0.18594412004E+03  0.19089221485E+03  0.47000000000E+01 0.  1.
         13    1    6    6    0    0  0.13871196963E+02 -0.27286037930E+02  0.59787999366E+03  0.59866303109E+03  0.00000000000E+00 0. -1.
        -14    1    6    6    0    0  0.62756783346E+02 -0.46408207257E+02  0.35641554734E+03  0.36486186145E+03  0.00000000000E+00 0.  1.
</event>
<event>
12    1  0.8562501E-002  0.2298494E+03  0.7818608E-02  0.1127401E+00
         21   -1    0    0  501  502  0.00000000000E+00  0.00000000000E+00  0.17276248535E+03  0.17276248535E+03  0.00000000000E+00 0.  1.
         21   -1    0    0  502  503 -0.00000000000E+00 -0.00000000000E+00 -0.41341541915E+03  0.41341541915E+03  0.00000000000E+00 0. -1.
         -6    2    1    2    0  503  0.12867649374E+03 -0.70972859490E+02  0.33269059594E+02  0.22859715621E+03  0.17191580112E+03 0.  0.
        -24    2    3    3    0    0  0.20925489490E+02 -0.94267084343E+01  0.58951845139E+02  0.10179059841E+03  0.79745011994E+02 0.  0.
          6    2    1    2  501    0 -0.12867649374E+03  0.70972859490E+02 -0.27392199339E+03  0.35758074829E+03  0.17673694084E+03 0.  0.
         24    2    5    5    0    0 -0.10374721403E+03  0.99573148995E+02 -0.12903832509E+03  0.20773812122E+03  0.76327853679E+02 0.  0.
          5    1    5    5  501    0 -0.24929279714E+02 -0.28600289505E+02 -0.14488366830E+03  0.14984262707E+03  0.47000000000E+01 0. -1.
        -13    1    6    6    0    0 -0.30589212151E+02 -0.51455902058E+01 -0.86410860606E+01  0.32200083337E+02  0.00000000000E+00 0.  1.
         14    1    6    6    0    0 -0.73158001876E+02  0.10471873920E+03 -0.12039723903E+03  0.17553803789E+03  0.00000000000E+00 0. -1.
         -5    1    3    3    0  503  0.10775100425E+03 -0.61546151055E+02 -0.25682785545E+02  0.12680655780E+03  0.47000000000E+01 0.  1.
         11    1    4    4    0    0  0.19114266440E+02 -0.17031888797E-01 -0.16792244664E+02  0.25442778002E+02  0.00000000000E+00 0. -1.
        -12    1    4    4    0    0  0.18112230497E+01 -0.94096765455E+01  0.75744089802E+02  0.76347820412E+02  0.00000000000E+00 0.  1.
</event>
<event>
12    1  0.8562501E-002  0.2100735E+03  0.7818608E-02  0.1141576E+00
         21   -1    0    0  503  502  0.00000000000E+00  0.00000000000E+00  0.82818999798E+02  0.82818999798E+02  0.00000000000E+00 0.  1.
         21   -1    0    0  501  503 -0.00000000000E+00 -0.00000000000E+00 -0.81632801138E+03  0.81632801138E+03  0.00000000000E+00 0. -1.
          6    2    1    2  501    0 -0.20570303987E+02 -0.11971269728E+03 -0.63188993195E+03  0.66578606222E+03  0.17097346943E+03 0.  0.
         24    2    3    3    0    0 -0.34804117285E+02 -0.12429434657E+03 -0.32318160714E+03  0.35668007270E+03  0.78191507837E+02 0.  0.
         -6    2    1    2    0  502  0.20570303987E+02  0.11971269728E+03 -0.10161907962E+03  0.23336094895E+03  0.17139611389E+03 0.  0.
        -24    2    5    5    0    0  0.73260518494E+02  0.69552942942E+02 -0.34876182596E+02  0.13452287955E+03  0.81702763520E+02 0.  0.
          5    1    3    3  501    0  0.14233813297E+02  0.45816492885E+01 -0.30870832481E+03  0.30910598952E+03  0.47000000000E+01 0. -1.
        -13    1    4    4    0    0 -0.25647234451E+01 -0.11082262006E+03 -0.27991962034E+03  0.30107013265E+03  0.00000000000E+00 0.  1.
         14    1    4    4    0    0 -0.32239393840E+02 -0.13471726508E+02 -0.43261986805E+02  0.55609940052E+02  0.00000000000E+00 0. -1.
         -5    1    5    5    0  502 -0.52690214506E+02  0.50159754337E+02 -0.66742897028E+02  0.98838069404E+02  0.47000000000E+01 0.  1.
         13    1    6    6    0    0  0.34143949418E+02  0.71018776064E+02 -0.49133526536E+02  0.92863228812E+02  0.00000000000E+00 0. -1.
        -14    1    6    6    0    0  0.39116569075E+02 -0.14658331218E+01  0.14257343940E+02  0.41659650733E+02  0.00000000000E+00 0.  1.
</event>
<event>
12    1  0.8562501E-002  0.1784287E+03  0.7818608E-02  0.1169891E+00
         21   -1    0    0  501  502  0.00000000000E+00  0.00000000000E+00  0.40247857314E+03  0.40247857314E+03  0.00000000000E+00 0. -1.
         21   -1    0    0  502  503 -0.00000000000E+00 -0.00000000000E+00 -0.81135872214E+02  0.81135872214E+02  0.00000000000E+00 0. -1.
         -6    2    1    2    0  503 -0.48248376539E+02  0.12041402683E+02  0.11290572886E+03  0.20923739588E+03  0.16899610353E+03 0.  0.
        -24    2    3    3    0    0 -0.60173301030E+02  0.37661333500E+02  0.13692082039E+03  0.17185559148E+03  0.75814451575E+02 0.  0.
          6    2    1    2  501    0  0.48248376539E+02 -0.12041402683E+02  0.20843697207E+03  0.27437704948E+03  0.17135895873E+03 0.  0.
         24    2    5    5    0    0  0.52134955002E+02 -0.60875532312E+02  0.19180633521E+03  0.22242952027E+03  0.79128612335E+02 0.  0.
          5    1    5    5  501    0 -0.38865784632E+01  0.48834129629E+02  0.16630636856E+02  0.51947529210E+02  0.47000000000E+01 0. -1.
        -13    1    6    6    0    0 -0.14964650044E+02  0.30490829920E+01  0.96840945560E+01  0.18083676213E+02  0.00000000000E+00 0.  1.
         14    1    6    6    0    0  0.67099605046E+02 -0.63924615304E+02  0.18212224066E+03  0.20434584405E+03  0.00000000000E+00 0. -1.
         -5    1    3    3    0  503  0.11924924491E+02 -0.25619930817E+02 -0.24015091532E+02  0.37381804404E+02  0.47000000000E+01 0.  1.
         13    1    4    4    0    0 -0.40903828808E+02 -0.17063627671E+02  0.74091803433E+02  0.86335890199E+02  0.00000000000E+00 0. -1.
        -14    1    4    4    0    0 -0.19269472222E+02  0.54724961171E+02  0.62829016956E+02  0.85519701277E+02  0.00000000000E+00 0.  1.
</event>
<event>
12    1  0.8562501E-002  0.2405182E+03  0.7818608E-02  0.1119632E+00
         21   -1    0    0  503  502  0.00000000000E+00  0.00000000000E+00  0.36287477771E+03  0.36287477771E+03  0.00000000000E+00 0. -1.
         21   -1    0    0  501  503 -0.00000000000E+00 -0.00000000000E+00 -0.15988062888E+03  0.15988062888E+03  0.00000000000E+00 0. -1.
          6    2    1    2  501    0 -0.16143493714E+03 -0.46780622885E+02  0.78694681589E+02  0.25201689099E+03  0.17049925170E+03 0.  0.
         24    2    3    3    0    0 -0.62025708312E+02 -0.77696730804E+02  0.98656784806E+01  0.12712685066E+03  0.78612556749E+02 0.  0.
         -6    2    1    2    0  502  0.16143493714E+03  0.46780622885E+02  0.12429946724E+03  0.27073851560E+03  0.17204453106E+03 0.  0.
        -24    2    5    5    0    0  0.89257438504E+02 -0.81223169251E+01  0.11999405608E+03  0.17982894144E+03  0.99533975727E+02 0.  0.
          5    1    3    3  501    0 -0.99409228825E+02  0.30916107919E+02  0.68829003108E+02  0.12489004033E+03  0.47000000000E+01 0. -1.
        -11    1    4    4    0    0  0.13685704376E+02  0.16140641992E+01 -0.81495120986E+01  0.16009942378E+02  0.00000000000E+00 0.  1.
         12    1    4    4    0    0 -0.75711412689E+02 -0.79310795003E+02  0.18015190579E+02  0.11111690829E+03  0.00000000000E+00 0. -1.
         -5    1    5    5    0  502  0.72177498633E+02  0.54902939810E+02  0.43054111606E+01  0.90909574160E+02  0.47000000000E+01 0.  1.
         13    1    6    6    0    0  0.39383239346E+02  0.23165142882E+02 -0.52912252370E+00  0.45694018829E+02  0.00000000000E+00 0. -1.
        -14    1    6    6    0    0  0.49874199159E+02 -0.31287459807E+02  0.12052317860E+03  0.13413492261E+03  0.00000000000E+00 0.  1.
</event>
<event>
12    1  0.8562501E-002  0.1776133E+03  0.7818608E-02  0.1170679E+00
         21   -1    0    0  501  502  0.00000000000E+00  0.00000000000E+00  0.65419595819E+02  0.65419595819E+02  0.00000000000E+00 0.  1.
         21   -1    0    0  502  503 -0.00000000000E+00 -0.00000000000E+00 -0.14877250390E+04  0.14877250390E+04  0.00000000000E+00 0.  1.
         -6    2    1    2    0  503  0.14837548221E+01 -0.30229776936E+02 -0.13528912226E+04  0.13645003286E+04  0.17501555774E+03 0.  0.
        -24    2    3    3    0    0  0.43501773308E+02  0.11297833201E+01 -0.40820227984E+03  0.41834588847E+03  0.80563642160E+02 0.  0.
          6    2    1    2  501    0 -0.14837548221E+01  0.30229776936E+02 -0.69414220568E+02  0.18864430627E+03  0.17277817955E+03 0.  0.
         24    2    5    5    0    0  0.51590664348E+02  0.40611569719E+02 -0.27967163221E+01  0.10271027655E+03  0.78934675799E+02 0.  0.
          5    1    5    5  501    0 -0.53074419171E+02 -0.10381792783E+02 -0.66617504246E+02  0.85934029718E+02  0.47000000000E+01 0. -1.
        -13    1    6    6    0    0 -0.58885437872E+01 -0.61964660946E+01  0.22751120400E+02  0.24304004186E+02  0.00000000000E+00 0.  1.
         14    1    6    6    0    0  0.57479208136E+02  0.46808035813E+02 -0.25547836722E+02  0.78406272363E+02  0.00000000000E+00 0. -1.
         -5    1    3    3    0  503 -0.42018018486E+02 -0.31359560256E+02 -0.94468894280E+03  0.94615444011E+03  0.47000000000E+01 0.  1.
         11    1    4    4    0    0  0.39997806470E+02 -0.32624205720E+02 -0.16776700189E+03  0.17552757688E+03  0.00000000000E+00 0. -1.
        -12    1    4    4    0    0  0.35039668380E+01  0.33753989040E+02 -0.24043527795E+03  0.24281831159E+03  0.00000000000E+00 0.  1.
</event>
<event>
12    1  0.8562501E-002  0.2608387E+03  0.7818608E-02  0.1106740E+00
         21   -1    0    0  501  502  0.00000000000E+00  0.00000000000E+00  0.73640812792E+02  0.73640812792E+02  0.00000000000E+00 0. -1.
         21   -1    0    0  502  503 -0.00000000000E+00 -0.00000000000E+00 -0.11650991506E+04  0.11650991506E+04  0.00000000000E+00 0.  1.
         -6    2    1    2    0  503  0.25763219352E+02  0.19411415130E+03 -0.26200590099E+03  0.36924116727E+03  0.17131228866E+03 0.  0.
        -24    2    3    3    0    0  0.34465650392E+02  0.63916301277E+02 -0.35989714305E+02  0.10821890941E+03  0.71714002757E+02 0.  0.
          6    2    1    2  501    0 -0.25763219352E+02 -0.19411415130E+03 -0.82945243681E+03  0.86949879611E+03  0.17231588523E+03 0.  0.
         24    2    5    5    0    0 -0.78033104723E+02 -0.92859451410E+02 -0.51221930942E+03  0.53238812841E+03  0.79727380350E+02 0.  0.
          5    1    5    5  501    0  0.52269885371E+02 -0.10125469989E+03 -0.31723312738E+03  0.33711066770E+03  0.47000000000E+01 0. -1.
        -11    1    6    6    0    0 -0.42622732100E+02 -0.14159207069E+02 -0.81003869085E+02  0.92621850787E+02  0.00000000000E+00 0.  1.
         12    1    6    6    0    0 -0.35410372623E+02 -0.78700244341E+02 -0.43121544034E+03  0.43976627762E+03  0.00000000000E+00 0. -1.
         -5    1    3    3    0  503 -0.87024310407E+01  0.13019785003E+03 -0.22601618669E+03  0.26102225787E+03  0.47000000000E+01 0.  1.
         13    1    4    4    0    0  0.15314547120E+02 -0.57155006004E+00  0.16776117208E+02  0.22722238700E+02  0.00000000000E+00 0. -1.
        -14    1    4    4    0    0  0.19151103272E+02  0.64487851337E+02 -0.52765831513E+02  0.85496670706E+02  0.00000000000E+00 0.  1.
</event>
<event>
12    1  0.8562501E-002  0.1822727E+03  0.7818608E-02  0.1165883E+00
         21   -1    0    0  501  502  0.00000000000E+00  0.00000000000E+00  0.71133007249E+03  0.71133007249E+03  0.00000000000E+00 0.  1.
         21   -1    0    0  502  503 -0.00000000000E+00 -0.00000000000E+00 -0.79572016427E+02  0.79572016427E+02  0.00000000000E+00 0. -1.
         -6    2    1    2    0  503  0.59486311163E+02 -0.11878859073E+02  0.61205360746E+02  0.19227432701E+03  0.17188249514E+03 0.  0.
        -24    2    3    3    0    0  0.68720732277E+02  0.35277481583E+02  0.77712504660E+02  0.14124912934E+03  0.89134972969E+02 0.  0.
          6    2    1    2  501    0 -0.59486311163E+02  0.11878859073E+02  0.57055269532E+03  0.59862776191E+03  0.17071933307E+03 0.  0.
         24    2    5    5    0    0 -0.75119307833E+02  0.56558677661E+02  0.48524660279E+03  0.50095536971E+03  0.81548896381E+02 0.  0.
          5    1    5    5  501    0  0.15632996670E+02 -0.44679818588E+02  0.85306092529E+02  0.97672392192E+02  0.47000000000E+01 0. -1.
        -13    1    6    6    0    0 -0.56112301206E+02 -0.19831214749E+01  0.31406758939E+03  0.31904697746E+03  0.00000000000E+00 0.  1.
         14    1    6    6    0    0 -0.19007006627E+02  0.58541799136E+02  0.17117901339E+03  0.18190839226E+03  0.00000000000E+00 0. -1.
         -5    1    3    3    0  503 -0.92344211142E+01 -0.47156340656E+02 -0.16507143915E+02  0.51025197673E+02  0.47000000000E+01 0.  1.
         11    1    4    4    0    0  0.62540139576E+02  0.47319760243E+02  0.18591237084E+02  0.80598156703E+02  0.00000000000E+00 0. -1.
        -12    1    4    4    0    0  0.61805927012E+01 -0.12042278660E+02  0.59121267577E+02  0.60650972633E+02  0.00000000000E+00 0.  1.
</event>
<event>
12    1  0.8562501E-002  0.2083081E+03  0.7818608E-02  0.1142926E+00
         21   -1    0    0  503  502  0.00000000000E+00  0.00000000000E+00  0.10627427373E+03  0.10627427373E+03  0.00000000000E+00 0.  1.
         21   -1    0    0  501  503 -0.00000000000E+00 -0.00000000000E+00 -0.10637756122E+04  0.10637756122E+04  0.00000000000E+00 0.  1.
          6    2    1    2  501    0  0.40724037856E+02  0.10837987052E+03 -0.93799238629E+03  0.96083023647E+03  0.17309067851E+03 0.  0.
         24    2    3    3    0    0 -0.10277252487E+02  0.26161146922E+02 -0.57891542296E+03  0.58891706687E+03  0.10435620339E+03 0.  0.
         -6    2    1    2    0  502 -0.40724037856E+02 -0.10837987052E+03 -0.19508952161E+02  0.20921964944E+03  0.17316933592E+03 0.  0.
        -24    2    5    5    0    0  0.23883798991E+02 -0.10980047590E+03 -0.35891672256E+02  0.14238646742E+03  0.79744050584E+02 0.  0.
          5    1    3    3  501    0  0.51001290342E+02  0.82218723599E+02 -0.35907696333E+03  0.37191316960E+03  0.47000000000E+01 0. -1.
        -13    1    4    4    0    0  0.36825991983E+02 -0.13263630388E+01 -0.94326885795E+02  0.10126931573E+03  0.00000000000E+00 0.  1.
         14    1    4    4    0    0 -0.47103244469E+02  0.27487509961E+02 -0.48458853716E+03  0.48764775114E+03  0.00000000000E+00 0. -1.
         -5    1    5    5    0  502 -0.64607836847E+02  0.14206053784E+01  0.16382720095E+02  0.66833182024E+02  0.47000000000E+01 0.  1.
         13    1    6    6    0    0  0.76593847082E+01 -0.11892260354E+03 -0.31516410986E+02  0.12326611850E+03  0.00000000000E+00 0. -1.
        -14    1    6    6    0    0  0.16224414283E+02  0.91221276442E+01 -0.43752612696E+01  0.19120348919E+02  0.00000000000E+00 0.  1.
</event>
<event>
12    1  0.8562501E-002  0.2112947E+03  0.7818608E-02  0.1140589E+00
         21   -1    0    0  501  502  0.00000000000E+00  0.00000000000E+00  0.64477098611E+02  0.64477098611E+02  0.00000000000E+00 0. -1.
         21   -1    0    0  502  503 -0.00000000000E+00 -0.00000000000E+00 -0.70506782595E+03  0.70506782595E+03  0.00000000000E+00 0.  1.
         -6    2    1    2    0  503  0.73648181451E+02 -0.98095015812E+02 -0.37312253160E+03  0.42868620293E+03  0.17176946829E+03 0.  0.
        -24    2    3    3    0    0  0.32508013440E+02 -0.99536647242E+02 -0.36294086867E+03  0.38602066666E+03  0.79508275386E+02 0.  0.
          6    2    1    2  501    0 -0.73648181451E+02  0.98095015812E+02 -0.26746819574E+03  0.34085872163E+03  0.17204285984E+03 0.  0.
         24    2    5    5    0    0 -0.60630306622E+02  0.19414045430E+02 -0.23218677414E+03  0.25352585912E+03  0.79446358714E+02 0.  0.
          5    1    5    5  501    0 -0.13017874829E+02  0.78680970383E+02 -0.35281421598E+02  0.87332862517E+02  0.47000000000E+01 0. -1.
        -11    1    6    6    0    0 -0.52842137149E+02  0.48227913382E+02 -0.15298227122E+03  0.16888397909E+03  0.00000000000E+00 0.  1.
         12    1    6    6    0    0 -0.77881694730E+01 -0.28813867953E+02 -0.79204502925E+02  0.84641880023E+02  0.00000000000E+00 0. -1.
         -5    1    3    3    0  503  0.41140168011E+02  0.14416314293E+01 -0.10181662930E+02  0.42665536270E+02  0.47000000000E+01 0.  1.
         11    1    4    4    0    0  0.21526607446E+02 -0.12724407052E+01 -0.21110058095E+02  0.30176952899E+02  0.00000000000E+00 0. -1.
        -12    1    4    4    0    0  0.10981405993E+02 -0.98264206537E+02 -0.34183081057E+03  0.35584371376E+03  0.00000000000E+00 0.  1.
</event>
<event>
12    1  0.8562501E-002  0.2038232E+03  0.7818608E-02  0.1146753E+00
         21   -1    0    0  501  502  0.00000000000E+00  0.00000000000E+00  0.99696532509E+02  0.99696532509E+02  0.00000000000E+00 0. -1.
         21   -1    0    0  502  503 -0.00000000000E+00 -0.00000000000E+00 -0.58363981942E+03  0.58363981942E+03  0.00000000000E+00 0.  1.
         -6    2    1    2    0  503 -0.78115851744E+02  0.75575843239E+02 -0.42619396475E+03  0.47242478559E+03  0.17242415167E+03 0.  0.
        -24    2    3    3    0    0 -0.50661165438E+02  0.97087214403E+02 -0.19746681268E+03  0.24100590352E+03  0.84250949754E+02 0.  0.
          6    2    1    2  501    0  0.78115851744E+02 -0.75575843239E+02 -0.57749322167E+02  0.21091156634E+03  0.17127437120E+03 0.  0.
         24    2    5    5    0    0  0.56557028084E+02 -0.20692191669E+02  0.31288108317E+02  0.10401557898E+03  0.78825317801E+02 0.  0.
          5    1    5    5  501    0  0.21558823660E+02 -0.54883651570E+02 -0.89037430484E+02  0.10689598736E+03  0.47000000000E+01 0. -1.
        -13    1    6    6    0    0  0.35035189605E+02 -0.46459619039E+02  0.96484695777E-01  0.58189088507E+02  0.00000000000E+00 0.  1.
         14    1    6    6    0    0  0.21521838478E+02  0.25767427371E+02  0.31191623621E+02  0.45826490471E+02  0.00000000000E+00 0. -1.
         -5    1    3    3    0  503 -0.27454686306E+02 -0.21511371164E+02 -0.22872715206E+03  0.23141888208E+03  0.47000000000E+01 0.  1.
         11    1    4    4    0    0  0.35542462033E+01  0.45438767636E+02 -0.22793255325E+02  0.50959265680E+02  0.00000000000E+00 0. -1.
        -12    1    4    4    0    0 -0.54215411641E+02  0.51648446767E+02 -0.17467355736E+03  0.19004663784E+03  0.00000000000E+00 0.  1.
</event>
<event>
12    1  0.8562501E-002  0.2667197E+03  0.7818608E-02  0.1103187E+00
         21   -1    0    0  503  502  0.00000000000E+00  0.00000000000E+00  0.71311979639E+02  0.71311979639E+02  0.00000000000E+00 0.  1.
         21   -1    0    0  501  503 -0.00000000000E+00 -0.00000000000E+00 -0.10840118565E+04  0.10840118565E+04  0.00000000000E+00 0. -1.
          6    2    1    2  501    0  0.35380857789E+02  0.19963117433E+03 -0.66993004791E+03  0.72107257601E+03  0.17330602963E+03 0.  0.
         24    2    3    3    0    0  0.71106833228E+02  0.17438680335E+03 -0.41034097399E+03  0.45778148066E+03  0.75612367950E+02 0.  0.
         -6    2    1    2    0  502 -0.35380857789E+02 -0.19963117433E+03 -0.34276982893E+03  0.43425126012E+03  0.17314326561E+03 0.  0.
        -24    2    5    5    0    0 -0.31596364513E+02 -0.72169485470E+02 -0.65539515392E+02  0.12906354532E+03  0.78455119464E+02 0.  0.
          5    1    3    3  501    0 -0.35725975439E+02  0.25244370982E+02 -0.25958907393E+03  0.26329109535E+03  0.47000000000E+01 0. -1.
        -13    1    4    4    0    0 -0.15352890644E+02  0.24801912576E+02 -0.44699783963E+02  0.53375245244E+02  0.00000000000E+00 0.  1.
         14    1    4    4    0    0  0.86459723871E+02  0.14958489077E+03 -0.36564119002E+03  0.40440623541E+03  0.00000000000E+00 0. -1.
         -5    1    5    5    0  502 -0.37844932757E+01 -0.12746168886E+03 -0.27723031354E+03  0.30518771480E+03  0.47000000000E+01 0.  1.
         13    1    6    6    0    0 -0.42176135945E+02 -0.47380434685E+01 -0.31060565501E+02  0.52593100578E+02  0.00000000000E+00 0. -1.
        -14    1    6    6    0    0  0.10579771432E+02 -0.67431442001E+02 -0.34478949891E+02  0.76470444745E+02  0.00000000000E+00 0.  1.
</event>
<event>
12    1  0.8562501E-002  0.1804976E+03  0.7818608E-02  0.1167635E+00
         21   -1    0    0  503  502  0.00000000000E+00  0.00000000000E+00  0.25198049289E+03  0.25198049289E+03  0.00000000000E+00 0. -1.
         21   -1    0    0  501  503 -0.00000000000E+00 -0.00000000000E+00 -0.20948537609E+03  0.20948537609E+03  0.00000000000E+00 0. -1.
          6    2    1    2  501    0  0.66628780250E+01 -0.55958068812E+02 -0.12228263068E+03  0.21801935667E+03  0.17147506731E+03 0.  0.
         24    2    3    3    0    0 -0.13867234778E+02 -0.63363430659E+02 -0.11320151399E+02  0.10483328543E+03  0.81576021971E+02 0.  0.
         -6    2    1    2    0  502 -0.66628780250E+01  0.55958068812E+02  0.16477774748E+03  0.24344651230E+03  0.17011407607E+03 0.  0.
        -24    2    5    5    0    0  0.23909708538E+02  0.78815221906E+02  0.17009493626E+03  0.20462003946E+03  0.78444629123E+02 0.  0.
          5    1    3    3  501    0  0.20530112803E+02  0.74053618470E+01 -0.11096247928E+03  0.11318607125E+03  0.47000000000E+01 0. -1.
        -13    1    4    4    0    0 -0.42822219100E+02 -0.14842437755E+02 -0.16174755238E+02  0.48121337411E+02  0.00000000000E+00 0.  1.
         14    1    4    4    0    0  0.28954984322E+02 -0.48520992904E+02  0.48546038385E+01  0.56711948017E+02  0.00000000000E+00 0. -1.
         -5    1    5    5    0  502 -0.30572586563E+02 -0.22857153094E+02 -0.53171887821E+01  0.38826472841E+02  0.47000000000E+01 0.  1.
         13    1    6    6    0    0 -0.18489669452E+02  0.25985970410E+02  0.10840733966E+03  0.11300128241E+03  0.00000000000E+00 0. -1.
        -14    1    6    6    0    0  0.42399377990E+02  0.52829251496E+02  0.61687596602E+02  0.91618757043E+02  0.00000000000E+00 0.  1.
</event>
<event>
12    1  0.8562501E-002  0.1958969E+03  0.7818608E-02  0.1153842E+00
         21   -1    0    0  503  502  0.00000000000E+00  0.00000000000E+00  0.41848407728E+03  0.41848407728E+03  0.00000000000E+00 0.  1.
         21   -1    0    0  501  503 -0.00000000000E+00 -0.00000000000E+00 -0.18530256441E+03  0.18530256441E+03  0.00000000000E+00 0.  1.
          6    2    1    2  501    0 -0.88266956066E+02 -0.92190472170E+01 -0.99817507252E+02  0.21743969728E+03  0.17158216933E+03 0.  0.
         24    2    3    3    0    0 -0.63683723174E+02 -0.89372290725E+01  0.12267990344E+02  0.10259343686E+03  0.78989993280E+02 0.  0.
         -6    2    1    2    0  502  0.88266956066E+02  0.92190472170E+01  0.33299902012E+03  0.38634694442E+03  0.17464125428E+03 0.  0.
        -24    2    5    5    0    0  0.30821955404E+02  0.18781850625E+02  0.31200630079E+03  0.32426506643E+03  0.80604905092E+02 0.  0.
          5    1    3    3  501    0 -0.24583232892E+02 -0.28181814456E+00 -0.11208549760E+03  0.11484626042E+03  0.47000000000E+01 0. -1.
        -13    1    4    4    0    0 -0.49580173380E+02 -0.23375853945E+02 -0.24972525494E+02  0.60234966337E+02  0.00000000000E+00 0.  1.
         14    1    4    4    0    0 -0.14103549794E+02  0.14438624873E+02  0.37240515838E+02  0.42358470521E+02  0.00000000000E+00 0. -1.
         -5    1    5    5    0  502  0.57445000662E+02 -0.95628034076E+01  0.20992719328E+02  0.62081877991E+02  0.47000000000E+01 0.  1.
         13    1    6    6    0    0 -0.27370079081E+02  0.14638084548E+01  0.87366045740E+02  0.91564676116E+02  0.00000000000E+00 0. -1.
        -14    1    6    6    0    0  0.58192034484E+02  0.17318042170E+02  0.22464025505E+03  0.23270039032E+03  0.00000000000E+00 0.  1.
</event>
<event>
12    1  0.8562501E-002  0.1988917E+03  0.7818608E-02  0.1153628E+00
         21   -1    0    0  503  502  0.00000000000E+00  0.00000000000E+00  0.22551251585E+03  0.22551251585E+03  0.00000000000E+00 0.  1.
         21   -1    0    0  501  503 -0.00000000000E+00 -0.00000000000E+00 -0.17463907174E+03  0.17463907174E+03  0.00000000000E+00 0.  1.
          6    2    1    2  501    0  0.41189287561E+02  0.55059555476E+02 -0.25184512392E+02  0.18721331970E+03  0.17229757789E+03 0.  0.
         24    2    3    3    0    0  0.81488932785E+02  0.50722952989E+02  0.22414398348E+02  0.12451871203E+03  0.76087057158E+02 0.  0.
         -6    2    1    2    0  502 -0.41189287561E+02 -0.55059555476E+02  0.76057956503E+02  0.21293826790E+03  0.18662738579E+03 0.  0.
        -24    2    5    5    0    0 -0.62910467361E+02 -0.99420565559E+02  0.83556038635E+02  0.16275839042E+03  0.75276200099E+02 0.  0.
          5    1    3    3  501    0 -0.40299645224E+02  0.43366024875E+01 -0.47598910740E+02  0.62694607663E+02  0.47000000000E+01 0. -1.
        -11    1    4    4    0    0  0.10793068354E+02 -0.17467942815E+02 -0.74691860651E+01  0.21849670276E+02  0.00000000000E+00 0.  1.
         12    1    4    4    0    0  0.70695864431E+02  0.68190895804E+02  0.29883584413E+02  0.10266904176E+03  0.00000000000E+00 0. -1.
         -5    1    5    5    0  502  0.21721179800E+02  0.44361010083E+02 -0.74980821311E+01  0.50179877472E+02  0.47000000000E+01 0.  1.
         13    1    6    6    0    0 -0.17509954620E+02 -0.59511711881E+02  0.30822633643E+01  0.62110729421E+02  0.00000000000E+00 0. -1.
        -14    1    6    6    0    0 -0.45400512741E+02 -0.39908853678E+02  0.80473775270E+02  0.10064766100E+03  0.00000000000E+00 0.  1.
</event>
<event>
12    1  0.8562501E-002  0.1845091E+03  0.7818608E-02  0.1163642E+00
         21   -1    0    0  501  502  0.00000000000E+00  0.00000000000E+00  0.28989131238E+03  0.28989131238E+03  0.00000000000E+00 0. -1.
         21   -1    0    0  502  503 -0.00000000000E+00 -0.00000000000E+00 -0.41231736934E+03  0.41231736934E+03  0.00000000000E+00 0. -1.
         -6    2    1    2    0  503  0.14066243069E+02  0.64179079775E+02 -0.35834381427E+03  0.40305568951E+03  0.17241457637E+03 0.  0.
        -24    2    3    3    0    0  0.39170919316E+02  0.91925691863E+02 -0.33476024207E+03  0.35857654687E+03  0.80796203825E+02 0.  0.
          6    2    1    2  501    0 -0.14066243069E+02 -0.64179079775E+02  0.23591775731E+03  0.29915299221E+03  0.17180951969E+03 0.  0.
         24    2    5    5    0    0 -0.69673746210E+02 -0.68563290383E+02  0.15734459195E+03  0.20267891267E+03  0.82256095974E+02 0.  0.
          5    1    5    5  501    0  0.55607503141E+02  0.43842106078E+01  0.78573165357E+02  0.96474079537E+02  0.47000000000E+01 0. -1.
        -13    1    6    6    0    0 -0.20101225264E+02 -0.17246744521E+02 -0.35028375670E+01  0.26716648830E+02  0.00000000000E+00 0.  1.
         14    1    6    6    0    0 -0.49572520946E+02 -0.51316545862E+02  0.16084742952E+03  0.17596226384E+03  0.00000000000E+00 0. -1.
         -5    1    3    3    0  503 -0.25104676247E+02 -0.27746612088E+02 -0.23583572205E+02  0.44479142638E+02  0.47000000000E+01 0.  1.
         13    1    4    4    0    0 -0.37448086864E+01  0.32764626170E+02 -0.22041700583E+03  0.22287036766E+03  0.00000000000E+00 0. -1.
        -14    1    4    4    0    0  0.42915728003E+02  0.59161065693E+02 -0.11434323624E+03  0.13570617922E+03  0.00000000000E+00 0.  1.
</event>
<event>
12    1  0.8562501E-002  0.1802022E+03  0.7818608E-02  0.1167719E+00
         21   -1    0    0  501  502  0.00000000000E+00  0.00000000000E+00  0.77845283546E+03  0.77845283546E+03  0.00000000000E+00 0.  1.
         21   -1    0    0  502  503 -0.00000000000E+00 -0.00000000000E+00 -0.49918470031E+02  0.49918470031E+02  0.00000000000E+00 0.  1.
         -6    2    1    2    0  503 -0.51789364973E+02  0.17459776659E+02  0.19488749313E+03  0.26512017643E+03  0.17123256362E+03 0.  0.
        -24    2    3    3    0    0 -0.14867477712E+02 -0.55382456578E+02  0.12028862218E+03  0.15441200939E+03  0.78009343197E+02 0.  0.
          6    2    1    2  501    0  0.51789364973E+02 -0.17459776659E+02  0.53364687229E+03  0.56325112906E+03  0.17171449548E+03 0.  0.
         24    2    5    5    0    0  0.36571792641E+02 -0.32005807477E+02  0.53313038131E+03  0.54167525635E+03  0.82596683616E+02 0.  0.
          5    1    5    5  501    0  0.15217572332E+02  0.14546030818E+02  0.51649098562E+00  0.21575872709E+02  0.47000000000E+01 0. -1.
        -13    1    6    6    0    0  0.17988059970E+02 -0.55448991533E+02  0.44033741541E+03  0.44417924352E+03  0.00000000000E+00 0.  1.
         14    1    6    6    0    0  0.18583732672E+02  0.23443184056E+02  0.92792965896E+02  0.97496012834E+02  0.00000000000E+00 0. -1.
         -5    1    3    3    0  503 -0.36921887261E+02  0.72842233237E+02  0.74598870951E+02  0.11070816704E+03  0.47000000000E+01 0.  1.
         13    1    4    4    0    0  0.27124892213E+02 -0.53189833774E+01  0.17838886787E+02  0.32897982363E+02  0.00000000000E+00 0. -1.
        -14    1    4    4    0    0 -0.41992369926E+02 -0.50063473200E+02  0.10244973540E+03  0.12151402702E+03  0.00000000000E+00 0.  1.
</event>
<event>
12    1  0.8562501E-002  0.2637541E+03  0.7818608E-02  0.1104987E+00
         21   -1    0    0  501  502  0.00000000000E+00  0.00000000000E+00  0.18104005086E+03  0.18104005086E+03  0.00000000000E+00 0. -1.
         21   -1    0    0  502  503 -0.00000000000E+00 -0.00000000000E+00 -0.38576014492E+03  0.38576014492E+03  0.00000000000E+00 0. -1.
         -6    2    1    2    0  503 -0.52919225230E+02  0.19167348238E+03 -0.80495998968E+02  0.27525631330E+03  0.17247395141E+03 0.  0.
        -24    2    3    3    0    0 -0.57562366208E+02  0.18646279938E+03 -0.11461043409E+03  0.24011951408E+03  0.80249784327E+02 0.  0.
          6    2    1    2  501    0  0.52919225230E+02 -0.19167348238E+03 -0.12422409509E+03  0.29154388248E+03  0.17328312486E+03 0.  0.
         24    2    5    5    0    0  0.63629348631E+02 -0.20117725701E+03 -0.14364711740E+03  0.26695989844E+03  0.78179986537E+02 0.  0.
          5    1    5    5  501    0 -0.10710123401E+02  0.95037746292E+01  0.19423022308E+02  0.24583984035E+02  0.47000000000E+01 0. -1.
        -11    1    6    6    0    0  0.54278849483E+01 -0.11727668690E+02 -0.42563249166E+02  0.44481797710E+02  0.00000000000E+00 0.  1.
         12    1    6    6    0    0  0.58201463682E+02 -0.18944958832E+03 -0.10108386823E+03  0.22247810073E+03  0.00000000000E+00 0. -1.
         -5    1    3    3    0  503  0.46431409786E+01  0.52106829977E+01  0.34114435124E+02  0.35136799218E+02  0.47000000000E+01 0.  1.
         11    1    4    4    0    0 -0.57347618656E+02  0.16474008829E+03 -0.65339558389E+02  0.18627212338E+03  0.00000000000E+00 0. -1.
        -12    1    4    4    0    0 -0.21474755189E+00  0.21722711088E+02 -0.49270875703E+02  0.53847390708E+02  0.00000000000E+00 0.  1.
</event>
<event>
12    1  0.8562501E-002  0.2279314E+03  0.7818608E-02  0.1128308E+00
         21   -1    0    0  503  502  0.00000000000E+00  0.00000000000E+00  0.12253779954E+03  0.12253779954E+03  0.00000000000E+00 0.  1.
         21   -1    0    0  501  503 -0.00000000000E+00 -0.00000000000E+00 -0.42656286283E+03  0.42656286283E+03  0.00000000000E+00 0. -1.
          6    2    1    2  501    0 -0.14429034294E+03  0.24055070132E+02 -0.18047716284E+03  0.28983860971E+03  0.17330915702E+03 0.  0.
         24    2    3    3    0    0 -0.15042066083E+03  0.20763298181E+02 -0.79872462739E+02  0.18888410391E+03  0.78994333021E+02 0.  0.
         -6    2    1    2    0  502  0.14429034294E+03 -0.24055070132E+02 -0.12354790045E+03  0.25926205265E+03  0.17479810861E+03 0.  0.
        -24    2    5    5    0    0  0.10318841162E+03 -0.70127752960E+02 -0.13091562622E+03  0.19690474157E+03  0.77889832708E+02 0.  0.
          5    1    3    3  501    0  0.61303178878E+01  0.32917719505E+01 -0.10060470010E+03  0.10095450580E+03  0.47000000000E+01 0. -1.
        -11    1    4    4    0    0 -0.19869660378E+02 -0.15337986234E+02  0.92411854054E+01  0.26748022973E+02  0.00000000000E+00 0.  1.
         12    1    4    4    0    0 -0.13055100045E+03  0.36101284415E+02 -0.89113648144E+02  0.16213608094E+03  0.00000000000E+00 0. -1.
         -5    1    5    5    0  502  0.41101931326E+02  0.46072682828E+02  0.73677257713E+01  0.62357311077E+02  0.47000000000E+01 0.  1.
         11    1    6    6    0    0 -0.43809918071E+01  0.10804623080E+02 -0.53878477110E+01  0.12843748365E+02  0.00000000000E+00 0. -1.
        -12    1    6    6    0    0  0.10756940342E+03 -0.80932376040E+02 -0.12552777851E+03  0.18406099321E+03  0.00000000000E+00 0.  1.
</event>
<event>
12    1  0.8562501E-002  0.2092787E+03  0.7818608E-02  0.1142282E+00
         21   -1    0    0  501  502  0.00000000000E+00  0.00000000000E+00  0.29832564984E+04  0.29832564984E+04  0.00000000000E+00 0.  1.
         21   -1    0    0  502  503 -0.00000000000E+00 -0.00000000000E+00 -0.16165966947E+02  0.16165966947E+02  0.00000000000E+00 0.  1.
         -6    2    1    2    0  503  0.86972448707E+02  0.80010593291E+02  0.10190529292E+04  0.10401756526E+04  0.17184473772E+03 0.  0.
        -24    2    3    3    0    0  0.18336571217E+02  0.86586686408E+02  0.40348732017E+03  0.42074265566E+03  0.79930473828E+02 0.  0.
          6    2    1    2  501    0 -0.86972448707E+02 -0.80010593291E+02  0.19480376022E+04  0.19592468127E+04  0.17271847496E+03 0.  0.
         24    2    5    5    0    0 -0.32208217819E+02  0.18451947879E+02  0.96657176727E+03  0.97132410918E+03  0.88496893164E+02 0.  0.
          5    1    5    5  501    0 -0.54764230889E+02 -0.98462541170E+02  0.98146583491E+03  0.98792270350E+03  0.47000000000E+01 0. -1.
        -13    1    6    6    0    0  0.11773257552E+02  0.43657624868E+02  0.43902620726E+03  0.44134862463E+03  0.00000000000E+00 0.  1.
         14    1    6    6    0    0 -0.43981475371E+02 -0.25205676989E+02  0.52754556001E+03  0.52997548454E+03  0.00000000000E+00 0. -1.
         -5    1    3    3    0  503  0.68635877490E+02 -0.65760931168E+01  0.61556560906E+03  0.61943299697E+03  0.47000000000E+01 0.  1.
         11    1    4    4    0    0 -0.17412701581E+02  0.50157974153E+02  0.30729494507E+03  0.31184805244E+03  0.00000000000E+00 0. -1.
        -12    1    4    4    0    0  0.35749272798E+02  0.36428712255E+02  0.96192375103E+02  0.10889460322E+03  0.00000000000E+00 0.  1.
</event>
<event>
12    1  0.8562501E-002  0.2707337E+03  0.7818608E-02  0.1101759E+00
         21   -1    0    0  501  502  0.00000000000E+00  0.00000000000E+00  0.25453183120E+03  0.25453183120E+03  0.00000000000E+00 0. -1.
         21   -1    0    0  502  503 -0.00000000000E+00 -0.00000000000E+00 -0.43242950598E+03  0.43242950598E+03  0.00000000000E+00 0.  1.
         -6    2    1    2    0  503  0.19822428895E+03 -0.47592742882E+02 -0.29126957082E+03  0.39344831019E+03  0.16853982317E+03 0.  0.
        -24    2    3    3    0    0  0.20939882660E+03 -0.10949962319E+02 -0.26024264352E+03  0.34392736637E+03  0.81191314622E+02 0.  0.
          6    2    1    2  501    0 -0.19822428895E+03  0.47592742882E+02  0.11337189604E+03  0.29351302700E+03  0.17815378834E+03 0.  0.
         24    2    5    5    0    0 -0.13700008804E+03  0.65548298393E+02  0.13504697354E+02  0.17491137387E+03  0.85708857844E+02 0.  0.
          5    1    5    5  501    0 -0.61224200907E+02 -0.17955555512E+02  0.99867198690E+02  0.11860165313E+03  0.47000000000E+01 0. -1.
        -11    1    6    6    0    0 -0.54230004573E+02  0.64118494723E+02  0.32382272633E+02  0.90003812933E+02  0.00000000000E+00 0.  1.
         12    1    6    6    0    0 -0.82770083470E+02  0.14298036705E+01 -0.18877575279E+02  0.84907560939E+02  0.00000000000E+00 0. -1.
         -5    1    3    3    0  503 -0.11174537652E+02 -0.36642780563E+02 -0.31026927300E+02  0.49520943820E+02  0.47000000000E+01 0.  1.
         11    1    4    4    0    0  0.12300544652E+03  0.24663655577E+01 -0.89626135607E+02  0.15221454272E+03  0.00000000000E+00 0. -1.
        -12    1    4    4    0    0  0.86393380085E+02 -0.13416327876E+02 -0.17061650792E+03  0.19171282365E+03  0.00000000000E+00 0.  1.
</event>
<event>
12    1  0.8562501E-002  0.1733585E+03  0.7818608E-02  0.1174557E+00
         21   -1    0    0  503  502  0.00000000000E+00  0.00000000000E+00  0.17476306291E+04  0.17476306291E+04  0.00000000000E+00 0. -1.
         21   -1    0    0  501  503 -0.00000000000E+00 -0.00000000000E+00 -0.22001689630E+02  0.22001689630E+02  0.00000000000E+00 0. -1.
          6    2    1    2  501    0  0.12198562405E+02  0.16551537895E+02  0.12778269018E+04  0.12894450147E+04  0.17147622707E+03 0.  0.
         24    2    3    3    0    0 -0.44317300311E+02 -0.29446828141E+02  0.84821212678E+03  0.85366888250E+03  0.80346811609E+02 0.  0.
         -6    2    1    2    0  502 -0.12198562405E+02 -0.16551537895E+02  0.44780203759E+03  0.48018730403E+03  0.17213489985E+03 0.  0.
        -24    2    5    5    0    0 -0.41526777339E+02  0.49935706127E+01  0.11928536869E+03  0.14962773657E+03  0.80062796500E+02 0.  0.
          5    1    3    3  501    0  0.56515862716E+02  0.45998366035E+02  0.42961477505E+03  0.43577613216E+03  0.47000000000E+01 0. -1.
        -13    1    4    4    0    0  0.41522868483E+01 -0.30888321950E+01  0.18281981134E+01  0.54885953341E+01  0.00000000000E+00 0.  1.
         14    1    4    4    0    0 -0.48469587159E+02 -0.26357995946E+02  0.84638392867E+03  0.84818028717E+03  0.00000000000E+00 0. -1.
         -5    1    5    5    0  502  0.29328214934E+02 -0.21545108508E+02  0.32851666890E+03  0.33055956746E+03  0.47000000000E+01 0.  1.
         11    1    6    6    0    0  0.13002765003E+02 -0.24300470775E+02  0.27611216087E+02  0.39012357419E+02  0.00000000000E+00 0. -1.
        -12    1    6    6    0    0 -0.54529542342E+02  0.29294041388E+02  0.91674152604E+02  0.11061537915E+03  0.00000000000E+00 0.  1.
</event>
<event>
12    1  0.8562501E-002  0.1865771E+03  0.7818608E-02  0.1161896E+00
         21   -1    0    0  503  502  0.00000000000E+00  0.00000000000E+00  0.87903201900E+02  0.87903201900E+02  0.00000000000E+00 0.  1.
         21   -1    0    0  501  503 -0.00000000000E+00 -0.00000000000E+00 -0.40274693412E+03  0.40274693412E+03  0.00000000000E+00 0.  1.
          6    2    1    2  501    0  0.79914479325E+01  0.73510420891E+02 -0.19469185611E+03  0.26873236032E+03  0.16983673757E+03 0.  0.
         24    2    3    3    0    0  0.49617254930E+02  0.55411467041E+02 -0.19443256564E+03  0.22309863189E+03  0.80228886976E+02 0.  0.
         -6    2    1    2    0  502 -0.79914479325E+01 -0.73510420891E+02 -0.12015187611E+03  0.22191777570E+03  0.17129909696E+03 0.  0.
        -24    2    5    5    0    0  0.58683614770E+02 -0.41877625974E+02 -0.47058656903E+02  0.11794226707E+03  0.80612399624E+02 0.  0.
          5    1    3    3  501    0 -0.41625806997E+02  0.18098953850E+02 -0.25929047435E+00  0.45633728427E+02  0.47000000000E+01 0. -1.
        -11    1    4    4    0    0  0.54244246875E+02  0.66538843855E+02 -0.11913876161E+03  0.14684652049E+03  0.00000000000E+00 0.  1.
         12    1    4    4    0    0 -0.46269919450E+01 -0.11127376814E+02 -0.75293804022E+02  0.76252111403E+02  0.00000000000E+00 0. -1.
         -5    1    5    5    0  502 -0.66675062702E+02 -0.31632794916E+02 -0.73093219205E+02  0.10397550863E+03  0.47000000000E+01 0.  1.
         11    1    6    6    0    0  0.68336889146E+02 -0.67969542220E+01 -0.43708631347E+02  0.81403768089E+02  0.00000000000E+00 0. -1.
        -12    1    6    6    0    0 -0.96532743762E+01 -0.35080671752E+02 -0.33500255565E+01  0.36538498984E+02  0.00000000000E+00 0.  1.
</event>
<event>
12    1  0.8562501E-002  0.1866846E+03  0.7818608E-02  0.1161637E+00
         21   -1    0    0  503  502  0.00000000000E+00  0.00000000000E+00  0.69707648158E+03  0.69707648158E+03  0.00000000000E+00 0. -1.
         21   -1    0    0  501  503 -0.00000000000E+00 -0.00000000000E+00 -0.51541967742E+02  0.51541967742E+02  0.00000000000E+00 0. -1.
          6    2    1    2  501    0 -0.68316190570E+02  0.26385367742E+02  0.25491887249E+03  0.31596640339E+03  0.17172025797E+03 0.  0.
         24    2    3    3    0    0 -0.10447062688E+02 -0.45787890756E+02  0.12112961653E+03  0.15324126639E+03  0.81270103136E+02 0.  0.
         -6    2    1    2    0  502  0.68316190570E+02 -0.26385367742E+02  0.39061564135E+03  0.43265204593E+03  0.17100854966E+03 0.  0.
        -24    2    5    5    0    0  0.19238497788E+02 -0.74980878656E+02  0.19215063751E+03  0.22246024932E+03  0.81082939476E+02 0.  0.
          5    1    3    3  501    0 -0.57869127882E+02  0.72173258498E+02  0.13378925596E+03  0.16272513701E+03  0.47000000000E+01 0. -1.
        -11    1    4    4    0    0  0.17400868013E+02 -0.42992364365E+02  0.24124460156E+02  0.52279280591E+02  0.00000000000E+00 0.  1.
         12    1    4    4    0    0 -0.27847930701E+02 -0.27955263911E+01  0.97005156375E+02  0.10096198579E+03  0.00000000000E+00 0. -1.
         -5    1    5    5    0  502  0.49077692782E+02  0.48595510915E+02  0.19846500384E+03  0.21019179660E+03  0.47000000000E+01 0.  1.
         11    1    6    6    0    0  0.47658116901E+02 -0.67267309394E+02  0.14746420290E+03  0.16894341703E+03  0.00000000000E+00 0. -1.
        -12    1    6    6    0    0 -0.28419619113E+02 -0.77135692620E+01  0.44686434602E+02  0.53516832294E+02  0.00000000000E+00 0.  1.
</event>
<event>
12    1  0.8562501E-002  0.1830912E+03  0.7818608E-02  0.1164932E+00
         21   -1    0    0  501  502  0.00000000000E+00  0.00000000000E+00  0.24719161355E+03  0.24719161355E+03  0.00000000000E+00 0.  1.
         21   -1    0    0  502  503 -0.00000000000E+00 -0.00000000000E+00 -0.20499603874E+03  0.20499603874E+03  0.00000000000E+00 0.  1.
         -6    2    1    2    0  503 -0.16300042133E+02  0.59456812202E+02 -0.11068267508E+03  0.21394639421E+03  0.17239953928E+03 0.  0.
        -24    2    3    3    0    0  0.12569846551E+02  0.10174637571E+03 -0.94146940099E+02  0.15993344960E+03  0.78770146373E+02 0.  0.
          6    2    1    2  501    0  0.16300042133E+02 -0.59456812202E+02  0.15287824989E+03  0.23824125808E+03  0.17200678437E+03 0.  0.
         24    2    5    5    0    0 -0.56429526506E+02 -0.19463220125E+02  0.69411437613E+02  0.12043685955E+03  0.78255869215E+02 0.  0.
          5    1    5    5  501    0  0.72729568640E+02 -0.39993592078E+02  0.83466812273E+02  0.11780439853E+03  0.47000000000E+01 0. -1.
        -13    1    6    6    0    0 -0.47721202289E+02 -0.22034819576E+02  0.86423808888E+02  0.10115295925E+03  0.00000000000E+00 0.  1.
         14    1    6    6    0    0 -0.87083242178E+01  0.25715994518E+01 -0.17012371275E+02  0.19283900301E+02  0.00000000000E+00 0. -1.
         -5    1    3    3    0  503 -0.28869888685E+02 -0.42289563505E+02 -0.16535734977E+02  0.54012944609E+02  0.47000000000E+01 0.  1.
         13    1    4    4    0    0  0.42813151676E+02  0.46675189020E+02 -0.29789562530E+02  0.69992551477E+02  0.00000000000E+00 0. -1.
        -14    1    4    4    0    0 -0.30243305125E+02  0.55071186688E+02 -0.64357377569E+02  0.89940898125E+02  0.00000000000E+00 0.  1.
</event>
<event>
12    1  0.8562501E-002  0.2491720E+03  0.7818608E-02  0.1114175E+00
         21   -1    0    0  503  502  0.00000000000E+00  0.00000000000E+00  0.14833828433E+04  0.14833828433E+04  0.00000000000E+00 0. -1.
         21   -1    0    0  501  503 -0.00000000000E+00 -0.00000000000E+00 -0.42245191550E+02  0.42245191550E+02  0.00000000000E+00 0. -1.
          6    2    1    2  501    0 -0.48711001709E+02  0.17404368602E+03  0.62177413323E+03  0.66984309502E+03  0.17153055954E+03 0.  0.
         24    2    3    3    0    0 -0.38683128629E+02  0.54742278464E+02  0.15505694933E+03  0.18799207672E+03  0.82494011193E+02 0.  0.
         -6    2    1    2    0  502  0.48711001709E+02 -0.17404368602E+03  0.81936351848E+03  0.85578493979E+03  0.16836662802E+03 0.  0.
        -24    2    5    5    0    0  0.69711759528E+02 -0.18801319580E+03  0.77044924861E+03  0.80055021494E+03  0.84142205548E+02 0.  0.
          5    1    3    3  501    0 -0.10027873080E+02  0.11930140756E+03  0.46671718390E+03  0.48185101830E+03  0.47000000000E+01 0. -1.
        -11    1    4    4    0    0  0.25247501138E+02  0.80958021642E+01  0.30422068631E+02  0.40354437007E+02  0.00000000000E+00 0.  1.
         12    1    4    4    0    0 -0.63930629767E+02  0.46646476300E+02  0.12463488070E+03  0.14763763971E+03  0.00000000000E+00 0. -1.
         -5    1    5    5    0  502 -0.21000757819E+02  0.13969509772E+02  0.48914269870E+02  0.55234724849E+02  0.47000000000E+01 0.  1.
         11    1    6    6    0    0  0.76095352683E+02 -0.91180476403E+02  0.47244452482E+03  0.48714290615E+03  0.00000000000E+00 0. -1.
        -12    1    6    6    0    0 -0.63835931548E+01 -0.96832719393E+02  0.29800472379E+03  0.31340730879E+03  0.00000000000E+00 0.  1.
</event>
<event>
12    1  0.8562501E-002  0.2714062E+03  0.7818608E-02  0.1100535E+00
         21   -1    0    0  501  502  0.00000000000E+00  0.00000000000E+00  0.15491716375E+03  0.15491716375E+03  0.00000000000E+00 0. -1.
         21   -1    0    0  502  503 -0.00000000000E+00 -0.00000000000E+00 -0.61604819436E+03  0.61604819436E+03  0.00000000000E+00 0. -1.
         -6    2    1    2    0  503 -0.20333149630E+03 -0.52557667012E+02 -0.41502771422E+03  0.49567127493E+03  0.17127756267E+03 0.  0.
        -24    2    3    3    0    0 -0.27941438741E+02 -0.62835591454E-01 -0.10971838535E+03  0.13964703992E+03  0.81746215385E+02 0.  0.
          6    2    1    2  501    0  0.20333149630E+03  0.52557667012E+02 -0.46103316392E+02  0.27529408318E+03  0.17191658066E+03 0.  0.
         24    2    5    5    0    0  0.11906193097E+03  0.82381995717E+02  0.15619186836E+02  0.16656226803E+03  0.80848583832E+02 0.  0.
          5    1    5    5  501    0  0.84269565324E+02 -0.29824328705E+02 -0.61722503227E+02  0.10873181516E+03  0.47000000000E+01 0. -1.
        -13    1    6    6    0    0  0.27007071827E+02 -0.14998395723E+02  0.98868747196E+01  0.32435845829E+02  0.00000000000E+00 0.  1.
         14    1    6    6    0    0  0.92054859145E+02  0.97380391440E+02  0.57323121161E+01  0.13412642220E+03  0.00000000000E+00 0. -1.
         -5    1    3    3    0  503 -0.17539005755E+03 -0.52494831421E+02 -0.30530932888E+03  0.35602423501E+03  0.47000000000E+01 0.  1.
         13    1    4    4    0    0 -0.46709714538E+02 -0.22037625707E+02 -0.43975299807E+02  0.67832745574E+02  0.00000000000E+00 0. -1.
        -14    1    4    4    0    0  0.18768275797E+02  0.21974790116E+02 -0.65743085538E+02  0.71814294351E+02  0.00000000000E+00 0.  1.
</event>
<event>
12    1  0.8562501E-002  0.2370952E+03  0.7818608E-02  0.1121810E+00
         21   -1    0    0  501  502  0.00000000000E+00  0.00000000000E+00  0.24545912762E+03  0.24545912762E+03  0.00000000000E+00 0. -1.
         21   -1    0    0  502  503 -0.00000000000E+00 -0.00000000000E+00 -0.39287564875E+03  0.39287564875E+03  0.00000000000E+00 0. -1.
         -6    2    1    2    0  503  0.29650528860E+02 -0.15945738754E+03 -0.28010600175E+03  0.36697886582E+03  0.17294017300E+03 0.  0.
        -24    2    3    3    0    0  0.45193415519E+02 -0.78947409966E+02 -0.25302668285E+03  0.28049871014E+03  0.79886706079E+02 0.  0.
          6    2    1    2  501    0 -0.29650528860E+02  0.15945738754E+03  0.13268948062E+03  0.27135591055E+03  0.17239988289E+03 0.  0.
         24    2    5    5    0    0 -0.80449311810E+02  0.62400353047E+02  0.57600249843E+02  0.13846096380E+03  0.74079375554E+02 0.  0.
          5    1    5    5  501    0  0.50798782950E+02  0.97057034494E+02  0.75089230777E+02  0.13289494675E+03  0.47000000000E+01 0. -1.
        -11    1    6    6    0    0 -0.51314210356E+02  0.65598634612E+02  0.11844763421E+02  0.84122692942E+02  0.00000000000E+00 0.  1.
         12    1    6    6    0    0 -0.29135101454E+02 -0.31982815644E+01  0.45755486422E+02  0.54338270855E+02  0.00000000000E+00 0. -1.
         -5    1    3    3    0  503 -0.15542886659E+02 -0.80509977575E+02 -0.27079318904E+02  0.86480155684E+02  0.47000000000E+01 0.  1.
         11    1    4    4    0    0  0.61855015241E+02 -0.73489986895E+02 -0.16656855048E+03  0.19228079231E+03  0.00000000000E+00 0. -1.
        -12    1    4    4    0    0 -0.16661599722E+02 -0.54574230706E+01 -0.86458132375E+02  0.88217917827E+02  0.00000000000E+00 0.  1.
</event>
<event>
12    1  0.8562501E-002  0.2455169E+03  0.7818608E-02  0.1116968E+00
         21   -1    0    0  503  502  0.00000000000E+00  0.00000000000E+00  0.17533818885E+03  0.17533818885E+03  0.00000000000E+00 0.  1.
         21   -1    0    0  501  503 -0.00000000000E+00 -0.00000000000E+00 -0.85589308154E+03  0.85589308154E+03  0.00000000000E+00 0.  1.
          6    2    1    2  501    0 -0.13694970772E+03 -0.96971832960E+02 -0.74040072427E+03  0.77852579995E+03  0.17248312919E+03 0.  0.
         24    2    3    3    0    0 -0.12894448742E+02  0.42036996750E+01 -0.26033370775E+03  0.27245008819E+03  0.79192633901E+02 0.  0.
         -6    2    1    2    0  502  0.13694970772E+03  0.96971832960E+02  0.59845831581E+02  0.25270547044E+03  0.17921989956E+03 0.  0.
        -24    2    5    5    0    0 -0.32778682385E-01  0.67052266814E+02  0.31799738508E+02  0.10963885883E+03  0.80705938056E+02 0.  0.
          5    1    3    3  501    0 -0.12405525898E+03 -0.10117553263E+03 -0.48006701652E+03  0.50607571176E+03  0.47000000000E+01 0. -1.
        -11    1    4    4    0    0 -0.27575157949E+02 -0.11125020867E+02 -0.24363766156E+03  0.24544544313E+03  0.00000000000E+00 0.  1.
         12    1    4    4    0    0  0.14680709207E+02  0.15328720542E+02 -0.16696046196E+02  0.27004645061E+02  0.00000000000E+00 0. -1.
         -5    1    5    5    0  502  0.13698248640E+03  0.29919566146E+02  0.28046093073E+02  0.14306661160E+03  0.47000000000E+01 0.  1.
         11    1    6    6    0    0  0.25261489179E+02 -0.70092448100E+01  0.12442201935E+02  0.29018627420E+02  0.00000000000E+00 0. -1.
        -12    1    6    6    0    0 -0.25294267862E+02  0.74061511624E+02  0.19357536574E+02  0.80620231412E+02  0.00000000000E+00 0.  1.
</event>
<event>
12    1  0.8562501E-002  0.1950405E+03  0.7818608E-02  0.1154035E+00
         21   -1    0    0  501  502  0.00000000000E+00  0.00000000000E+00  0.13840092757E+02  0.13840092757E+02  0.00000000000E+00 0.  1.
         21   -1    0    0  502  503 -0.00000000000E+00 -0.00000000000E+00 -0.38735647492E+04  0.38735647492E+04  0.00000000000E+00 0. -1.
         -6    2    1    2    0  503 -0.81056090585E+02 -0.44506866499E+02 -0.29792979598E+04  0.29856753237E+04  0.17172610299E+03 0.  0.
        -24    2    3    3    0    0 -0.23389473495E+02 -0.85616485644E+02 -0.15480707717E+04  0.15526893525E+04  0.80273665488E+02 0.  0.
          6    2    1    2  501    0  0.81056090585E+02  0.44506866499E+02 -0.88042669661E+03  0.90172951820E+03  0.17150511625E+03 0.  0.
         24    2    5    5    0    0  0.76958690863E+02 -0.34342432451E+02 -0.53601727031E+03  0.54835444330E+03  0.79221453276E+02 0.  0.
          5    1    5    5  501    0  0.40973997219E+01  0.78849298950E+02 -0.34440942630E+03  0.35337507489E+03  0.47000000000E+01 0. -1.
        -11    1    6    6    0    0  0.52925308053E+02  0.78270190095E+01 -0.14916980070E+03  0.15847390920E+03  0.00000000000E+00 0.  1.
         12    1    6    6    0    0  0.24033382810E+02 -0.42169451461E+02 -0.38684746961E+03  0.38988053410E+03  0.00000000000E+00 0. -1.
         -5    1    3    3    0  503 -0.57666617090E+02  0.41109619145E+02 -0.14312271882E+04  0.14329859712E+04  0.47000000000E+01 0.  1.
         13    1    4    4    0    0 -0.47282331909E+02 -0.35424863284E+02 -0.10176851054E+04  0.10193986038E+04  0.00000000000E+00 0. -1.
        -14    1    4    4    0    0  0.23892858414E+02 -0.50191622359E+02 -0.53038566630E+03  0.53329074870E+03  0.00000000000E+00 0.  1.
</event>
<event>
12    1  0.8562501E-002  0.1868508E+03  0.7818608E-02  0.1161648E+00
         21   -1    0    0  501  502  0.00000000000E+00  0.00000000000E+00  0.19662251613E+03  0.19662251613E+03  0.00000000000E+00 0. -1.
         21   -1    0    0  502  503 -0.00000000000E+00 -0.00000000000E+00 -0.88993048861E+03  0.88993048861E+03  0.00000000000E+00 0. -1.
         -6    2    1    2    0  503 -0.69635954381E+02  0.55534985399E+01 -0.83290790532E+03  0.85331204692E+03  0.17183091453E+03 0.  0.
        -24    2    3    3    0    0  0.13433146242E+02  0.44316199480E+02 -0.36249852540E+03  0.37403123447E+03  0.79685685614E+02 0.  0.
          6    2    1    2  501    0  0.69635954381E+02 -0.55534985399E+01  0.13959993284E+03  0.23324095782E+03  0.17330088189E+03 0.  0.
         24    2    5    5    0    0  0.10387691601E+03  0.26257572137E+02  0.68365692086E+02  0.14791338474E+03  0.75661269856E+02 0.  0.
          5    1    5    5  501    0 -0.34240961631E+02 -0.31811070677E+02  0.71234240758E+02  0.85327573078E+02  0.47000000000E+01 0. -1.
        -11    1    6    6    0    0  0.38204133440E+02 -0.20104331449E+02  0.48844602194E+02  0.65188458476E+02  0.00000000000E+00 0.  1.
         12    1    6    6    0    0  0.65672782572E+02  0.46361903586E+02  0.19521089891E+02  0.82724926264E+02  0.00000000000E+00 0. -1.
         -5    1    3    3    0  503 -0.83069100623E+02 -0.38762700940E+02 -0.47040937992E+03  0.47928081245E+03  0.47000000000E+01 0.  1.
         13    1    4    4    0    0 -0.16454283932E+02 -0.12788893885E+02 -0.16429071003E+03  0.16560717578E+03  0.00000000000E+00 0. -1.
        -14    1    4    4    0    0  0.29887430174E+02  0.57105093366E+02 -0.19820781537E+03  0.20842405870E+03  0.00000000000E+00 0.  1.
</event>
<event>
12    1  0.8562501E-002  0.4180232E+03  0.7818608E-02  0.1038029E+00
         21   -1    0    0  501  502  0.00000000000E+00  0.00000000000E+00  0.81136081051E+03  0.81136081051E+03  0.00000000000E+00 0. -1.
         21   -1    0    0  502  503 -0.00000000000E+00 -0.00000000000E+00 -0.49918410385E+03  0.49918410385E+03  0.00000000000E+00 0.  1.
         -6    2    1    2    0  503 -0.22672648034E+03  0.30626846151E+03 -0.33941665896E+03  0.53846736344E+03  0.17186670912E+03 0.  0.
        -24    2    3    3    0    0 -0.21171998549E+03  0.18052001700E+03 -0.21808830184E+03  0.36302356496E+03  0.82527404678E+02 0.  0.
          6    2    1    2  501    0  0.22672648034E+03 -0.30626846151E+03  0.65159336562E+03  0.77207755093E+03  0.16224846108E+03 0.  0.
         24    2    5    5    0    0  0.84338628574E+02 -0.21642003151E+03  0.39634820961E+03  0.46626842684E+03  0.79772854431E+02 0.  0.
          5    1    5    5  501    0  0.14238785177E+03 -0.89848429997E+02  0.25524515601E+03  0.30580912408E+03  0.47000000000E+01 0. -1.
        -13    1    6    6    0    0  0.37782632709E+02 -0.10845014728E+03  0.12077802218E+03  0.16666221054E+03  0.00000000000E+00 0.  1.
         14    1    6    6    0    0  0.46555995866E+02 -0.10796988423E+03  0.27557018743E+03  0.29960621631E+03  0.00000000000E+00 0. -1.
         -5    1    3    3    0  503 -0.15006494854E+02  0.12574844450E+03 -0.12132835712E+03  0.17544379847E+03  0.47000000000E+01 0.  1.
         11    1    4    4    0    0 -0.17361329283E+03  0.14988649392E+03 -0.13367863362E+03  0.26547601321E+03  0.00000000000E+00 0. -1.
        -12    1    4    4    0    0 -0.38106692660E+02  0.30633523084E+02 -0.84409668226E+02  0.97547551748E+02  0.00000000000E+00 0.  1.
</event>
<event>
12    1  0.8562501E-002  0.1804130E+03  0.7818608E-02  0.1167687E+00
         21   -1    0    0  503  502  0.00000000000E+00  0.00000000000E+00  0.46006945536E+03  0.46006945536E+03  0.00000000000E+00 0.  1.
         21   -1    0    0  501  503 -0.00000000000E+00 -0.00000000000E+00 -0.28057409775E+03  0.28057409775E+03  0.00000000000E+00 0.  1.
          6    2    1    2  501    0  0.55451213949E+02  0.11273276759E+01 -0.23092186470E+03  0.29232317498E+03  0.17044595342E+03 0.  0.
         24    2    3    3    0    0  0.10878781260E+01  0.58600336615E+02 -0.12380478572E+03  0.15907649529E+03  0.80885866856E+02 0.  0.
         -6    2    1    2    0  502 -0.55451213949E+02 -0.11273276759E+01  0.41041722231E+03  0.44832037814E+03  0.17167631488E+03 0.  0.
        -24    2    5    5    0    0  0.25449809457E+02  0.12522186592E+02  0.12691918539E+03  0.15315176232E+03  0.80885627422E+02 0.  0.
          5    1    3    3  501    0  0.54363335823E+02 -0.57473008939E+02 -0.10711707898E+03  0.13324667969E+03  0.47000000000E+01 0. -1.
        -11    1    4    4    0    0  0.14457819899E+02 -0.28849600464E+01 -0.82503431667E+02  0.83810308360E+02  0.00000000000E+00 0.  1.
         12    1    4    4    0    0 -0.13369941773E+02  0.61485296662E+02 -0.41301354053E+02  0.75266186931E+02  0.00000000000E+00 0. -1.
         -5    1    5    5    0  502 -0.80901023406E+02 -0.13649514268E+02  0.28349803691E+03  0.29516861582E+03  0.47000000000E+01 0.  1.
         13    1    6    6    0    0 -0.11983929364E+02 -0.10397895440E+02 -0.28858613354E+01  0.16126344540E+02  0.00000000000E+00 0. -1.
        -14    1    6    6    0    0  0.37433738822E+02  0.22920082031E+02  0.12980504673E+03  0.13702541778E+03  0.00000000000E+00 0.  1.
</event>
<event>
12    1  0.8562501E-002  0.1827422E+03  0.7818608E-02  0.1165394E+00
         21   -1    0    0  501  502  0.00000000000E+00  0.00000000000E+00  0.12055635914E+03  0.12055635914E+03  0.00000000000E+00 0.  1.
         21   -1    0    0  502  503 -0.00000000000E+00 -0.00000000000E+00 -0.83653705220E+03  0.83653705220E+03  0.00000000000E+00 0.  1.
         -6    2    1    2    0  503  0.47687125134E+02 -0.37113232297E+02 -0.74955472578E+03  0.77129265237E+03  0.17148940126E+03 0.  0.
        -24    2    3    3    0    0  0.57035153571E+02 -0.86903177308E+02 -0.54534197354E+03  0.56083752072E+03  0.79597019889E+02 0.  0.
          6    2    1    2  501    0 -0.47687125134E+02  0.37113232297E+02  0.33574032727E+02  0.18580075897E+03  0.17246232181E+03 0.  0.
         24    2    5    5    0    0 -0.95797822687E+02  0.44079017127E+02  0.35484825935E+02  0.13692435865E+03  0.79805542027E+02 0.  0.
          5    1    5    5  501    0  0.48110697553E+02 -0.69657848293E+01 -0.19107932081E+01  0.48876400317E+02  0.47000000000E+01 0. -1.
        -13    1    6    6    0    0 -0.88475174940E+02  0.29627417327E+02  0.57493809732E+02  0.10959552270E+03  0.00000000000E+00 0.  1.
         14    1    6    6    0    0 -0.73226477472E+01  0.14451599799E+02 -0.22008983797E+02  0.27328835953E+02  0.00000000000E+00 0. -1.
         -5    1    3    3    0  503 -0.93480284366E+01  0.49789945011E+02 -0.20421275224E+03  0.21045513165E+03  0.47000000000E+01 0.  1.
         11    1    4    4    0    0  0.23009390152E+02  0.14030985696E+01 -0.35784594607E+02  0.42566864249E+02  0.00000000000E+00 0. -1.
        -12    1    4    4    0    0  0.34025763419E+02 -0.88306275878E+02 -0.50955737893E+03  0.51827065647E+03  0.00000000000E+00 0.  1.
</event>
<event>
12    1  0.8562501E-002  0.8306547E+03  0.7818608E-02  0.9516943E-01
         21   -1    0    0  503  502  0.00000000000E+00  0.00000000000E+00  0.13732994272E+04  0.13732994272E+04  0.00000000000E+00 0. -1.
         21   -1    0    0  501  503 -0.00000000000E+00 -0.00000000000E+00 -0.50297735266E+03  0.50297735266E+03  0.00000000000E+00 0.  1.
          6    2    1    2  501    0 -0.80845095405E+03  0.77396441551E+02  0.39321640049E+03  0.91902465330E+03  0.17436748978E+03 0.  0.
         24    2    3    3    0    0 -0.52090695442E+03  0.99379658519E+02  0.30715312079E+03  0.61803662751E+03  0.80036626948E+02 0.  0.
         -6    2    1    2    0  502  0.80845095405E+03 -0.77396441551E+02  0.47710567409E+03  0.95725212660E+03  0.17064189217E+03 0.  0.
        -24    2    5    5    0    0  0.52643808759E+03 -0.41212309384E+02  0.38423956130E+03  0.65810876102E+03  0.81434552522E+02 0.  0.
          5    1    3    3  501    0 -0.28754399963E+03 -0.21983216968E+02  0.86063279699E+02  0.30098802578E+03  0.47000000000E+01 0. -1.
        -11    1    4    4    0    0 -0.66220728535E+01  0.12641636088E+02  0.12726654745E+02  0.19121468376E+02  0.00000000000E+00 0.  1.
         12    1    4    4    0    0 -0.51428488156E+03  0.86738022431E+02  0.29442646604E+03  0.59891515914E+03  0.00000000000E+00 0. -1.
         -5    1    5    5    0  502  0.28201286645E+03 -0.36184132167E+02  0.92866112787E+02  0.29914336558E+03  0.47000000000E+01 0.  1.
         13    1    6    6    0    0  0.18963616993E+03  0.22055519879E+02  0.12165435485E+03  0.22638044297E+03  0.00000000000E+00 0. -1.
        -14    1    6    6    0    0  0.33680191766E+03 -0.63267829262E+02  0.26258520645E+03  0.43172831805E+03  0.00000000000E+00 0.  1.
</event>
<event>
12    1  0.8562501E-002  0.2121674E+03  0.7818608E-02  0.1140427E+00
         21   -1    0    0  503  502  0.00000000000E+00  0.00000000000E+00  0.35723951966E+03  0.35723951966E+03  0.00000000000E+00 0. -1.
         21   -1    0    0  501  503 -0.00000000000E+00 -0.00000000000E+00 -0.12869473689E+03  0.12869473689E+03  0.00000000000E+00 0. -1.
          6    2    1    2  501    0 -0.52473849283E+02 -0.10945618865E+03  0.15989560047E+03  0.26567195511E+03  0.17401385746E+03 0.  0.
         24    2    3    3    0    0 -0.11692417061E+02 -0.94404870933E+01  0.13042870558E+03  0.15361547977E+03  0.79751068775E+02 0.  0.
         -6    2    1    2    0  502  0.52473849283E+02  0.10945618865E+03  0.68649182304E+02  0.22026230144E+03  0.17049518795E+03 0.  0.
        -24    2    5    5    0    0  0.46692086938E+02  0.14515304823E+03  0.63166985282E+02  0.18338630594E+03  0.79943172196E+02 0.  0.
          5    1    3    3  501    0 -0.40781432221E+02 -0.10001570155E+03  0.29466894887E+02  0.11205647534E+03  0.47000000000E+01 0. -1.
        -11    1    4    4    0    0  0.16396614444E+02  0.29064629938E+02  0.49599650469E+02  0.59780657451E+02  0.00000000000E+00 0.  1.
         12    1    4    4    0    0 -0.28089031505E+02 -0.38505117031E+02  0.80829055112E+02  0.93834822315E+02  0.00000000000E+00 0. -1.
         -5    1    5    5    0  502  0.57817623446E+01 -0.35696859588E+02  0.54821970222E+01  0.36875995505E+02  0.47000000000E+01 0.  1.
         13    1    6    6    0    0  0.67065228847E+02  0.12276750383E+03  0.40702752049E+02  0.14569254937E+03  0.00000000000E+00 0. -1.
        -14    1    6    6    0    0 -0.20373141909E+02  0.22385544408E+02  0.22464233233E+02  0.37693756571E+02  0.00000000000E+00 0.  1.
</event>
<event>
12    1  0.8562501E-002  0.1834543E+03  0.7818608E-02  0.1164549E+00
         21   -1    0    0  501  502  0.00000000000E+00  0.00000000000E+00  0.59684019773E+03  0.59684019773E+03  0.00000000000E+00 0.  1.
         21   -1    0    0  502  503 -0.00000000000E+00 -0.00000000000E+00 -0.66209998638E+02  0.66209998638E+02  0.00000000000E+00 0.  1.
         -6    2    1    2    0  503 -0.34584669248E+02  0.57082810663E+02  0.13735602909E+03  0.22917710027E+03  0.17088276081E+03 0.  0.
        -24    2    3    3    0    0  0.11347359020E+02  0.18872470416E+02  0.14806872874E+03  0.16829497435E+03  0.76901997813E+02 0.  0.
          6    2    1    2  501    0  0.34584669248E+02 -0.57082810663E+02  0.39327417000E+03  0.43387309609E+03  0.17066559144E+03 0.  0.
         24    2    5    5    0    0  0.31838537564E+02 -0.92610472079E+02  0.36948278014E+03  0.39077000807E+03  0.81199029427E+02 0.  0.
          5    1    5    5  501    0  0.27461316844E+01  0.35527661416E+02  0.23791389864E+02  0.43103088017E+02  0.47000000000E+01 0. -1.
        -13    1    6    6    0    0 -0.16516069877E+02 -0.42616538145E+02  0.23459874906E+03  0.23900946205E+03  0.00000000000E+00 0.  1.
         14    1    6    6    0    0  0.48354607440E+02 -0.49993933933E+02  0.13488403108E+03  0.15176054603E+03  0.00000000000E+00 0. -1.
         -5    1    3    3    0  503 -0.45932028268E+02  0.38210340247E+02 -0.10712699648E+02  0.60882125919E+02  0.47000000000E+01 0.  1.
         11    1    4    4    0    0 -0.19287757817E+02 -0.11124753402E+02  0.11312455146E+02  0.24974975101E+02  0.00000000000E+00 0. -1.
        -12    1    4    4    0    0  0.30635116837E+02  0.29997223817E+02  0.13675627359E+03  0.14331999925E+03  0.00000000000E+00 0.  1.
</event>
<event>
12    1  0.8562501E-002  0.2354961E+03  0.7818608E-02  0.1122854E+00
         21   -1    0    0  503  502  0.00000000000E+00  0.00000000000E+00  0.64192521397E+03  0.64192521397E+03  0.00000000000E+00 0. -1.
         21   -1    0    0  501  503 -0.00000000000E+00 -0.00000000000E+00 -0.89261988091E+02  0.89261988091E+02  0.00000000000E+00 0.  1.
          6    2    1    2  501    0 -0.15237731391E+02  0.15924343060E+03  0.21014466580E+03  0.31552222106E+03  0.17263496973E+03 0.  0.
         24    2    3    3    0    0 -0.17842554209E+02  0.82973025801E+02  0.29878658256E+02  0.11971138575E+03  0.78963294688E+02 0.  0.
         -6    2    1    2    0  502  0.15237731391E+02 -0.15924343060E+03  0.34251856008E+03  0.41566498099E+03  0.17282289715E+03 0.  0.
        -24    2    5    5    0    0  0.26173815613E+02 -0.11798356493E+03  0.34255289241E+03  0.37272239569E+03  0.83512334031E+02 0.  0.
          5    1    3    3  501    0  0.26048228185E+01  0.76270404803E+02  0.18026600754E+03  0.19581083531E+03  0.47000000000E+01 0. -1.
        -13    1    4    4    0    0 -0.31950549388E+02  0.72891924062E+02  0.49344420796E+02  0.93642629519E+02  0.00000000000E+00 0.  1.
         14    1    4    4    0    0  0.14107995178E+02  0.10081101739E+02 -0.19465762540E+02  0.26068756232E+02  0.00000000000E+00 0. -1.
         -5    1    5    5    0  502 -0.10936084222E+02 -0.41259865677E+02 -0.34332330213E-01  0.42942585303E+02  0.47000000000E+01 0.  1.
         11    1    6    6    0    0  0.54968904598E+02 -0.87798115000E+02  0.21777737531E+03  0.24115777962E+03  0.00000000000E+00 0. -1.
        -12    1    6    6    0    0 -0.28795088985E+02 -0.30185449927E+02  0.12477551709E+03  0.13156461607E+03  0.00000000000E+00 0.  1.
</event>
<event>
12    1  0.8562501E-002  0.2425581E+03  0.7818608E-02  0.1118410E+00
         21   -1    0    0  501  502  0.00000000000E+00  0.00000000000E+00  0.32972731131E+03  0.32972731131E+03  0.00000000000E+00 0.  1.
         21   -1    0    0  502  503 -0.00000000000E+00 -0.00000000000E+00 -0.39523431312E+03  0.39523431312E+03  0.00000000000E+00 0.  1.
         -6    2    1    2    0  503  0.21107681314E+02 -0.16594097377E+03 -0.30212627726E+03  0.38744643479E+03  0.17564882988E+03 0.  0.
        -24    2    3    3    0    0  0.54120728878E+02 -0.37173616807E+02 -0.85915663499E+02  0.13359605951E+03  0.78456834001E+02 0.  0.
          6    2    1    2  501    0 -0.21107681314E+02  0.16594097377E+03  0.23661927546E+03  0.33751518964E+03  0.17304878138E+03 0.  0.
         24    2    5    5    0    0 -0.71950995962E+02  0.11509529536E+03  0.11255545095E+03  0.19404307316E+03  0.80994517520E+02 0.  0.
          5    1    5    5  501    0  0.50843314648E+02  0.50845678404E+02  0.12406382450E+03  0.14347211648E+03  0.47000000000E+01 0. -1.
        -13    1    6    6    0    0 -0.22418315077E+02  0.14222422225E+02  0.68275830109E+02  0.73256038126E+02  0.00000000000E+00 0.  1.
         14    1    6    6    0    0 -0.49532680885E+02  0.10087287314E+03  0.44279620844E+02  0.12078703504E+03  0.00000000000E+00 0. -1.
         -5    1    3    3    0  503 -0.33013047564E+02 -0.12876735696E+03 -0.21621061376E+03  0.25385037528E+03  0.47000000000E+01 0.  1.
         13    1    4    4    0    0 -0.23906708050E+01  0.87268367074E+01  0.98000702512E+01  0.13338454286E+02  0.00000000000E+00 0. -1.
        -14    1    4    4    0    0  0.56511399683E+02 -0.45900453514E+02 -0.95715733750E+02  0.12025760522E+03  0.00000000000E+00 0.  1.
</event>
<event>
12    1  0.8562501E-002  0.3215100E+03  0.7818608E-02  0.1075937E+00
         21   -1    0    0  503  502  0.00000000000E+00  0.00000000000E+00  0.67816800979E+03  0.67816800979E+03  0.00000000000E+00 0.  1.
         21   -1    0    0  501  503 -0.00000000000E+00 -0.00000000000E+00 -0.16149627655E+03  0.16149627655E+03  0.00000000000E+00 0. -1.
          6    2    1    2  501    0 -0.25024700073E+03  0.10570220001E+03  0.14214410420E+03  0.35153041090E+03  0.17196559821E+03 0.  0.
         24    2    3    3    0    0 -0.15207266263E+03  0.27319877711E+02  0.18374748422E+02  0.17511348275E+03  0.80340712101E+02 0.  0.
         -6    2    1    2    0  502  0.25024700073E+03 -0.10570220001E+03  0.37452762903E+03  0.48813387544E+03  0.15558669281E+03 0.  0.
        -24    2    5    5    0    0  0.56739040342E+02 -0.44027424561E+02  0.83443657258E+02  0.13316757100E+03  0.74920125585E+02 0.  0.
          5    1    3    3  501    0 -0.98174338096E+02  0.78382322301E+02  0.12376935578E+03  0.17641692816E+03  0.47000000000E+01 0. -1.
        -13    1    4    4    0    0 -0.90144356414E+02 -0.13665132013E+02 -0.17179850492E+02  0.92778704934E+02  0.00000000000E+00 0.  1.
         14    1    4    4    0    0 -0.61928306220E+02  0.40985009725E+02  0.35554598913E+02  0.82334777812E+02  0.00000000000E+00 0. -1.
         -5    1    5    5    0  502  0.19350796039E+03 -0.61674775451E+02  0.29108397178E+03  0.35496630444E+03  0.47000000000E+01 0.  1.
         13    1    6    6    0    0  0.25566308027E+02 -0.48282484249E+02  0.85690906792E+02  0.10162561635E+03  0.00000000000E+00 0. -1.
        -14    1    6    6    0    0  0.31172732315E+02  0.42550596877E+01 -0.22472495341E+01  0.31541954654E+02  0.00000000000E+00 0.  1.
</event>
<event>
12    1  0.8562501E-002  0.2119330E+03  0.7818608E-02  0.1140215E+00
         21   -1    0    0  503  502  0.00000000000E+00  0.00000000000E+00  0.67443010719E+02  0.67443010719E+02  0.00000000000E+00 0. -1.
         21   -1    0    0  501  503 -0.00000000000E+00 -0.00000000000E+00 -0.73349770607E+03  0.73349770607E+03  0.00000000000E+00 0.  1.
          6    2    1    2  501    0 -0.60955186459E+02 -0.10470215046E+03 -0.20846608819E+03  0.29665614996E+03  0.17282559508E+03 0.  0.
         24    2    3    3    0    0 -0.52957546633E+02 -0.28037505449E+02 -0.19223568580E+03  0.21774514946E+03  0.82872116899E+02 0.  0.
         -6    2    1    2    0  502  0.60955186459E+02  0.10470215046E+03 -0.45758860716E+03  0.50428456683E+03  0.17388937826E+03 0.  0.
        -24    2    5    5    0    0  0.79602878129E+02  0.13209992349E+03 -0.41631417923E+03  0.45114284337E+03  0.80158351416E+02 0.  0.
          5    1    3    3  501    0 -0.79976398263E+01 -0.76664645013E+02 -0.16230402383E+02  0.78911000496E+02  0.47000000000E+01 0. -1.
        -11    1    4    4    0    0  0.14214377520E+02  0.14848240644E+02 -0.59180294143E+02  0.62648431691E+02  0.00000000000E+00 0.  1.
         12    1    4    4    0    0 -0.67171924153E+02 -0.42885746093E+02 -0.13305539166E+03  0.15509671777E+03  0.00000000000E+00 0. -1.
         -5    1    5    5    0  502 -0.18647691670E+02 -0.27397773028E+02 -0.41274427928E+02  0.53141723460E+02  0.47000000000E+01 0.  1.
         13    1    6    6    0    0  0.59621194730E+02  0.68332960137E+02 -0.13956799351E+03  0.16644309873E+03  0.00000000000E+00 0. -1.
        -14    1    6    6    0    0  0.19981683400E+02  0.63766963353E+02 -0.27674618573E+03  0.28469974464E+03  0.00000000000E+00 0.  1.
</event>
<event>
12    1  0.8562501E-002  0.2185060E+03  0.7818608E-02  0.1135238E+00
         21   -1    0    0  501  502  0.00000000000E+00  0.00000000000E+00  0.53965947936E+03  0.53965947936E+03  0.00000000000E+00 0. -1.
         21   -1    0    0  502  503 -0.00000000000E+00 -0.00000000000E+00 -0.19761226252E+03  0.19761226252E+03  0.00000000000E+00 0.  1.
         -6    2    1    2    0  503  0.52316589106E+02 -0.11973164652E+03 -0.10378711774E+03  0.24077085807E+03  0.17356885554E+03 0.  0.
        -24    2    3    3    0    0 -0.36154117462E+01 -0.12677359457E+03 -0.37920492129E+02  0.15394643685E+03  0.78593423466E+02 0.  0.
          6    2    1    2  501    0 -0.52316589106E+02  0.11973164652E+03  0.44583433458E+03  0.49650088381E+03  0.17513475115E+03 0.  0.
         24    2    5    5    0    0 -0.57210431367E+02  0.23964055914E+01  0.23401711491E+03  0.25426105842E+03  0.81276685105E+02 0.  0.
          5    1    5    5  501    0  0.48938422618E+01  0.11733524093E+03  0.21181721967E+03  0.24223982539E+03  0.47000000000E+01 0. -1.
        -11    1    6    6    0    0  0.11020833028E+02 -0.16282580587E+02  0.16956146389E+02  0.25963283528E+02  0.00000000000E+00 0.  1.
         12    1    6    6    0    0 -0.68231264396E+02  0.18678986178E+02  0.21706096852E+03  0.22829777489E+03  0.00000000000E+00 0. -1.
         -5    1    3    3    0  503  0.55932000852E+02  0.70419480496E+01 -0.65866625610E+02  0.86824421224E+02  0.47000000000E+01 0.  1.
         13    1    4    4    0    0  0.35636556019E+02 -0.61418506290E+02 -0.58827665716E+01  0.71251694593E+02  0.00000000000E+00 0. -1.
        -14    1    4    4    0    0 -0.39251967765E+02 -0.65355088283E+02 -0.32037725558E+02  0.82694742256E+02  0.00000000000E+00 0.  1.
</event>
<event>
12    1  0.8562501E-002  0.1835710E+03  0.7818608E-02  0.1164702E+00
         21   -1    0    0  503  502  0.00000000000E+00  0.00000000000E+00  0.70588331091E+02  0.70588331091E+02  0.00000000000E+00 0. -1.
         21   -1    0    0  501  503 -0.00000000000E+00 -0.00000000000E+00 -0.54567360702E+03  0.54567360702E+03  0.00000000000E+00 0. -1.
          6    2    1    2  501    0  0.30437227341E+01 -0.62202166346E+02 -0.12511409827E+03  0.22106815867E+03  0.17128695060E+03 0.  0.
         24    2    3    3    0    0 -0.14916061065E+02  0.27472687510E+02 -0.35862362831E+02  0.93192846248E+02  0.80134637251E+02 0.  0.
         -6    2    1    2    0  502 -0.30437227341E+01  0.62202166346E+02 -0.34997117767E+03  0.39519377945E+03  0.17268446476E+03 0.  0.
        -24    2    5    5    0    0  0.18799445850E+02  0.10155023985E+03 -0.30294300599E+03  0.32993173969E+03  0.80091307895E+02 0.  0.
          5    1    3    3  501    0  0.17959783799E+02 -0.89674853856E+02 -0.89251735435E+02  0.12787531242E+03  0.47000000000E+01 0. -1.
        -11    1    4    4    0    0  0.23916573283E+02  0.37417220713E+01 -0.40774302248E+02  0.47418843148E+02  0.00000000000E+00 0.  1.
         12    1    4    4    0    0 -0.38832634348E+02  0.23730965438E+02  0.49119394175E+01  0.45774003101E+02  0.00000000000E+00 0. -1.
         -5    1    5    5    0  502 -0.21843168584E+02 -0.39348073499E+02 -0.47028171679E+02  0.65262039757E+02  0.47000000000E+01 0.  1.
         11    1    6    6    0    0  0.48073933541E+02  0.71036689272E+02 -0.16979720152E+03  0.19023249973E+03  0.00000000000E+00 0. -1.
        -12    1    6    6    0    0 -0.29274487691E+02  0.30513550573E+02 -0.13314580447E+03  0.13969923996E+03  0.00000000000E+00 0.  1.
</event>
<event>
12    1  0.8562501E-002  0.2165665E+03  0.7818608E-02  0.1137284E+00
         21   -1    0    0  503  502  0.00000000000E+00  0.00000000000E+00  0.22556023736E+03  0.22556023736E+03  0.00000000000E+00 0. -1.
         21   -1    0    0  501  503 -0.00000000000E+00 -0.00000000000E+00 -0.31027293205E+03  0.31027293205E+03  0.00000000000E+00 0. -1.
          6    2    1    2  501    0  0.12297397882E+03  0.18015841238E+02 -0.19951039026E+03  0.29445786905E+03  0.17735239165E+03 0.  0.
         24    2    3    3    0    0  0.48259111521E+02 -0.36799832640E+02 -0.33650122462E+02  0.10440843356E+03  0.78010388597E+02 0.  0.
         -6    2    1    2    0  502 -0.12297397882E+03 -0.18015841238E+02  0.11479769557E+03  0.24137530035E+03  0.17215212665E+03 0.  0.
        -24    2    5    5    0    0 -0.62189616984E+02 -0.11597523441E+02  0.13747308690E+03  0.17601325618E+03  0.89887517026E+02 0.  0.
          5    1    3    3  501    0  0.74714867297E+02  0.54815673878E+02 -0.16586026780E+03  0.19004943550E+03  0.47000000000E+01 0. -1.
        -13    1    4    4    0    0  0.18589003244E+02  0.13904216434E+02  0.15415978750E+02  0.27866300025E+02  0.00000000000E+00 0.  1.
         14    1    4    4    0    0  0.29670108276E+02 -0.50704049074E+02 -0.49066101211E+02  0.76542133532E+02  0.00000000000E+00 0. -1.
         -5    1    5    5    0  502 -0.60784361834E+02 -0.64183177966E+01 -0.22675391334E+02  0.65362044177E+02  0.47000000000E+01 0.  1.
         11    1    6    6    0    0 -0.83517453348E+02 -0.10420138181E+01  0.89241329319E+02  0.12223037947E+03  0.00000000000E+00 0. -1.
        -12    1    6    6    0    0  0.21327836364E+02 -0.10555509623E+02  0.48231757584E+02  0.53782876708E+02  0.00000000000E+00 0.  1.
</event>
<event>
12    1  0.8562501E-002  0.1943571E+03  0.7818608E-02  0.1154660E+00
         21   -1    0    0  503  502  0.00000000000E+00  0.00000000000E+00  0.38140169960E+03  0.38140169960E+03  0.00000000000E+00 0.  1.
         21   -1    0    0  501  503 -0.00000000000E+00 -0.00000000000E+00 -0.10327585867E+03  0.10327585867E+03  0.00000000000E+00 0.  1.
          6    2    1    2  501    0  0.91009219181E+02  0.55782706080E+01  0.89165407294E+02  0.21383444778E+03  0.17164179596E+03 0.  0.
         24    2    3    3    0    0  0.71770081975E+01 -0.10520256210E+02 -0.10596508717E+02  0.82451297986E+02  0.80769705367E+02 0.  0.
         -6    2    1    2    0  502 -0.91009219181E+02 -0.55782706080E+01  0.18896043364E+03  0.27084311049E+03  0.17127799023E+03 0.  0.
        -24    2    5    5    0    0 -0.59109862903E+02  0.43438098712E+02  0.18251795507E+03  0.21181964971E+03  0.78574269127E+02 0.  0.
          5    1    3    3  501    0  0.83832210984E+02  0.16098526818E+02  0.99761916011E+02  0.13138314980E+03  0.47000000000E+01 0. -1.
        -11    1    4    4    0    0 -0.13831791270E+02  0.31613233204E+02 -0.71868189200E+01  0.35247203145E+02  0.00000000000E+00 0.  1.
         12    1    4    4    0    0  0.21008799467E+02 -0.42133489414E+02 -0.34096897973E+01  0.47204094841E+02  0.00000000000E+00 0. -1.
         -5    1    5    5    0  502 -0.31899356279E+02 -0.49016369320E+02  0.64424785770E+01  0.59023460781E+02  0.47000000000E+01 0.  1.
         13    1    6    6    0    0 -0.32686889630E+02  0.48315190630E+02  0.50687366976E+02  0.77278713565E+02  0.00000000000E+00 0. -1.
        -14    1    6    6    0    0 -0.26422973273E+02 -0.48770919178E+01  0.13183058809E+03  0.13454093614E+03  0.00000000000E+00 0.  1.
</event>
<event>
12    1  0.8562501E-002  0.2019845E+03  0.7818608E-02  0.1148276E+00
         21   -1    0    0  503  502  0.00000000000E+00  0.00000000000E+00  0.85185044573E+03  0.85185044573E+03  0.00000000000E+00 0. -1.
         21   -1    0    0  501  503 -0.00000000000E+00 -0.00000000000E+00 -0.64255627517E+02  0.64255627517E+02  0.00000000000E+00 0. -1.
          6    2    1    2  501    0 -0.10421136451E+03 -0.24717602455E+02  0.16174776137E+03  0.25876646579E+03  0.17125062670E+03 0.  0.
         24    2    3    3    0    0 -0.87424861805E+02  0.28265025511E+02  0.48760288415E+02  0.13276168578E+03  0.82498977915E+02 0.  0.
         -6    2    1    2    0  502  0.10421136451E+03  0.24717602455E+02  0.62584705684E+03  0.65733960746E+03  0.17011717318E+03 0.  0.
        -24    2    5    5    0    0  0.10410588929E+02  0.98732692132E+01  0.45451528257E+03  0.46139163833E+03  0.78052802811E+02 0.  0.
          5    1    3    3  501    0 -0.16786502705E+02 -0.52982627966E+02  0.11298747296E+03  0.12600478001E+03  0.47000000000E+01 0. -1.
        -11    1    4    4    0    0 -0.54537280486E+01 -0.24595481608E+02  0.42513505183E+01  0.25549067427E+02  0.00000000000E+00 0.  1.
         12    1    4    4    0    0 -0.81971133757E+02  0.52860507119E+02  0.44508937896E+02  0.10721261836E+03  0.00000000000E+00 0. -1.
         -5    1    5    5    0  502  0.93800775581E+02  0.14844333242E+02  0.17133177427E+03  0.19594796913E+03  0.47000000000E+01 0.  1.
         11    1    6    6    0    0 -0.18106167848E+02 -0.20626898564E+02  0.80446383018E+02  0.84999545876E+02  0.00000000000E+00 0. -1.
        -12    1    6    6    0    0  0.28516756776E+02  0.30500167777E+02  0.37406889955E+03  0.37639209245E+03  0.00000000000E+00 0.  1.
</event>
<event>
12    1  0.8562501E-002  0.2872374E+03  0.7818608E-02  0.1091831E+00
         21   -1    0    0  501  502  0.00000000000E+00  0.00000000000E+00  0.76736034134E+02  0.76736034134E+02  0.00000000000E+00 0. -1.
         21   -1    0    0  502  503 -0.00000000000E+00 -0.00000000000E+00 -0.11658809462E+04  0.11658809462E+04  0.00000000000E+00 0. -1.
         -6    2    1    2    0  503 -0.22666461528E+03  0.37726944737E+02 -0.71889142300E+03  0.77415129130E+03  0.17235188880E+03 0.  0.
        -24    2    3    3    0    0 -0.12291210104E+03  0.48743544584E+02 -0.25100225333E+03  0.29474716660E+03  0.79940248443E+02 0.  0.
          6    2    1    2  501    0  0.22666461528E+03 -0.37726944737E+02 -0.37025348903E+03  0.46846568900E+03  0.17196594271E+03 0.  0.
         24    2    5    5    0    0  0.30750476547E+02 -0.23741187373E+02 -0.14765565963E+03  0.17156531039E+03  0.78251045505E+02 0.  0.
          5    1    5    5  501    0  0.19591413873E+03 -0.13985757364E+02 -0.22259782939E+03  0.29690037860E+03  0.47000000000E+01 0. -1.
        -11    1    6    6    0    0  0.21995184601E+02 -0.19542989406E+02 -0.65722305124E+01  0.30148147447E+02  0.00000000000E+00 0.  1.
         12    1    6    6    0    0  0.87552919463E+01 -0.41981979676E+01 -0.14108342912E+03  0.14141716295E+03  0.00000000000E+00 0. -1.
         -5    1    3    3    0  503 -0.10375251425E+03 -0.11016599847E+02 -0.46788916967E+03  0.47940412470E+03  0.47000000000E+01 0.  1.
         13    1    4    4    0    0 -0.36229068215E+02 -0.18881836073E+02 -0.99469382020E+02  0.10753244662E+03  0.00000000000E+00 0. -1.
        -14    1    4    4    0    0 -0.86683032821E+02  0.67625380657E+02 -0.15153287132E+03  0.18721471998E+03  0.00000000000E+00 0.  1.
</event>
<event>
12    1  0.8562501E-002  0.2996841E+03  0.7818608E-02  0.1085464E+00
         21   -1    0    0  503  502  0.00000000000E+00  0.00000000000E+00  0.76908020171E+03  0.76908020171E+03  0.00000000000E+00 0. -1.
         21   -1    0    0  501  503 -0.00000000000E+00 -0.00000000000E+00 -0.15788411963E+03  0.15788411963E+03  0.00000000000E+00 0.  1.
          6    2    1    2  501    0  0.18538243435E+03 -0.15959524769E+03  0.68326706600E+02  0.30686941410E+03  0.17222952251E+03 0.  0.
         24    2    3    3    0    0  0.51123494492E+02 -0.67838016048E+02 -0.23231299811E+02  0.12018837321E+03  0.81792075732E+02 0.  0.
         -6    2    1    2    0  502 -0.18538243435E+03  0.15959524769E+03  0.54286937548E+03  0.62009490725E+03  0.17312782883E+03 0.  0.
        -24    2    5    5    0    0 -0.39635007467E+02  0.11354036248E+03  0.19870253758E+03  0.24348334715E+03  0.73069105434E+02 0.  0.
          5    1    3    3  501    0  0.13425893986E+03 -0.91757231639E+02  0.91558006411E+02  0.18668104089E+03  0.47000000000E+01 0. -1.
        -11    1    4    4    0    0  0.23501014823E+02  0.16649800937E+02 -0.89495297692E+01  0.30159702453E+02  0.00000000000E+00 0.  1.
         12    1    4    4    0    0  0.27622479670E+02 -0.84487816986E+02 -0.14281770041E+02  0.90028670753E+02  0.00000000000E+00 0. -1.
         -5    1    5    5    0  502 -0.14574742688E+03  0.46054885212E+02  0.34416683790E+03  0.37661156010E+03  0.47000000000E+01 0.  1.
         11    1    6    6    0    0 -0.24433398738E+02  0.10697707857E+03  0.19863025800E+03  0.22692524255E+03  0.00000000000E+00 0. -1.
        -12    1    6    6    0    0 -0.15201608729E+02  0.65632839086E+01  0.72279582790E-01  0.16558104600E+02  0.00000000000E+00 0.  1.
</event>
<event>
12    1  0.8562501E-002  0.2649580E+03  0.7818608E-02  0.1104397E+00
         21   -1    0    0  501  502  0.00000000000E+00  0.00000000000E+00  0.52655930819E+03  0.52655930819E+03  0.00000000000E+00 0. -1.
         21   -1    0    0  502  503 -0.00000000000E+00 -0.00000000000E+00 -0.17101028950E+03  0.17101028950E+03  0.00000000000E+00 0. -1.
         -6    2    1    2    0  503  0.14539508528E+02 -0.20018756942E+03  0.12935534552E+02  0.26527357643E+03  0.17296323899E+03 0.  0.
        -24    2    3    3    0    0 -0.35873965186E+02 -0.13528248401E+03 -0.42245735909E+02  0.16617135116E+03  0.78993188859E+02 0.  0.
          6    2    1    2  501    0 -0.14539508528E+02  0.20018756942E+03  0.34261348413E+03  0.43229602126E+03  0.17090754879E+03 0.  0.
         24    2    5    5    0    0 -0.58368925868E+02  0.18320297263E+03  0.23011283573E+03  0.31027970988E+03  0.79695172430E+02 0.  0.
          5    1    5    5  501    0  0.43829417340E+02  0.16984596786E+02  0.11250064840E+03  0.12201631138E+03  0.47000000000E+01 0. -1.
        -13    1    6    6    0    0 -0.23425838607E+02  0.57345061275E+01  0.47386473536E+02  0.53170784733E+02  0.00000000000E+00 0.  1.
         14    1    6    6    0    0 -0.34943087261E+02  0.17746846650E+03  0.18272636219E+03  0.25710892514E+03  0.00000000000E+00 0. -1.
         -5    1    3    3    0  503  0.50413473714E+02 -0.64905085407E+02  0.55181270460E+02  0.99102225269E+02  0.47000000000E+01 0.  1.
         13    1    4    4    0    0 -0.21007047863E+02 -0.30397582995E+02 -0.47414597759E+02  0.60112005394E+02  0.00000000000E+00 0. -1.
        -14    1    4    4    0    0 -0.14866917324E+02 -0.10488490101E+03  0.51688618505E+01  0.10605934577E+03  0.00000000000E+00 0.  1.
</event>
<event>
12    1  0.8562501E-002  0.1744385E+03  0.7818608E-02  0.1173455E+00
         21   -1    0    0  501  502  0.00000000000E+00  0.00000000000E+00  0.16900140819E+03  0.16900140819E+03  0.00000000000E+00 0. -1.
         21   -1    0    0  502  503 -0.00000000000E+00 -0.00000000000E+00 -0.18483667996E+03  0.18483667996E+03  0.00000000000E+00 0. -1.
         -6    2    1    2    0  503 -0.43760777724E+01 -0.29521764436E+02  0.22428742336E+02  0.17525222671E+03  0.17122969909E+03 0.  0.
        -24    2    3    3    0    0  0.39394980693E+02  0.34932884547E+02  0.10829163496E+02  0.96341216299E+02  0.79950536267E+02 0.  0.
          6    2    1    2  501    0  0.43760777724E+01  0.29521764436E+02 -0.38264014105E+02  0.17858586145E+03  0.17186649034E+03 0.  0.
         24    2    5    5    0    0 -0.49670218661E+02  0.42792234135E+02  0.86780387363E+01  0.10562865585E+03  0.82363818849E+02 0.  0.
          5    1    5    5  501    0  0.54046296433E+02 -0.13270469700E+02 -0.46942052841E+02  0.72957205601E+02  0.47000000000E+01 0. -1.
        -11    1    6    6    0    0 -0.35134342186E+02 -0.13519342336E+02 -0.17901542583E+02  0.41685247329E+02  0.00000000000E+00 0.  1.
         12    1    6    6    0    0 -0.14535876475E+02  0.56311576471E+02  0.26579581320E+02  0.63943408517E+02  0.00000000000E+00 0. -1.
         -5    1    3    3    0  503 -0.43771058465E+02 -0.64454648983E+02  0.11599578840E+02  0.78911010410E+02  0.47000000000E+01 0.  1.
         11    1    4    4    0    0  0.44140569263E+02 -0.13205089485E+02  0.13152855889E+02  0.47914109208E+02  0.00000000000E+00 0. -1.
        -12    1    4    4    0    0 -0.47455885700E+01  0.48137974033E+02 -0.23236923935E+01  0.48427107091E+02  0.00000000000E+00 0.  1.
</event>
